Title
81245
    1CHL1    C3    1   0.826   2.098  10.318 -0.5413 -0.3489  0.5355
    1CHL1    H3    2   0.719   2.091  10.345 -1.0878 -1.1993 -1.6511
    1CHL1    O3    3   0.891   2.087  10.443 -0.4709 -0.4465 -0.0780
    1CHL1   H3'    4   0.848   2.151  10.499 -1.6736 -0.6175 -0.7732
    1CHL1    C4    5   0.840   1.974  10.229  0.2086 -0.5261 -0.3321
    1CHL1   H4A    6   0.949   1.954  10.232  0.3729  0.3488 -0.2274
    1CHL1   H4B    7   0.790   1.892  10.284  2.6761 -1.5806  0.4872
    1CHL1    C5    8   0.765   1.989  10.096 -1.4300 -0.4134  0.0063
    1CHL1    C6    9   0.675   1.902  10.055  0.2868 -0.8180  0.7231
    1CHL1    H6   10   0.644   1.826  10.128 -0.1161 -0.7302  0.6449
    1CHL1    C7   11   0.604   1.908   9.921 -0.0765  0.3862  0.8205
    1CHL1   H7A   12   0.606   1.806   9.879 -2.2087  0.0223  1.5032
    1CHL1   H7B   13   0.495   1.931   9.925  0.0011  0.9897 -0.1832
    1CHL1    C8   14   0.686   2.004   9.817  0.7757  0.3743  0.3528
    1CHL1    H8   15   0.779   1.951   9.789  0.9294  1.0853 -0.5314
    1CHL1   C14   16   0.605   2.022   9.692  0.2019  0.0982 -0.2694
    1CHL1   H14   17   0.520   2.081   9.733  2.5803  2.0533  2.2388
    1CHL1   C15   18   0.553   1.897   9.622 -0.0183 -0.3456 -0.4111
    1CHL1  H15A   19   0.642   1.831   9.621  2.0566  2.2232 -2.0513
    1CHL1  H15B   20   0.456   1.866   9.666  0.2804 -0.1657  0.3937
    1CHL1   C16   21   0.530   1.946   9.479  0.2509  0.0335 -0.2153
    1CHL1  H16A   22   0.596   1.893   9.407 -1.0746  0.8422 -2.1185
    1CHL1  H16B   23   0.426   1.921   9.448 -0.0598  1.1287 -0.0875
    1CHL1   C17   24   0.560   2.099   9.484  0.3448 -0.2586  0.3841
    1CHL1   H17   25   0.468   2.147   9.524 -0.1256 -2.6365  2.3677
    1CHL1   C13   26   0.671   2.113   9.595 -0.1955 -0.4943  0.5348
    1CHL1   C18   27   0.802   2.045   9.547  0.2496  0.3262 -0.0994
    1CHL1  H18A   28   0.847   2.110   9.468  0.5683  1.5030  1.0252
    1CHL1  H18B   29   0.875   2.037   9.630 -1.0145 -1.1153  0.9159
    1CHL1  H18C   30   0.774   1.948   9.502  1.8439 -0.1622 -0.1179
    1CHL1   C12   31   0.692   2.259   9.655  0.7607 -0.4443  0.3155
    1CHL1  H12A   32   0.738   2.327   9.580 -0.2950 -1.6721 -1.5211
    1CHL1  H12B   33   0.589   2.295   9.671 -0.2156 -2.4864 -1.0279
    1CHL1   C11   34   0.762   2.246   9.788 -0.4047  0.3819 -0.1932
    1CHL1  H11A   35   0.870   2.226   9.770 -0.0678 -0.3314  2.2599
    1CHL1  H11B   36   0.763   2.343   9.843  0.5771 -0.0495  0.5769
    1CHL1    C9   37   0.716   2.135   9.884 -0.4578  0.9542  0.8640
    1CHL1    H9   38   0.615   2.172   9.911 -1.2674 -0.4574 -0.1146
    1CHL1   C10   39   0.804   2.119  10.016  0.3042  0.0841  0.0130
    1CHL1   C19   40   0.956   2.103   9.990  0.5277  0.0416  0.0412
    1CHL1  H19A   41   1.019   2.071  10.075 -1.6371 -0.9405  1.3551
    1CHL1  H19B   42   0.967   2.033   9.904 -1.3225  0.1770 -0.3673
    1CHL1  H19C   43   0.993   2.204   9.962 -0.6446  0.5456  0.2498
    1CHL1    C1   44   0.785   2.247  10.109  0.3285  0.4445  0.4015
    1CHL1   H1A   45   0.833   2.335  10.062 -0.7025  0.8617  0.1045
    1CHL1   H1B   46   0.676   2.267  10.119  0.7596  2.8842  0.6612
    1CHL1    C2   47   0.852   2.235  10.248 -0.1574  0.4002  0.5936
    1CHL1   H2A   48   0.814   2.325  10.302  1.1902  0.4884  1.4472
    1CHL1   H2B   49   0.960   2.257  10.235 -0.0494  1.0542  2.3326
    1CHL1   C20   50   0.592   2.162   9.344  0.1730  0.0817 -0.0901
    1CHL1   H20   51   0.701   2.157   9.320 -0.1057  0.6911 -1.5801
    1CHL1   C21   52   0.542   2.303   9.357  0.3360 -0.2176 -0.0234
    1CHL1  H21A   53   0.579   2.368   9.274 -0.0336 -0.0588 -0.0645
    1CHL1  H21B   54   0.578   2.368   9.440  0.1102  1.3437 -1.0966
    1CHL1  H21C   55   0.432   2.314   9.363  0.2391 -1.4291  0.6499
    1CHL1   C22   56   0.511   2.100   9.226  0.5054 -0.0611 -0.7394
    1CHL1  H22A   57   0.543   1.993   9.225  0.1567 -0.2338  1.4919
    1CHL1  H22B   58   0.402   2.109   9.248  1.3056  2.2029  3.5966
    1CHL1   C23   59   0.559   2.160   9.092 -0.4240  0.0609 -0.1099
    1CHL1  H23A   60   0.532   2.267   9.087  0.1209  0.2870  1.3864
    1CHL1  H23B   61   0.669   2.145   9.090 -0.2344  0.9939  1.8313
    1CHL1   C24   62   0.499   2.094   8.964  0.2850 -0.1480  0.0251
    1CHL1  H24A   63   0.570   2.092   8.879  2.6658 -2.1594  1.9069
    1CHL1  H24B   64   0.487   1.988   8.994 -1.8266 -0.8392 -2.8655
    1CHL1   C25   65   0.356   2.138   8.929 -0.0473  0.8211 -0.0419
    1CHL1   H25   66   0.308   2.164   9.026  0.2181  0.4515  0.1886
    1CHL1   C26   67   0.361   2.275   8.849  0.2499  0.2847 -0.5732
    1CHL1  H26A   68   0.416   2.353   8.907 -0.6503  1.8183 -1.6836
    1CHL1  H26B   69   0.413   2.274   8.751  1.5133 -0.0831  0.0795
    1CHL1  H26C   70   0.260   2.320   8.836  0.6648  1.3100 -0.3897
    1CHL1   C27   71   0.280   2.034   8.844  0.1045  0.2603  0.8089
    1CHL1  H27A   72   0.346   1.976   8.776  0.9542  0.7836  1.1611
    1CHL1  H27B   73   0.240   1.962   8.919  2.4394  0.4690  2.3851
    1CHL1  H27C   74   0.197   2.078   8.785 -0.6984 -1.3575  0.6738
    2CHL1    C3   75   1.826   6.244  10.000  0.2192 -0.9731  0.0276
    2CHL1    H3   76   1.718   6.270   9.994  0.4744  1.2235  2.6609
    2CHL1    O3   77   1.877   6.279  10.126 -0.2180 -0.5238  0.6845
    2CHL1   H3'   78   1.900   6.198  10.173  1.0013 -0.3591  0.4169
    2CHL1    C4   79   1.836   6.091   9.994  0.1574 -0.4481  0.0919
    2CHL1   H4A   80   1.941   6.063  10.019  0.1208 -0.4910  0.1986
    2CHL1   H4B   81   1.769   6.059  10.076 -1.0864 -0.3308 -0.8538
    2CHL1    C5   82   1.778   6.036   9.863  0.6391 -0.2975 -0.1337
    2CHL1    C6   83   1.666   5.954   9.845 -0.4098 -0.4358  0.3604
    2CHL1    H6   84   1.619   5.906   9.932 -2.2834 -0.4087 -0.5882
    2CHL1    C7   85   1.614   5.902   9.716 -1.0414  0.2939 -0.0774
    2CHL1   H7A   86   1.591   5.794   9.724  0.0982 -0.2265 -2.8804
    2CHL1   H7B   87   1.519   5.956   9.695 -0.0105  1.4194 -2.1430
    2CHL1    C8   88   1.713   5.931   9.601  0.4952  0.3643 -0.6385
    2CHL1    H8   89   1.798   5.861   9.616  1.0920  1.4251  1.2857
    2CHL1   C14   90   1.651   5.922   9.463 -0.0220 -0.8380  0.9456
    2CHL1   H14   91   1.578   6.005   9.466 -0.1401 -0.8649 -0.6881
    2CHL1   C15   92   1.560   5.797   9.448 -0.2450  0.2524  0.0883
    2CHL1  H15A   93   1.605   5.707   9.496  1.9970  1.1918 -0.1402
    2CHL1  H15B   94   1.461   5.820   9.491 -0.6567  1.6591 -1.5169
    2CHL1   C16   95   1.561   5.773   9.301 -0.2319  0.4652  0.4052
    2CHL1  H16A   96   1.625   5.684   9.280  1.1695  0.9024  2.5501
    2CHL1  H16B   97   1.456   5.751   9.273 -0.4977  0.5908  1.2967
    2CHL1   C17   98   1.639   5.895   9.235  0.5591 -0.1578 -0.1433
    2CHL1   H17   99   1.558   5.971   9.227 -1.3267 -1.7334  2.4715
    2CHL1   C13  100   1.741   5.944   9.341 -0.3900  0.0117 -0.1387
    2CHL1   C18  101   1.855   5.836   9.329  0.0973  0.1574  0.1524
    2CHL1  H18A  102   1.907   5.841   9.427 -0.8168 -0.3333  0.6741
    2CHL1  H18B  103   1.819   5.734   9.305  1.7648 -0.3274 -0.4333
    2CHL1  H18C  104   1.929   5.871   9.253 -1.4035  2.4131 -0.3843
    2CHL1   C12  105   1.782   6.091   9.337 -0.6265 -0.4047 -0.4085
    2CHL1  H12A  106   1.867   6.111   9.268  1.4222 -0.2787  1.9779
    2CHL1  H12B  107   1.696   6.154   9.307 -1.9790 -0.1562  3.4496
    2CHL1   C11  108   1.836   6.134   9.478 -0.4660 -0.0949  0.2822
    2CHL1  H11A  109   1.940   6.098   9.469 -0.8142 -1.9597  2.8185
    2CHL1  H11B  110   1.835   6.245   9.480  0.0865 -0.0403 -1.1296
    2CHL1    C9  111   1.766   6.079   9.607  0.0949  0.3071  0.3103
    2CHL1    H9  112   1.680   6.150   9.615  0.2243  0.6012 -0.7648
    2CHL1   C10  113   1.842   6.112   9.738  0.7400 -0.6955  0.3502
    2CHL1   C19  114   1.988   6.054   9.722 -0.3543  0.7876  0.3431
    2CHL1  H19A  115   2.044   6.123   9.656  0.2456  0.9035  0.9728
    2CHL1  H19B  116   2.053   6.064   9.811 -2.0733  0.9015  1.6453
    2CHL1  H19C  117   1.988   5.949   9.685  0.7566 -0.1444  2.7650
    2CHL1    C1  118   1.862   6.273   9.751  0.3505  0.6508 -0.7734
    2CHL1   H1A  119   1.934   6.315   9.678  1.3883  1.4261  0.6333
    2CHL1   H1B  120   1.765   6.322   9.730  0.0920 -0.0407 -1.2197
    2CHL1    C2  121   1.905   6.315   9.893 -0.4734 -1.0084 -0.3142
    2CHL1   H2A  122   1.890   6.425   9.893 -2.3219 -1.2245  0.4008
    2CHL1   H2B  123   2.011   6.301   9.923 -0.5721  0.2826  0.7480
    2CHL1   C20  124   1.685   5.863   9.094  0.4609  0.2825  0.8283
    2CHL1   H20  125   1.753   5.776   9.104  3.7416  2.4909 -0.6894
    2CHL1   C21  126   1.768   5.972   9.026 -0.1858  0.2969 -0.6173
    2CHL1  H21A  127   1.806   5.931   8.930  1.6368  0.4263 -0.0017
    2CHL1  H21B  128   1.863   5.993   9.079  0.1655  1.2939 -1.5947
    2CHL1  H21C  129   1.710   6.066   9.012 -1.9342 -0.2214  2.3755
    2CHL1   C22  130   1.576   5.810   9.004 -0.0811  0.6051 -0.6650
    2CHL1  H22A  131   1.488   5.779   9.064 -0.5688  0.7436 -1.2911
    2CHL1  H22B  132   1.540   5.898   8.946 -2.2171  0.1728 -0.0879
    2CHL1   C23  133   1.615   5.695   8.918 -0.0192 -0.3613 -0.2144
    2CHL1  H23A  134   1.714   5.709   8.869  0.9305  0.7059  1.8587
    2CHL1  H23B  135   1.630   5.610   8.988  3.8560 -0.4296 -0.9007
    2CHL1   C24  136   1.505   5.649   8.813 -0.4932  0.3929  0.3027
    2CHL1  H24A  137   1.426   5.589   8.864 -0.1286 -0.6465 -0.3153
    2CHL1  H24B  138   1.458   5.730   8.753 -0.5411  0.5368  0.5341
    2CHL1   C25  139   1.551   5.556   8.702 -0.3301  1.2571 -0.4106
    2CHL1   H25  140   1.615   5.481   8.753 -2.3797 -0.9806 -0.9481
    2CHL1   C26  141   1.429   5.483   8.632 -0.0147  0.0801 -0.2697
    2CHL1  H26A  142   1.371   5.420   8.702 -0.0360 -0.7445 -0.9996
    2CHL1  H26B  143   1.360   5.551   8.578  0.0455  0.9125  0.6806
    2CHL1  H26C  144   1.472   5.412   8.557 -2.2606 -2.5516  0.7503
    2CHL1   C27  145   1.637   5.621   8.597 -0.3916  0.1560 -0.0594
    2CHL1  H27A  146   1.708   5.693   8.643  1.7084 -1.9464  0.1704
    2CHL1  H27B  147   1.711   5.549   8.557  1.5884  2.4118 -0.6199
    2CHL1  H27C  148   1.586   5.652   8.503 -0.7945 -4.0577 -1.4743
    3CHL1    C3  149   3.657   0.916  10.241 -0.2766 -0.5540 -0.9528
    3CHL1    H3  150   3.752   0.957  10.199  1.5612 -4.9663 -1.6870
    3CHL1    O3  151   3.659   0.909  10.381  0.0554  0.2100 -1.1197
    3CHL1   H3'  152   3.586   0.851  10.405 -0.1729  0.2787 -1.6226
    3CHL1    C4  153   3.532   0.999  10.194  0.0034  0.7608  0.3464
    3CHL1   H4A  154   3.440   0.941  10.216  1.3642 -1.7787 -0.2632
    3CHL1   H4B  155   3.525   1.098  10.243  1.1375  0.8184  0.4173
    3CHL1    C5  156   3.530   0.998  10.042 -0.4034 -0.6721 -0.6048
    3CHL1    C6  157   3.530   1.119   9.976 -0.3779 -0.6197  0.7718
    3CHL1    H6  158   3.538   1.210  10.037  0.5806 -0.0216 -0.1892
    3CHL1    C7  159   3.501   1.129   9.829 -0.1327  0.2413 -0.2644
    3CHL1   H7A  160   3.412   1.196   9.817 -0.5791 -0.3904 -0.5655
    3CHL1   H7B  161   3.586   1.183   9.781 -1.6033  4.0505  1.0254
    3CHL1    C8  162   3.468   1.000   9.762 -0.3300  0.2915 -0.2439
    3CHL1    H8  163   3.363   0.980   9.793  0.4218 -1.7017  1.1926
    3CHL1   C14  164   3.493   1.009   9.602 -0.2829 -0.3394  0.5044
    3CHL1   H14  165   3.603   1.020   9.597 -0.1052  0.8400  3.8437
    3CHL1   C15  166   3.421   1.115   9.531 -0.1863 -0.7305  0.1352
    3CHL1  H15A  167   3.316   1.116   9.566 -0.6581 -2.1385 -1.1367
    3CHL1  H15B  168   3.457   1.217   9.556  1.5361 -1.0044 -1.0325
    3CHL1   C16  169   3.428   1.079   9.385 -0.2868 -0.5538  0.4023
    3CHL1  H16A  170   3.325   1.069   9.344 -0.0879  1.0416 -0.5580
    3CHL1  H16B  171   3.477   1.156   9.322 -1.6408  0.8105  0.9602
    3CHL1   C17  172   3.488   0.937   9.384 -0.3671 -0.1422  0.0354
    3CHL1   H17  173   3.597   0.955   9.368 -0.5506  0.9716 -0.0149
    3CHL1   C13  174   3.462   0.881   9.525 -0.3408 -0.2383 -0.4912
    3CHL1   C18  175   3.310   0.844   9.549 -0.0156  0.4369  0.4369
    3CHL1  H18A  176   3.293   0.863   9.658 -0.3223 -0.9763  0.6569
    3CHL1  H18B  177   3.241   0.904   9.486  1.1290 -1.2050 -2.6043
    3CHL1  H18C  178   3.299   0.735   9.534  0.1743  0.1218  2.2762
    3CHL1   C12  179   3.558   0.771   9.573  0.5077 -0.5206  0.5775
    3CHL1  H12A  180   3.521   0.676   9.529  2.0497 -1.1470  0.5966
    3CHL1  H12B  181   3.660   0.801   9.543  0.9270 -0.8485  1.6305
    3CHL1   C11  182   3.540   0.752   9.727 -0.5537 -0.6030 -0.3263
    3CHL1  H11A  183   3.445   0.696   9.744 -1.1860  0.9469  1.6282
    3CHL1  H11B  184   3.621   0.690   9.771 -0.0392 -1.5065 -2.4155
    3CHL1    C9  185   3.544   0.879   9.820 -0.0039 -0.0947  0.1319
    3CHL1    H9  186   3.650   0.910   9.808  0.2705 -0.6225  1.0947
    3CHL1   C10  187   3.527   0.863   9.973  0.5621 -0.2280  0.5278
    3CHL1   C19  188   3.387   0.787   9.997 -0.5993  0.1539 -0.5684
    3CHL1  H19A  189   3.305   0.840   9.943 -0.9790 -0.8563 -1.0118
    3CHL1  H19B  190   3.392   0.685   9.954  2.2212 -0.2545  0.5287
    3CHL1  H19C  191   3.363   0.780  10.106 -0.3880 -1.8069 -0.6204
    3CHL1    C1  192   3.650   0.778  10.031 -0.6963 -0.5374  0.2889
    3CHL1   H1A  193   3.629   0.676   9.993 -1.4897  0.0785 -1.0031
    3CHL1   H1B  194   3.744   0.823   9.993 -1.4083  0.1352 -0.7321
    3CHL1    C2  195   3.658   0.776  10.180  0.3303 -0.3369 -0.6810
    3CHL1   H2A  196   3.751   0.735  10.226 -1.3619 -1.8774  1.6219
    3CHL1   H2B  197   3.568   0.723  10.219 -0.8175  0.9628 -1.4770
    3CHL1   C20  198   3.432   0.854   9.261  0.2954 -0.2120 -0.2927
    3CHL1   H20  199   3.326   0.833   9.283 -0.0887  0.8370 -1.0982
    3CHL1   C21  200   3.506   0.718   9.249 -0.3735  0.3917  0.3952
    3CHL1  H21A  201   3.474   0.646   9.327 -0.7434 -1.6891 -1.6125
    3CHL1  H21B  202   3.617   0.727   9.243 -0.2827 -1.0380 -0.4337
    3CHL1  H21C  203   3.482   0.668   9.153 -1.0266 -0.6046  1.0679
    3CHL1   C22  204   3.447   0.940   9.126  0.0628  0.8036  0.0779
    3CHL1  H22A  205   3.382   1.031   9.125 -1.8952 -0.5320 -1.1150
    3CHL1  H22B  206   3.556   0.949   9.110  0.7529 -0.9535  3.0316
    3CHL1   C23  207   3.392   0.867   8.997  0.1980 -0.1655 -0.4477
    3CHL1  H23A  208   3.406   0.944   8.918  2.3426  1.4830  1.3952
    3CHL1  H23B  209   3.448   0.771   8.986  3.5329  1.5392  0.2103
    3CHL1   C24  210   3.237   0.836   8.998 -0.0932  0.3581  0.4024
    3CHL1  H24A  211   3.212   0.800   8.896  1.2088 -0.4129  0.3310
    3CHL1  H24B  212   3.221   0.746   9.061  2.3567 -1.7909 -1.7774
    3CHL1   C25  213   3.145   0.948   9.048  0.0424  0.5224  0.2114
    3CHL1   H25  214   3.181   0.983   9.147 -2.3000  0.2501  1.2265
    3CHL1   C26  215   3.147   1.060   8.951 -0.4394  0.3535  0.4833
    3CHL1  H26A  216   3.250   1.089   8.921 -0.3167 -0.3600  0.1855
    3CHL1  H26B  217   3.092   1.025   8.861 -0.5158 -0.5109  0.8521
    3CHL1  H26C  218   3.097   1.151   8.990  1.7664  2.4345 -1.2131
    3CHL1   C27  219   3.011   0.895   9.063 -0.1775  0.2742  0.5055
    3CHL1  H27A  220   2.937   0.974   9.087  0.3556  0.9969 -0.1889
    3CHL1  H27B  221   2.983   0.853   8.964 -0.2537 -0.4724  0.8374
    3CHL1  H27C  222   3.003   0.804   9.126 -0.6895  0.2529  0.4120
    4CHL1    C3  223   2.483   2.150  10.328 -0.2622 -0.1130  0.3527
    4CHL1    H3  224   2.539   2.054  10.324  1.4040  0.8052  0.6773
    4CHL1    O3  225   2.418   2.161  10.451 -0.0240 -0.3714  0.1762
    4CHL1   H3'  226   2.350   2.228  10.448  1.1500  0.8708  0.2312
    4CHL1    C4  227   2.591   2.268  10.313  0.1221 -0.6159  0.3573
    4CHL1   H4A  228   2.538   2.364  10.326  0.0706  0.0600 -3.5823
    4CHL1   H4B  229   2.665   2.256  10.395 -1.4875  0.5471  2.0300
    4CHL1    C5  230   2.659   2.262  10.180 -0.3218  0.3242 -0.5290
    4CHL1    C6  231   2.789   2.251  10.163 -0.6984  0.2974  0.2803
    4CHL1    H6  232   2.852   2.239  10.252 -0.4883  1.4864  0.3060
    4CHL1    C7  233   2.856   2.257  10.029 -0.2032  0.4881  0.2740
    4CHL1   H7A  234   2.947   2.321  10.032 -1.1614  2.3368 -3.4960
    4CHL1   H7B  235   2.881   2.153  10.000 -0.0953  0.3329  0.9090
    4CHL1    C8  236   2.771   2.326   9.925  0.5069  0.3772  0.1516
    4CHL1    H8  237   2.769   2.436   9.937  1.1330  0.6194 -1.6714
    4CHL1   C14  238   2.832   2.301   9.786  0.4561 -0.0466  0.0076
    4CHL1   H14  239   2.827   2.192   9.766  1.5086  0.0627 -1.0125
    4CHL1   C15  240   2.977   2.328   9.749  0.3485 -0.4721  0.3367
    4CHL1  H15A  241   3.005   2.429   9.787 -1.1370  0.5174 -1.0737
    4CHL1  H15B  242   3.052   2.263   9.799  0.6310  0.7494  1.5372
    4CHL1   C16  243   2.990   2.333   9.597 -0.0664 -0.2997 -0.7490
    4CHL1  H16A  244   3.039   2.429   9.571 -1.0119  0.2886 -0.4095
    4CHL1  H16B  245   3.058   2.248   9.573  1.6492  1.0420 -0.8359
    4CHL1   C17  246   2.847   2.311   9.546 -0.3719 -0.5717  0.1837
    4CHL1   H17  247   2.819   2.205   9.529  0.2293 -0.4260 -1.8970
    4CHL1   C13  248   2.758   2.361   9.665  0.4070  0.4798 -0.3691
    4CHL1   C18  249   2.758   2.518   9.677 -0.0542 -0.1138 -0.3571
    4CHL1  H18A  250   2.863   2.554   9.678 -0.2934  0.7628  2.4229
    4CHL1  H18B  251   2.703   2.567   9.594  1.4013  0.4989 -0.9797
    4CHL1  H18C  252   2.721   2.536   9.781  2.1431  0.6815  0.3416
    4CHL1   C12  253   2.616   2.308   9.664 -0.1236 -0.1237 -1.0423
    4CHL1  H12A  254   2.555   2.372   9.598 -1.2389 -0.2847 -0.1970
    4CHL1  H12B  255   2.609   2.205   9.623 -2.2762  0.0600 -1.2547
    4CHL1   C11  256   2.547   2.326   9.802  0.4256 -0.0813 -0.3458
    4CHL1  H11A  257   2.536   2.436   9.814  2.7677  0.1173  0.7273
    4CHL1  H11B  258   2.454   2.266   9.798  0.7385 -0.7793  1.7009
    4CHL1    C9  259   2.627   2.267   9.925 -0.0452  0.1374 -0.0977
    4CHL1    H9  260   2.643   2.159   9.909 -0.8225 -0.0232  0.1917
    4CHL1   C10  261   2.558   2.283  10.061  1.0127  0.0219  0.3173
    4CHL1   C19  262   2.494   2.421  10.080  1.0579 -0.4516 -0.2022
    4CHL1  H19A  263   2.429   2.443  10.167  1.8167  0.5436  0.1392
    4CHL1  H19B  264   2.575   2.497  10.082  0.1005  0.5832  0.3075
    4CHL1  H19C  265   2.426   2.444   9.995  0.1684  0.9303  0.8350
    4CHL1    C1  266   2.451   2.171  10.075  0.0918  0.2341  0.2146
    4CHL1   H1A  267   2.362   2.177  10.009 -0.5008 -2.1066  0.7185
    4CHL1   H1B  268   2.488   2.072  10.041 -0.0449  0.7024 -1.4006
    4CHL1    C2  269   2.385   2.155  10.214 -0.3517  0.6502 -0.0901
    4CHL1   H2A  270   2.335   2.056  10.216  1.3689 -0.2448  0.2547
    4CHL1   H2B  271   2.314   2.239  10.235 -1.7288 -0.8979  1.8857
    4CHL1   C20  272   2.837   2.377   9.403 -1.2287  0.3775  0.2276
    4CHL1   H20  273   2.860   2.485   9.419  0.5836  0.4154 -2.0455
    4CHL1   C21  274   2.699   2.350   9.344 -0.2483 -0.6428 -0.5784
    4CHL1  H21A  275   2.620   2.361   9.422  1.3927 -1.2430  1.2366
    4CHL1  H21B  276   2.688   2.246   9.308  1.7584 -1.9868  2.2932
    4CHL1  H21C  277   2.676   2.421   9.262 -3.4379 -0.4411  0.3443
    4CHL1   C22  278   2.951   2.323   9.304 -0.5503 -0.0540 -1.0277
    4CHL1  H22A  279   3.051   2.326   9.353 -1.9736  0.1643  2.0866
    4CHL1  H22B  280   2.921   2.218   9.281 -0.1734 -0.4582  0.2379
    4CHL1   C23  281   2.966   2.400   9.168 -0.2704 -0.4198 -0.3448
    4CHL1  H23A  282   2.867   2.425   9.125 -0.0066  1.3897  0.0331
    4CHL1  H23B  283   3.006   2.501   9.188  1.0175 -1.3048  1.9143
    4CHL1   C24  284   3.050   2.323   9.067 -0.2518 -0.3884  0.7614
    4CHL1  H24A  285   3.157   2.336   9.092 -0.0367  0.6523 -0.5584
    4CHL1  H24B  286   3.040   2.214   9.082 -3.1641 -0.6340 -1.8581
    4CHL1   C25  287   3.026   2.358   8.915  0.3562  0.8449  0.2361
    4CHL1   H25  288   3.092   2.281   8.870  0.5652 -0.1479  2.1089
    4CHL1   C26  289   2.878   2.324   8.877  0.3082 -0.5215 -0.7527
    4CHL1  H26A  290   2.839   2.227   8.913 -0.2209  0.6342  2.0745
    4CHL1  H26B  291   2.810   2.402   8.918 -1.4985 -2.3226 -0.1810
    4CHL1  H26C  292   2.870   2.331   8.766  1.3889  0.8466 -0.7728
    4CHL1   C27  293   3.054   2.491   8.867 -0.1199  0.7678  0.5291
    4CHL1  H27A  294   3.160   2.518   8.880 -0.0851 -0.3675  3.6851
    4CHL1  H27B  295   3.022   2.497   8.761 -0.1275 -1.8363  0.3213
    4CHL1  H27C  296   3.005   2.569   8.930  1.5895  2.6834 -0.4323
    5CHL1    C3  297   2.225   6.617   9.851  0.6581  0.1289 -0.0461
    5CHL1    H3  298   2.180   6.523   9.889  3.0905 -1.3584 -0.6106
    5CHL1    O3  299   2.262   6.693   9.963  0.7816  0.1295 -0.2734
    5CHL1   H3'  300   2.300   6.626  10.020  1.1904  0.0776 -0.6053
    5CHL1    C4  301   2.350   6.576   9.770  0.0531 -0.3727  0.4522
    5CHL1   H4A  302   2.418   6.660   9.745  0.8208 -1.4322 -1.2297
    5CHL1   H4B  303   2.419   6.516   9.833 -1.2279 -2.1610  0.2291
    5CHL1    C5  304   2.313   6.493   9.649 -0.3005  0.0190 -0.1019
    5CHL1    C6  305   2.356   6.363   9.633  0.5966  0.0418 -0.1521
    5CHL1    H6  306   2.423   6.319   9.708 -0.8195 -0.4493  0.8497
    5CHL1    C7  307   2.333   6.290   9.501  1.3108 -0.8952  0.5264
    5CHL1   H7A  308   2.430   6.253   9.462  2.1661  0.7604  1.0116
    5CHL1   H7B  309   2.272   6.197   9.506  1.9036 -1.4957 -2.0385
    5CHL1    C8  310   2.260   6.372   9.392  0.1802  0.1391 -0.4756
    5CHL1    H8  311   2.342   6.435   9.350 -0.9842  3.0047  1.2284
    5CHL1   C14  312   2.195   6.285   9.286  0.8957  0.3178 -0.2415
    5CHL1   H14  313   2.110   6.243   9.345  3.7769 -2.2957  2.4799
    5CHL1   C15  314   2.268   6.164   9.229 -0.4256  0.4515  0.3017
    5CHL1  H15A  315   2.378   6.178   9.234 -0.1399 -0.9078 -1.1316
    5CHL1  H15B  316   2.252   6.070   9.286  2.6037 -0.5606 -0.3049
    5CHL1   C16  317   2.217   6.144   9.089  0.2591  0.3390 -0.3355
    5CHL1  H16A  318   2.289   6.174   9.010 -1.8891  0.8883 -2.2061
    5CHL1  H16B  319   2.181   6.041   9.067  0.2368  0.1831  0.4154
    5CHL1   C17  320   2.100   6.241   9.077 -0.1066 -0.6932 -0.1750
    5CHL1   H17  321   2.015   6.192   9.127 -0.2069  0.0779  0.4238
    5CHL1   C13  322   2.138   6.361   9.167 -1.0664 -0.4220 -0.2826
    5CHL1   C18  323   2.260   6.437   9.093  0.1876  0.3358  0.3208
    5CHL1  H18A  324   2.238   6.466   8.988 -1.2648 -1.4760  0.0783
    5CHL1  H18B  325   2.271   6.531   9.152 -1.3259  0.0348  1.1287
    5CHL1  H18C  326   2.348   6.369   9.100 -0.0252 -0.0848 -0.8875
    5CHL1   C12  327   2.030   6.464   9.210  0.3253  0.2970  0.4637
    5CHL1  H12A  328   1.981   6.525   9.130 -1.1057  0.4351  1.4070
    5CHL1  H12B  329   1.950   6.394   9.242  0.8422 -0.2366  0.6108
    5CHL1   C11  330   2.077   6.555   9.326  0.1727 -0.5210 -0.0150
    5CHL1  H11A  331   2.137   6.634   9.275 -0.0598  1.0072  1.9707
    5CHL1  H11B  332   1.988   6.599   9.374 -0.7962  0.8402 -2.8547
    5CHL1    C9  333   2.153   6.481   9.443  0.0029 -0.0996 -0.0607
    5CHL1    H9  334   2.078   6.411   9.486  0.3320 -1.8209 -2.1235
    5CHL1   C10  335   2.213   6.563   9.557 -0.9432 -0.3045  0.3141
    5CHL1   C19  336   2.286   6.678   9.482  0.3214  0.6109 -0.1011
    5CHL1  H19A  337   2.348   6.749   9.540  0.2898  1.3200 -0.9067
    5CHL1  H19B  338   2.350   6.639   9.399 -0.1622 -2.0421  0.6674
    5CHL1  H19C  339   2.209   6.744   9.435 -2.4015 -0.5498  2.4255
    5CHL1    C1  340   2.098   6.620   9.640 -0.0900  0.1448  0.6858
    5CHL1   H1A  341   2.040   6.678   9.565 -0.2035 -1.7656 -0.7829
    5CHL1   H1B  342   2.025   6.539   9.660 -0.7334  0.4625 -0.2819
    5CHL1    C2  343   2.127   6.699   9.769  0.2555 -0.6327 -0.5618
    5CHL1   H2A  344   2.029   6.711   9.821  1.5940  2.5212  1.5133
    5CHL1   H2B  345   2.164   6.803   9.763  1.5163 -0.9754  0.7543
    5CHL1   C20  346   2.057   6.267   8.935  0.7836 -0.6049  0.0510
    5CHL1   H20  347   2.124   6.346   8.896 -0.6290  1.6093  1.8805
    5CHL1   C21  348   1.907   6.326   8.932 -0.2776 -0.1271  0.2317
    5CHL1  H21A  349   1.872   6.338   8.827 -0.5909  0.6050  0.4179
    5CHL1  H21B  350   1.898   6.430   8.971  2.1780  0.7299 -1.2023
    5CHL1  H21C  351   1.851   6.243   8.979 -1.5810 -0.0284 -1.0899
    5CHL1   C22  352   2.070   6.143   8.840 -0.4731  0.1139  0.3182
    5CHL1  H22A  353   2.174   6.103   8.843 -0.3632  0.3026 -0.7457
    5CHL1  H22B  354   2.012   6.054   8.872  1.1264 -0.8857  0.5264
    5CHL1   C23  355   2.029   6.168   8.700  0.1094 -0.0882  0.2494
    5CHL1  H23A  356   1.920   6.188   8.696  0.0993 -0.3226 -1.2790
    5CHL1  H23B  357   2.080   6.261   8.664  1.6922 -0.7210  0.7850
    5CHL1   C24  358   2.044   6.049   8.605 -0.3354  0.8467 -0.0172
    5CHL1  H24A  359   2.151   6.023   8.613 -0.4261  0.2925 -0.5273
    5CHL1  H24B  360   1.985   5.961   8.639 -1.6001  1.2701 -1.0168
    5CHL1   C25  361   2.011   6.075   8.454 -0.0929  0.5635  0.1586
    5CHL1   H25  362   1.901   6.091   8.444 -0.1499  0.0792 -0.0260
    5CHL1   C26  363   2.093   6.195   8.408 -0.1367  0.6034  0.3995
    5CHL1  H26A  364   2.058   6.294   8.446 -0.6011  1.0004 -1.0109
    5CHL1  H26B  365   2.200   6.184   8.435 -0.4837 -0.5578  1.4040
    5CHL1  H26C  366   2.078   6.200   8.298 -0.0241 -1.0980  0.2828
    5CHL1   C27  367   2.043   5.950   8.372 -0.2896 -0.2560 -0.5141
    5CHL1  H27A  368   1.969   5.879   8.415  0.7155 -0.3521  1.1765
    5CHL1  H27B  369   2.038   5.960   8.262 -1.9061 -3.3989 -0.8401
    5CHL1  H27C  370   2.147   5.918   8.398 -1.1186 -2.2973  0.5142
    6CHL1    C3  371   1.057   3.633  10.269 -0.5295 -0.0802  0.8559
    6CHL1    H3  372   1.081   3.525  10.274 -2.7271 -0.5666  2.9945
    6CHL1    O3  373   1.032   3.690  10.396 -0.0416 -0.3400 -0.1742
    6CHL1   H3'  374   0.961   3.642  10.438  2.1566 -2.9672  0.8418
    6CHL1    C4  375   1.176   3.719  10.209  0.2901  0.2712 -0.3504
    6CHL1   H4A  376   1.132   3.821  10.204 -0.1677  0.0975  0.0384
    6CHL1   H4B  377   1.266   3.718  10.274 -1.0081 -0.5477  1.5189
    6CHL1    C5  378   1.216   3.673  10.066  0.1609 -0.3245  0.3484
    6CHL1    C6  379   1.342   3.637  10.042  0.6338 -0.4536  0.2287
    6CHL1    H6  380   1.419   3.648  10.119  0.5256 -1.6811  0.5207
    6CHL1    C7  381   1.393   3.594   9.905  0.0374  0.3781 -0.0529
    6CHL1   H7A  382   1.485   3.638   9.861  0.9799 -1.0491  0.4307
    6CHL1   H7B  383   1.408   3.484   9.916 -0.0638  0.1489 -1.8255
    6CHL1    C8  384   1.287   3.602   9.793  0.5467  0.1777 -0.0219
    6CHL1    H8  385   1.282   3.701   9.743  0.8559 -1.0455 -2.6405
    6CHL1   C14  386   1.307   3.502   9.681 -0.0672  0.1379 -0.1022
    6CHL1   H14  387   1.280   3.403   9.723 -2.5679  0.1791 -1.4307
    6CHL1   C15  388   1.452   3.479   9.616  0.0103 -0.0114 -0.6792
    6CHL1  H15A  389   1.494   3.578   9.587 -0.1375  0.6502  1.1973
    6CHL1  H15B  390   1.519   3.418   9.680  2.0661 -0.5138 -3.1413
    6CHL1   C16  391   1.422   3.390   9.491  0.0362  0.5856  0.5685
    6CHL1  H16A  392   1.470   3.441   9.405 -1.8839  0.6830 -0.5074
    6CHL1  H16B  393   1.474   3.294   9.512  1.6514  1.6725  1.8195
    6CHL1   C17  394   1.269   3.395   9.481  0.6251 -0.6321  0.0006
    6CHL1   H17  395   1.238   3.311   9.547  2.0363 -0.0271  1.5077
    6CHL1   C13  396   1.205   3.510   9.562  0.0472 -0.4012 -0.3101
    6CHL1   C18  397   1.210   3.649   9.487  0.0966 -0.1933 -0.0412
    6CHL1  H18A  398   1.136   3.646   9.404 -0.4097 -0.0526  0.4002
    6CHL1  H18B  399   1.192   3.740   9.547 -1.4213  1.0269 -2.1981
    6CHL1  H18C  400   1.304   3.658   9.428 -0.4077 -2.0841 -1.2270
    6CHL1   C12  401   1.068   3.472   9.619 -0.0611  0.3115  0.2209
    6CHL1  H12A  402   0.982   3.466   9.550 -1.1652 -1.0204  1.6497
    6CHL1  H12B  403   1.075   3.371   9.664 -1.2019 -0.0239 -0.3329
    6CHL1   C11  404   1.036   3.571   9.738 -0.1121  0.0685 -0.0608
    6CHL1  H11A  405   1.005   3.668   9.694 -0.6946  0.0211  0.2217
    6CHL1  H11B  406   0.943   3.525   9.777 -1.7255  0.7460 -2.8134
    6CHL1    C9  407   1.144   3.577   9.846 -0.4366  0.0563  0.3621
    6CHL1    H9  408   1.157   3.471   9.877 -0.5332 -1.1470 -3.2850
    6CHL1   C10  409   1.095   3.664   9.963  0.2013 -0.0134 -0.2496
    6CHL1   C19  410   1.060   3.801   9.912 -0.2908 -0.0775  0.0766
    6CHL1  H19A  411   1.022   3.871   9.989  2.3068  2.7716 -1.0458
    6CHL1  H19B  412   1.148   3.845   9.861 -0.7662  2.2466  1.1277
    6CHL1  H19C  413   0.986   3.802   9.830 -1.4355 -0.1064  1.0814
    6CHL1    C1  414   0.968   3.605  10.037 -0.1261 -0.5860 -0.9248
    6CHL1   H1A  415   0.887   3.637   9.967 -0.7288 -2.1110 -0.9661
    6CHL1   H1B  416   0.968   3.494  10.045 -0.7884 -0.5681 -0.6275
    6CHL1    C2  417   0.927   3.652  10.181  0.0697 -0.1372 -0.0843
    6CHL1   H2A  418   0.835   3.605  10.222 -0.6215  2.1592  1.1683
    6CHL1   H2B  419   0.918   3.762  10.178 -1.5324 -0.2753 -1.3859
    6CHL1   C20  420   1.212   3.353   9.347 -0.0925 -0.5502 -0.4930
    6CHL1   H20  421   1.104   3.376   9.348  0.2919  1.4519  0.5599
    6CHL1   C21  422   1.221   3.198   9.327  0.0538  0.4214  0.6768
    6CHL1  H21A  423   1.180   3.173   9.226  1.0718  1.0555  0.0897
    6CHL1  H21B  424   1.189   3.130   9.409  2.3561 -1.3170  0.2170
    6CHL1  H21C  425   1.326   3.162   9.329 -0.6114 -1.6750  0.5322
    6CHL1   C22  426   1.268   3.422   9.221  0.4805 -0.5196  0.6617
    6CHL1  H22A  427   1.289   3.529   9.245 -1.0869 -0.1486  0.4706
    6CHL1  H22B  428   1.367   3.379   9.192  0.0895 -0.0192 -1.5972
    6CHL1   C23  429   1.170   3.415   9.102  0.2850  0.5917 -0.2845
    6CHL1  H23A  430   1.145   3.308   9.083 -1.1661  0.6630  1.0493
    6CHL1  H23B  431   1.074   3.465   9.126  1.0949  2.0915 -0.0655
    6CHL1   C24  432   1.232   3.481   8.977 -0.8904  0.3841 -0.5331
    6CHL1  H24A  433   1.238   3.589   9.002 -0.8197  0.0198  1.1478
    6CHL1  H24B  434   1.336   3.444   8.966 -0.0686  1.6963  1.9665
    6CHL1   C25  435   1.148   3.466   8.855  0.7661  0.3855  0.6182
    6CHL1   H25  436   1.045   3.482   8.895  1.4656 -0.4459  2.9499
    6CHL1   C26  437   1.192   3.558   8.745  0.5331 -0.4692  1.3101
    6CHL1  H26A  438   1.122   3.555   8.659  0.8559  0.3961  1.0024
    6CHL1  H26B  439   1.211   3.663   8.777  0.8506  0.4627 -1.6660
    6CHL1  H26C  440   1.285   3.530   8.691 -1.1784 -1.8389 -1.1275
    6CHL1   C27  441   1.146   3.308   8.793  0.2094 -0.7175  0.3556
    6CHL1  H27A  442   1.068   3.316   8.714 -0.5845 -2.2335  0.9393
    6CHL1  H27B  443   1.245   3.288   8.746  0.2416  0.9610 -0.3702
    6CHL1  H27C  444   1.119   3.234   8.871  2.7123 -2.5580 -0.3920
    7CHL1    C3  445   3.087   1.203  10.390  0.2891 -0.0549  0.0743
    7CHL1    H3  446   3.050   1.308  10.388 -0.9346 -0.4844 -1.6448
    7CHL1    O3  447   3.129   1.177  10.521  0.5453  0.3426  0.3811
    7CHL1   H3'  448   3.068   1.117  10.563  1.1372  0.3099  1.2196
    7CHL1    C4  449   2.972   1.114  10.359  0.0481 -0.4550  0.3348
    7CHL1   H4A  450   2.992   1.012  10.398  0.7737  0.0708  1.3738
    7CHL1   H4B  451   2.895   1.155  10.427  0.1953 -2.9694  2.1593
    7CHL1    C5  452   2.927   1.117  10.218  0.3372  0.3696 -0.1627
    7CHL1    C6  453   2.798   1.152  10.180  0.1764 -0.1838 -0.0970
    7CHL1    H6  454   2.717   1.174  10.251  0.3494 -0.2448  0.1183
    7CHL1    C7  455   2.753   1.153  10.037 -0.2478  0.2698  0.1578
    7CHL1   H7A  456   2.649   1.116  10.022  0.7420 -2.3364 -0.8326
    7CHL1   H7B  457   2.733   1.257  10.005 -2.6828 -0.7353 -1.9235
    7CHL1    C8  458   2.849   1.089   9.941  0.3217  0.3147  0.3010
    7CHL1    H8  459   2.837   0.978   9.941  0.4648  0.2761 -1.0403
    7CHL1   C14  460   2.810   1.130   9.796 -0.6147  0.4596  0.2015
    7CHL1   H14  461   2.816   1.240   9.793 -4.5787  0.8461  1.0247
    7CHL1   C15  462   2.668   1.085   9.735 -0.3664  0.2759 -1.0298
    7CHL1  H15A  463   2.650   0.978   9.760 -0.9462  0.4587 -0.6270
    7CHL1  H15B  464   2.590   1.149   9.782  0.0508 -1.0505  1.6851
    7CHL1   C16  465   2.687   1.106   9.584 -0.2987  0.1549 -0.2883
    7CHL1  H16A  466   2.681   1.011   9.527  2.7527 -1.7853  2.2637
    7CHL1  H16B  467   2.624   1.186   9.539  0.6685  0.8564 -0.4348
    7CHL1   C17  468   2.832   1.146   9.559  0.5545 -0.4607 -0.0947
    7CHL1   H17  469   2.835   1.256   9.579 -1.1405 -0.6375  1.2845
    7CHL1   C13  470   2.907   1.088   9.678  0.5608  0.1682  0.0883
    7CHL1   C18  471   2.923   0.941   9.655 -0.3653  0.0422  0.2427
    7CHL1  H18A  472   2.967   0.884   9.739  2.8712  2.6253  0.4865
    7CHL1  H18B  473   2.843   0.884   9.603  0.0940 -0.1079 -0.3017
    7CHL1  H18C  474   2.999   0.948   9.575 -0.6265  0.5115  0.0287
    7CHL1   C12  475   3.043   1.145   9.719  0.0627 -0.2493  0.2453
    7CHL1  H12A  476   3.118   1.108   9.645 -1.9853 -0.5095 -1.8196
    7CHL1  H12B  477   3.049   1.256   9.715  0.1793 -0.2888 -1.7503
    7CHL1   C11  478   3.090   1.088   9.854  0.3388  0.0744  0.5204
    7CHL1  H11A  479   3.107   0.978   9.855 -0.8098 -0.1897  3.6599
    7CHL1  H11B  480   3.189   1.133   9.876 -0.2378  1.1851  0.8861
    7CHL1    C9  481   2.992   1.129   9.972 -0.1310 -0.4003  0.6147
    7CHL1    H9  482   2.992   1.239   9.957 -0.7930 -0.3249  1.1335
    7CHL1   C10  483   3.033   1.097  10.111 -0.4057 -0.5582  0.3006
    7CHL1   C19  484   3.061   0.944  10.118 -0.1848  0.2151 -0.2505
    7CHL1  H19A  485   3.096   0.922  10.220  0.6916  2.4688  0.0038
    7CHL1  H19B  486   2.971   0.882  10.101  0.2159 -0.5866  0.4882
    7CHL1  H19C  487   3.136   0.905  10.046  0.7812  1.2337  0.1763
    7CHL1    C1  488   3.163   1.184  10.143  0.3567  0.5984  0.3309
    7CHL1   H1A  489   3.254   1.148  10.090 -0.6263 -0.4320 -0.6966
    7CHL1   H1B  490   3.145   1.293  10.131  0.3090  0.7145  1.3532
    7CHL1    C2  491   3.207   1.175  10.301 -0.1033 -0.2290 -0.3816
    7CHL1   H2A  492   3.288   1.248  10.322 -0.3622  0.2693 -1.0903
    7CHL1   H2B  493   3.237   1.072  10.327 -0.7779 -0.1770  0.6678
    7CHL1   C20  494   2.871   1.125   9.406  0.4571 -0.3773  0.2614
    7CHL1   H20  495   2.884   1.016   9.385 -0.6118 -0.2315 -1.2876
    7CHL1   C21  496   3.008   1.191   9.381  0.6351 -0.3849 -0.2902
    7CHL1  H21A  497   3.042   1.176   9.277  1.8391  1.9874 -0.2882
    7CHL1  H21B  498   3.085   1.149   9.450  1.7527 -0.3210 -1.4663
    7CHL1  H21C  499   3.001   1.301   9.390  0.1176 -0.5639  2.6831
    7CHL1   C22  500   2.774   1.164   9.299 -0.2353  0.0958 -0.0913
    7CHL1  H22A  501   2.812   1.146   9.197  0.2069  0.9433 -0.0876
    7CHL1  H22B  502   2.690   1.092   9.312 -0.9355  1.0690  1.0600
    7CHL1   C23  503   2.729   1.309   9.300  0.1593 -0.0804  0.1306
    7CHL1  H23A  504   2.688   1.345   9.397  1.1382  0.4148  0.3747
    7CHL1  H23B  505   2.824   1.363   9.280  0.9493 -0.7097  1.9072
    7CHL1   C24  506   2.620   1.360   9.201 -0.4361  0.3517  0.3200
    7CHL1  H24A  507   2.637   1.468   9.181  0.7522  0.0183 -0.5542
    7CHL1  H24B  508   2.631   1.299   9.109 -2.3589  2.0207 -1.1105
    7CHL1   C25  509   2.478   1.342   9.249 -0.3024 -0.4241  0.2285
    7CHL1   H25  510   2.454   1.247   9.301 -2.4116  0.3952  0.8610
    7CHL1   C26  511   2.447   1.448   9.348 -0.5717  0.7328 -0.1428
    7CHL1  H26A  512   2.505   1.444   9.443 -2.9261 -3.2909  1.3965
    7CHL1  H26B  513   2.461   1.547   9.299 -1.6073 -0.6957 -3.6509
    7CHL1  H26C  514   2.343   1.432   9.384 -0.8017  2.7416  0.1644
    7CHL1   C27  515   2.380   1.353   9.133  0.2433 -0.5156  0.3214
    7CHL1  H27A  516   2.399   1.269   9.063  0.3988  0.6271 -1.0716
    7CHL1  H27B  517   2.275   1.342   9.167  0.9426 -0.2216  2.7719
    7CHL1  H27C  518   2.391   1.449   9.078  0.1769 -0.2853  0.7072
    8CHL1    C3  519   3.707   2.157  10.283  0.7060 -0.6547  0.8550
    8CHL1    H3  520   3.596   2.156  10.285  0.6093  1.4060 -0.3638
    8CHL1    O3  521   3.752   2.156  10.411  0.2440  0.0903 -0.3129
    8CHL1   H3'  522   3.702   2.091  10.459  1.2311 -1.3909 -1.2145
    8CHL1    C4  523   3.770   2.042  10.203 -0.8056 -0.6084 -0.6690
    8CHL1   H4A  524   3.877   2.069  10.215 -1.5372  2.9722 -1.2767
    8CHL1   H4B  525   3.747   1.943  10.249  0.9160 -0.3755  0.7896
    8CHL1    C5  526   3.746   2.041  10.056 -0.4664 -0.3360 -0.0456
    8CHL1    C6  527   3.694   1.942   9.988  0.9480  0.5056 -0.5471
    8CHL1    H6  528   3.680   1.844  10.035  0.6218  0.9692  0.3703
    8CHL1    C7  529   3.666   1.943   9.842 -0.8365  0.0451 -0.4382
    8CHL1   H7A  530   3.680   1.843   9.795  2.2698 -0.5022  1.4012
    8CHL1   H7B  531   3.558   1.959   9.817 -0.1495  1.5769 -2.8029
    8CHL1    C8  532   3.744   2.051   9.763 -0.2070  0.5733  0.6941
    8CHL1    H8  533   3.852   2.024   9.765  0.0961  1.5432 -1.0500
    8CHL1   C14  534   3.713   2.062   9.617 -0.1339 -0.2036  0.5128
    8CHL1   H14  535   3.604   2.084   9.611 -0.3964 -0.8448  2.3596
    8CHL1   C15  536   3.724   1.932   9.530  0.0623 -0.3730 -0.0096
    8CHL1  H15A  537   3.812   1.871   9.560  1.1517  1.3172  0.4135
    8CHL1  H15B  538   3.628   1.877   9.535  0.5484 -1.1920  0.5824
    8CHL1   C16  539   3.756   1.987   9.385  0.0607  0.2194 -0.1196
    8CHL1  H16A  540   3.854   1.964   9.337 -1.2719  0.8477 -3.4114
    8CHL1  H16B  541   3.682   1.948   9.312  2.1199 -0.1538 -2.1337
    8CHL1   C17  542   3.749   2.140   9.392 -0.7072  0.0079  0.0551
    8CHL1   H17  543   3.643   2.169   9.372  0.5009  3.3548 -2.3617
    8CHL1   C13  544   3.792   2.171   9.542 -0.5930 -0.6300  0.8761
    8CHL1   C18  545   3.943   2.145   9.551 -0.5580 -0.1218 -0.3532
    8CHL1  H18A  546   4.004   2.223   9.502  0.7302  0.5155  2.1173
    8CHL1  H18B  547   3.983   2.154   9.654 -0.5138 -2.8589 -0.0418
    8CHL1  H18C  548   3.971   2.042   9.519  3.9896 -0.0219  2.4171
    8CHL1   C12  549   3.750   2.305   9.602  0.4957 -0.8619  0.2860
    8CHL1  H12A  550   3.800   2.392   9.553 -1.2818  0.4513  0.6824
    8CHL1  H12B  551   3.642   2.330   9.588  0.6610 -0.2260  0.0813
    8CHL1   C11  552   3.777   2.305   9.747  0.4124 -0.0431 -0.9008
    8CHL1  H11A  553   3.885   2.330   9.749  1.0994 -2.4816 -2.9208
    8CHL1  H11B  554   3.715   2.389   9.786  1.3286  0.2901 -0.1084
    8CHL1    C9  555   3.735   2.184   9.834  0.0034  0.6173 -0.0591
    8CHL1    H9  556   3.624   2.187   9.834 -0.0571  0.1432 -2.0273
    8CHL1   C10  557   3.782   2.180   9.984 -0.2918  0.0707 -0.3714
    8CHL1   C19  558   3.931   2.204   9.983  0.5410  0.2662 -0.2390
    8CHL1  H19A  559   3.962   2.307   9.955  0.6177 -0.0752 -1.4630
    8CHL1  H19B  560   3.993   2.184  10.073  1.2557 -2.6159 -1.2687
    8CHL1  H19C  561   3.971   2.137   9.905 -1.7546 -0.3373 -0.9991
    8CHL1    C1  562   3.716   2.290  10.066  0.2133 -0.1875  0.4296
    8CHL1   H1A  563   3.754   2.388  10.031  3.3912 -1.8155 -1.0614
    8CHL1   H1B  564   3.607   2.273  10.049  0.7526 -0.0657 -4.0907
    8CHL1    C2  565   3.751   2.287  10.213  0.5038  0.0508  0.4916
    8CHL1   H2A  566   3.708   2.374  10.268  0.7191  0.3859  0.1322
    8CHL1   H2B  567   3.861   2.296  10.228  0.5049 -1.7495  1.9442
    8CHL1   C20  568   3.840   2.209   9.282  0.5246  0.7443 -0.3422
    8CHL1   H20  569   3.945   2.174   9.284 -0.0503 -1.6988 -3.5220
    8CHL1   C21  570   3.839   2.361   9.299 -0.2671  0.0331  0.0516
    8CHL1  H21A  571   3.883   2.402   9.206  1.1310 -0.4340  0.4883
    8CHL1  H21B  572   3.909   2.389   9.381  1.1265 -1.1400 -0.7095
    8CHL1  H21C  573   3.735   2.400   9.311 -0.6449 -1.2258  1.0196
    8CHL1   C22  574   3.779   2.167   9.146 -0.8694 -0.2133  1.1527
    8CHL1  H22A  575   3.802   2.060   9.126 -0.9581  0.0805 -0.6274
    8CHL1  H22B  576   3.670   2.178   9.163 -1.1907 -0.0456 -0.7992
    8CHL1   C23  577   3.829   2.243   9.013  0.3317  0.3210 -0.4564
    8CHL1  H23A  578   3.820   2.353   9.021  3.0498  0.4704  2.1891
    8CHL1  H23B  579   3.935   2.214   8.994 -0.3886 -1.0767 -2.6936
    8CHL1   C24  580   3.745   2.197   8.892  0.0998  0.0193  0.8448
    8CHL1  H24A  581   3.725   2.088   8.882 -1.4723  0.4055 -0.5606
    8CHL1  H24B  582   3.643   2.239   8.905 -1.1994 -2.4519 -0.6515
    8CHL1   C25  583   3.808   2.246   8.757  0.3400 -0.2142  0.1211
    8CHL1   H25  584   3.848   2.348   8.777 -2.1769  0.5881  1.4406
    8CHL1   C26  585   3.934   2.162   8.716  0.4373  0.4971 -0.0979
    8CHL1  H26A  586   3.968   2.204   8.619  0.3232 -2.2689 -1.4162
    8CHL1  H26B  587   4.015   2.151   8.792 -0.4256  0.8498  0.9035
    8CHL1  H26C  588   3.897   2.060   8.690  1.0180  0.2269  0.1201
    8CHL1   C27  589   3.703   2.260   8.651 -0.3885  0.3762 -0.1590
    8CHL1  H27A  590   3.623   2.334   8.674 -0.4520  0.6641 -1.2398
    8CHL1  H27B  591   3.747   2.305   8.559  1.1661  0.8341  0.7847
    8CHL1  H27C  592   3.649   2.166   8.629 -0.0290  0.3709 -1.0579
    9CHL1    C3  593   6.286   0.724  10.270 -0.3083  0.5250  0.1953
    9CHL1    H3  594   6.264   0.818  10.215  0.3143  0.3322 -0.4065
    9CHL1    O3  595   6.324   0.751  10.402  0.4243  0.2215 -0.5568
    9CHL1   H3'  596   6.322   0.669  10.453 -0.2506  1.3311  1.2751
    9CHL1    C4  597   6.162   0.634  10.268 -0.1647  0.1811  0.3301
    9CHL1   H4A  598   6.178   0.539  10.324 -0.1357  0.1303  0.2358
    9CHL1   H4B  599   6.086   0.694  10.321 -1.0494  0.0426 -0.7494
    9CHL1    C5  600   6.116   0.601  10.130 -0.0656 -0.2380 -0.0749
    9CHL1    C6  601   5.996   0.641  10.092 -0.2410  0.7678  0.6060
    9CHL1    H6  602   5.925   0.683  10.165 -2.3817 -0.7970 -0.4575
    9CHL1    C7  603   5.944   0.606   9.950  0.0713 -0.2788  0.2716
    9CHL1   H7A  604   5.852   0.545   9.959  0.5191 -1.4216 -2.2132
    9CHL1   H7B  605   5.915   0.700   9.898  2.9293  0.4821 -0.1326
    9CHL1    C8  606   6.045   0.522   9.871 -0.3986 -0.1419 -0.3996
    9CHL1    H8  607   6.029   0.415   9.896  0.2693 -0.7514 -2.4162
    9CHL1   C14  608   6.013   0.536   9.725 -0.3710 -0.0028 -0.5486
    9CHL1   H14  609   6.049   0.641   9.714  0.3276 -0.2120 -0.3190
    9CHL1   C15  610   5.866   0.514   9.684 -0.3564  0.3105  0.4052
    9CHL1  H15A  611   5.824   0.421   9.728  0.6255 -0.9071 -1.1203
    9CHL1  H15B  612   5.799   0.597   9.718  0.8407  1.5063 -0.0530
    9CHL1   C16  613   5.875   0.502   9.532 -0.2140 -0.1733 -0.3049
    9CHL1  H16A  614   5.848   0.402   9.492  1.6345 -0.0981 -1.9013
    9CHL1  H16B  615   5.817   0.580   9.478  1.1606 -0.0091 -1.6052
    9CHL1   C17  616   6.023   0.520   9.495  0.3706  1.1614 -0.5361
    9CHL1   H17  617   6.039   0.629   9.482  1.7073  1.2709  1.4757
    9CHL1   C13  618   6.093   0.467   9.624 -0.4962 -0.1722  0.0989
    9CHL1   C18  619   6.086   0.310   9.634  0.0443  1.1825 -0.0365
    9CHL1  H18A  620   6.071   0.280   9.740 -0.8530  0.1241 -0.4422
    9CHL1  H18B  621   5.992   0.273   9.589  0.5416 -0.4792  0.2365
    9CHL1  H18C  622   6.172   0.257   9.588 -0.1576 -0.5073  1.4470
    9CHL1   C12  623   6.240   0.502   9.651  0.1306 -0.5214  0.7976
    9CHL1  H12A  624   6.300   0.433   9.587 -1.5350 -2.0756  0.8286
    9CHL1  H12B  625   6.258   0.610   9.632  1.1994 -0.8010  0.1242
    9CHL1   C11  626   6.290   0.477   9.793 -0.2674  0.0925 -0.3352
    9CHL1  H11A  627   6.291   0.366   9.807  3.0182  0.0510 -0.1088
    9CHL1  H11B  628   6.397   0.504   9.805 -0.3676 -0.7766  4.3732
    9CHL1    C9  629   6.191   0.552   9.897 -0.5036  0.0070  0.4131
    9CHL1    H9  630   6.201   0.660   9.872  1.1675  0.0697  1.2530
    9CHL1   C10  631   6.228   0.542  10.050  1.1708 -0.2901 -0.1394
    9CHL1   C19  632   6.236   0.394  10.094 -0.2360 -0.1132 -0.1687
    9CHL1  H19A  633   6.315   0.348  10.030 -0.7054 -0.8962 -0.1927
    9CHL1  H19B  634   6.269   0.382  10.199  0.7390 -1.1026 -0.5667
    9CHL1  H19C  635   6.143   0.338  10.072 -0.5688  0.1537  0.5311
    9CHL1    C1  636   6.357   0.622  10.065  0.4721 -0.7347 -0.6072
    9CHL1   H1A  637   6.441   0.574  10.009 -0.4588 -3.3878  0.1123
    9CHL1   H1B  638   6.332   0.720  10.019  0.3113 -0.8469 -0.7605
    9CHL1    C2  639   6.407   0.644  10.211 -0.1732  0.3172  0.8097
    9CHL1   H2A  640   6.500   0.705  10.201 -0.0452 -0.0765 -0.5996
    9CHL1   H2B  641   6.436   0.545  10.252 -1.1994 -0.6155 -0.6243
    9CHL1   C20  642   6.057   0.450   9.355 -0.3486  0.0867 -0.7246
    9CHL1   H20  643   6.071   0.341   9.367 -0.0610  0.0999 -0.9127
    9CHL1   C21  644   6.194   0.501   9.303 -0.0698  0.7941 -0.0852
    9CHL1  H21A  645   6.219   0.430   9.221 -1.3701 -0.1707  0.3045
    9CHL1  H21B  646   6.274   0.497   9.380  0.0183 -1.6655 -0.2020
    9CHL1  H21C  647   6.194   0.604   9.263  4.7154  1.1234  0.2417
    9CHL1   C22  648   5.954   0.464   9.241  0.4075 -0.3864  0.6499
    9CHL1  H22A  649   5.851   0.436   9.269 -0.8272  2.7232 -0.3471
    9CHL1  H22B  650   5.950   0.574   9.225  0.4835 -0.6841 -1.7676
    9CHL1   C23  651   5.986   0.402   9.107  0.2545 -0.1284 -0.5065
    9CHL1  H23A  652   6.076   0.457   9.071  0.1798  0.3378 -0.0015
    9CHL1  H23B  653   6.022   0.298   9.124  0.0671 -0.0219  0.6479
    9CHL1   C24  654   5.864   0.396   9.010 -0.5878  0.3798 -0.4527
    9CHL1  H24A  655   5.843   0.505   9.007  0.7558  0.8162  2.6429
    9CHL1  H24B  656   5.889   0.366   8.906 -0.8369  1.4956 -0.8460
    9CHL1   C25  657   5.749   0.310   9.060  0.0955 -0.2270  0.3499
    9CHL1   H25  658   5.720   0.348   9.160  1.8196  0.5877  0.5805
    9CHL1   C26  659   5.638   0.321   8.952  0.0957  0.0134 -0.3912
    9CHL1  H26A  660   5.557   0.261   8.998  0.6595 -1.0644 -0.7825
    9CHL1  H26B  661   5.608   0.426   8.929  2.9856  1.2602  1.0159
    9CHL1  H26C  662   5.685   0.271   8.865  0.8449 -1.6546  0.9170
    9CHL1   C27  663   5.786   0.166   9.086  0.1214 -0.6083 -0.1010
    9CHL1  H27A  664   5.858   0.152   9.169 -0.3903  0.9568  0.6415
    9CHL1  H27B  665   5.706   0.093   9.108 -0.4133  0.1222  0.4329
    9CHL1  H27C  666   5.837   0.137   8.991 -2.9736 -1.2206 -1.7056
   10CHL1    C3  667   6.361   3.320  10.041 -0.7916  0.4316  0.0502
   10CHL1    H3  668   6.373   3.217  10.001 -1.4232 -0.3279  1.7351
   10CHL1    O3  669   6.417   3.337  10.176  0.4319 -0.2382 -0.1106
   10CHL1   H3'  670   6.431   3.432  10.187  1.7123 -0.6287  2.1455
   10CHL1    C4  671   6.429   3.414   9.943  0.5976  0.3288 -0.4244
   10CHL1   H4A  672   6.395   3.516   9.972 -3.3110 -0.8290 -0.3607
   10CHL1   H4B  673   6.539   3.400   9.943  0.5060 -0.4320 -0.7776
   10CHL1    C5  674   6.370   3.386   9.802 -0.2689 -0.6060 -0.5174
   10CHL1    C6  675   6.450   3.349   9.705  0.0055  0.2744 -0.2298
   10CHL1    H6  676   6.558   3.343   9.724 -0.0295  0.6003  0.0897
   10CHL1    C7  677   6.404   3.342   9.560  0.4130  0.2998  0.0205
   10CHL1   H7A  678   6.473   3.405   9.499  0.3528 -0.2546 -0.6313
   10CHL1   H7B  679   6.416   3.235   9.531  2.0220  1.0754 -2.4473
   10CHL1    C8  680   6.257   3.389   9.543  0.3489 -0.2030 -0.4577
   10CHL1    H8  681   6.264   3.500   9.540  1.7464 -0.2932 -2.0181
   10CHL1   C14  682   6.204   3.329   9.416  0.2319  0.3166  0.0181
   10CHL1   H14  683   6.221   3.221   9.435  0.6541  0.6153  1.4796
   10CHL1   C15  684   6.281   3.363   9.289  0.0835 -0.3591  0.0076
   10CHL1  H15A  685   6.302   3.472   9.284 -1.2634 -0.0748  0.3480
   10CHL1  H15B  686   6.380   3.312   9.287 -0.2830 -1.0609 -0.8621
   10CHL1   C16  687   6.187   3.319   9.180 -0.0713  0.5100 -0.7013
   10CHL1  H16A  688   6.155   3.407   9.120 -1.5478  1.5757  1.5168
   10CHL1  H16B  689   6.218   3.238   9.110 -2.5436  0.5559 -1.9432
   10CHL1   C17  690   6.058   3.268   9.253  0.1326 -0.4742  0.3714
   10CHL1   H17  691   6.068   3.159   9.268  1.3965 -0.1169  2.4707
   10CHL1   C13  692   6.057   3.337   9.394  0.6545  0.1623  0.4951
   10CHL1   C18  693   6.013   3.488   9.381  0.0861 -0.2453  0.4280
   10CHL1  H18A  694   6.047   3.527   9.283 -1.2164  1.4535  0.6044
   10CHL1  H18B  695   5.903   3.495   9.396  0.4204  0.7890  2.7884
   10CHL1  H18C  696   6.071   3.551   9.452 -1.4893  3.1365 -1.0368
   10CHL1   C12  697   5.974   3.272   9.509  0.3541  0.4151  0.1943
   10CHL1  H12A  698   5.863   3.274   9.499  0.3876  2.0891 -0.1087
   10CHL1  H12B  699   6.008   3.166   9.516 -0.2997  0.0550 -1.3927
   10CHL1   C11  700   6.015   3.346   9.637 -0.1087 -0.0893  0.2771
   10CHL1  H11A  701   5.984   3.453   9.627 -0.5628 -0.2444  0.0233
   10CHL1  H11B  702   5.951   3.305   9.718 -0.4043  0.0884  0.1371
   10CHL1    C9  703   6.172   3.339   9.659 -0.9737  0.3755 -0.6570
   10CHL1    H9  704   6.188   3.231   9.677 -3.0548  0.4670  2.7083
   10CHL1   C10  705   6.223   3.401   9.791 -0.4561  0.7013 -0.2859
   10CHL1   C19  706   6.199   3.551   9.796 -0.4196 -0.3511  0.1006
   10CHL1  H19A  707   6.206   3.588   9.901 -1.4053  0.3437 -0.0602
   10CHL1  H19B  708   6.268   3.610   9.732 -1.8898  0.4830 -0.7748
   10CHL1  H19C  709   6.094   3.579   9.769 -0.8433 -1.8943  0.0813
   10CHL1    C1  710   6.140   3.333   9.909  0.2788  0.6482  0.4341
   10CHL1   H1A  711   6.037   3.372   9.912 -0.3340 -0.7517 -0.9037
   10CHL1   H1B  712   6.140   3.226   9.878  1.5677  1.4765 -2.8728
   10CHL1    C2  713   6.207   3.346  10.047  0.3738 -0.4043 -0.8664
   10CHL1   H2A  714   6.156   3.286  10.125  0.3384  2.4412  1.4342
   10CHL1   H2B  715   6.193   3.451  10.079 -1.0953 -0.5083 -1.0685
   10CHL1   C20  716   5.932   3.283   9.165 -0.3373  0.4772 -0.1577
   10CHL1   H20  717   5.908   3.392   9.162  1.7158  1.0002  0.5247
   10CHL1   C21  718   5.810   3.214   9.232 -0.2462  0.3255 -0.0490
   10CHL1  H21A  719   5.778   3.267   9.324 -0.8182  0.0634 -0.0909
   10CHL1  H21B  720   5.829   3.107   9.254  0.7771  0.2377 -1.2063
   10CHL1  H21C  721   5.718   3.214   9.168 -0.9546  2.1377  0.9146
   10CHL1   C22  722   5.949   3.223   9.022  0.2418  0.1553  1.1103
   10CHL1  H22A  723   5.855   3.256   8.975 -0.0004 -0.4151  1.1859
   10CHL1  H22B  724   6.032   3.276   8.969 -0.8218 -0.5394 -1.3838
   10CHL1   C23  725   5.974   3.074   9.004  0.2429 -0.2539 -0.4369
   10CHL1  H23A  726   6.080   3.047   9.022  0.9648  0.7086 -2.8891
   10CHL1  H23B  727   5.900   3.021   9.068  0.2606  0.2678  0.0255
   10CHL1   C24  728   5.944   3.039   8.858  0.1530 -0.1765  0.1752
   10CHL1  H24A  729   5.963   2.930   8.864 -2.3270 -0.6648  0.2804
   10CHL1  H24B  730   5.835   3.045   8.839  0.3906  1.7418 -0.8394
   10CHL1   C25  731   6.029   3.112   8.749 -0.3200 -0.1224  0.3299
   10CHL1   H25  732   6.001   3.219   8.751  1.8243  0.5110 -0.3947
   10CHL1   C26  733   6.178   3.103   8.774  0.0406  0.4343 -0.3281
   10CHL1  H26A  734   6.201   3.156   8.869 -1.0620 -0.9738  0.7539
   10CHL1  H26B  735   6.216   2.999   8.782  0.9734  0.6929 -1.0971
   10CHL1  H26C  736   6.236   3.142   8.687 -0.8019  0.6532 -0.8023
   10CHL1   C27  737   6.011   3.046   8.607 -1.1652 -0.2987  0.0217
   10CHL1  H27A  738   6.073   3.101   8.533  0.0349  1.1006  1.9711
   10CHL1  H27B  739   6.051   2.943   8.620  1.1774  0.5203 -0.3203
   10CHL1  H27C  740   5.902   3.048   8.583 -0.8444 -0.3414 -1.5049
   11CHL1    C3  741   1.069   0.127  10.014 -0.6809  0.0370  0.1616
   11CHL1    H3  742   0.966   0.087  10.010  0.1830 -2.2925  0.0589
   11CHL1    O3  743   1.107   0.132  10.151 -0.4995  0.4066 -0.1982
   11CHL1   H3'  744   1.048   0.194  10.195 -0.2395  0.1615  0.5063
   11CHL1    C4  745   1.167   0.027   9.942 -0.1908  0.1755 -0.6772
   11CHL1   H4A  746   1.273   0.035   9.977 -0.7006  0.9668  0.7970
   11CHL1   H4B  747   1.140  -0.075   9.975 -2.2857  0.7558 -0.4294
   11CHL1    C5  748   1.156   0.034   9.791 -0.3213 -0.0397  0.2085
   11CHL1    C6  749   1.158  -0.073   9.713 -0.2874  0.3088  0.3308
   11CHL1    H6  750   1.184  -0.174   9.750  0.1257  0.9170  1.7496
   11CHL1    C7  751   1.167  -0.059   9.565 -0.6170 -0.3435  0.0940
   11CHL1   H7A  752   1.248  -0.126   9.530  0.5302  1.4580 -0.8734
   11CHL1   H7B  753   1.072  -0.094   9.519  0.3948 -1.3096 -1.3605
   11CHL1    C8  754   1.204   0.069   9.509 -0.4717 -0.1188  0.2179
   11CHL1    H8  755   1.310   0.092   9.530 -0.7177  1.9809 -0.6281
   11CHL1   C14  756   1.166   0.070   9.353  0.2603  0.3240 -0.0746
   11CHL1   H14  757   1.058   0.047   9.354  0.0508  1.1782 -1.2277
   11CHL1   C15  758   1.249  -0.032   9.269  0.1768  0.3032 -0.2822
   11CHL1  H15A  759   1.354  -0.049   9.303 -0.0660  1.0166  0.8888
   11CHL1  H15B  760   1.200  -0.132   9.275  3.1679 -1.2376  0.4872
   11CHL1   C16  761   1.234   0.023   9.122 -0.3132  0.2162 -0.0611
   11CHL1  H16A  762   1.334   0.042   9.077  0.8975 -3.3224  0.7782
   11CHL1  H16B  763   1.192  -0.052   9.052  0.5455  0.2521 -0.6301
   11CHL1   C17  764   1.153   0.156   9.132 -0.1626  0.0292 -0.7094
   11CHL1   H17  765   1.045   0.134   9.144  0.1543 -0.1327  3.1249
   11CHL1   C13  766   1.178   0.202   9.283 -0.2677  0.2846  0.0174
   11CHL1   C18  767   1.316   0.263   9.287 -0.3481  0.0640  0.6467
   11CHL1  H18A  768   1.395   0.207   9.232 -1.7512 -2.8712  1.4640
   11CHL1  H18B  769   1.326   0.367   9.249 -0.2791  0.0039  0.4992
   11CHL1  H18C  770   1.355   0.264   9.391 -0.0692 -0.8067  0.5541
   11CHL1   C12  771   1.081   0.298   9.354  0.3090  0.0396 -0.5470
   11CHL1  H12A  772   1.084   0.403   9.318 -0.0747  0.1651 -0.2107
   11CHL1  H12B  773   0.980   0.257   9.336  1.5218 -3.2244 -0.6380
   11CHL1   C11  774   1.106   0.307   9.505  0.4018 -0.2018 -0.2755
   11CHL1  H11A  775   1.203   0.360   9.522  0.9096 -0.1718 -2.8524
   11CHL1  H11B  776   1.026   0.366   9.555  1.5855  0.9731  0.3089
   11CHL1    C9  777   1.124   0.175   9.581 -0.4001 -0.0031 -0.2457
   11CHL1    H9  778   1.017   0.147   9.595 -0.6143 -0.4149 -2.4521
   11CHL1   C10  779   1.167   0.177   9.734  0.5723  0.2004  0.3755
   11CHL1   C19  780   1.305   0.249   9.744 -0.3481  0.6061  0.2232
   11CHL1  H19A  781   1.289   0.354   9.712 -1.8687  0.7256  1.2751
   11CHL1  H19B  782   1.335   0.236   9.850  0.1224  1.6238  0.2232
   11CHL1  H19C  783   1.397   0.216   9.690 -1.6637  0.0224 -1.7675
   11CHL1    C1  784   1.061   0.252   9.805 -0.0451  0.3145 -0.5740
   11CHL1   H1A  785   1.062   0.355   9.763 -1.2121  0.3890 -0.4338
   11CHL1   H1B  786   0.954   0.230   9.786 -0.3307  0.9193  0.2888
   11CHL1    C2  787   1.092   0.270   9.957  0.6381  0.2119  0.4899
   11CHL1   H2A  788   1.017   0.347   9.985  1.1953  1.9953 -2.5128
   11CHL1   H2B  789   1.189   0.312   9.990  1.3973 -1.9135  1.1091
   11CHL1   C20  790   1.165   0.257   9.012 -0.0186  0.3157 -0.1851
   11CHL1   H20  791   1.269   0.297   9.010  0.4246 -0.3398  3.3565
   11CHL1   C21  792   1.075   0.387   9.027 -0.2312  0.3017 -0.6478
   11CHL1  H21A  793   0.971   0.348   9.034  0.5634 -1.9889 -0.4895
   11CHL1  H21B  794   1.084   0.454   8.939 -0.4768  0.1714 -0.7757
   11CHL1  H21C  795   1.099   0.438   9.122 -1.2139 -3.0057  1.5847
   11CHL1   C22  796   1.144   0.187   8.872 -0.0066  0.1758 -0.0080
   11CHL1  H22A  797   1.215   0.101   8.873  0.7511  0.6412  4.0103
   11CHL1  H22B  798   1.041   0.148   8.864 -0.6716  1.5353  1.4613
   11CHL1   C23  799   1.187   0.279   8.759  0.8643  0.5059  0.1748
   11CHL1  H23A  800   1.127   0.372   8.767 -0.0071 -0.0687  0.5065
   11CHL1  H23B  801   1.296   0.296   8.774  1.7087 -0.5330 -3.8008
   11CHL1   C24  802   1.161   0.230   8.611 -0.3627  0.6231  0.2008
   11CHL1  H24A  803   1.177   0.318   8.545 -0.3362 -0.4290 -1.2382
   11CHL1  H24B  804   1.227   0.141   8.603 -0.5128  0.4073  1.2339
   11CHL1   C25  805   1.014   0.191   8.590  0.2529 -0.5576 -0.0278
   11CHL1   H25  806   0.975   0.114   8.660  0.2563 -2.0318 -1.5892
   11CHL1   C26  807   0.926   0.310   8.597  0.3938 -0.0725 -0.4774
   11CHL1  H26A  808   0.963   0.400   8.543  0.3794  0.2723  0.0848
   11CHL1  H26B  809   0.824   0.290   8.555  0.2380  3.6566 -2.2839
   11CHL1  H26C  810   0.905   0.341   8.702 -0.0818  0.3385 -0.6864
   11CHL1   C27  811   0.994   0.125   8.447  1.0529 -0.1892 -0.1353
   11CHL1  H27A  812   1.015   0.197   8.365  2.0607  1.6506  1.6632
   11CHL1  H27B  813   1.055   0.032   8.438 -0.8827 -1.4832 -0.6098
   11CHL1  H27C  814   0.887   0.098   8.446  0.5448  1.2380  3.1219
   12CHL1    C3  815   5.198   3.263  10.468  0.3178  0.1171 -0.1324
   12CHL1    H3  816   5.301   3.226  10.492  0.6512  0.9687 -0.2355
   12CHL1    O3  817   5.133   3.277  10.596  0.0268  0.5298  0.1517
   12CHL1   H3'  818   5.108   3.191  10.630  0.2100  0.2792 -0.3416
   12CHL1    C4  819   5.208   3.400  10.408 -0.0078 -0.6819  0.2919
   12CHL1   H4A  820   5.112   3.455  10.417  0.1802 -0.5279  1.5348
   12CHL1   H4B  821   5.281   3.456  10.471 -1.5275 -0.7677  2.2062
   12CHL1    C5  822   5.255   3.397  10.264 -0.2170 -0.5856  0.0211
   12CHL1    C6  823   5.369   3.462  10.224  0.4459  0.2332  0.1567
   12CHL1    H6  824   5.423   3.528  10.293  0.4242 -1.7315  2.1600
   12CHL1    C7  825   5.411   3.465  10.081  0.9288 -0.0342  0.2916
   12CHL1   H7A  826   5.424   3.573  10.058  0.5299  0.2164  1.1974
   12CHL1   H7B  827   5.508   3.414  10.063  1.0122  0.6547 -1.4194
   12CHL1    C8  828   5.287   3.415   9.984 -0.4877  0.7190 -0.4649
   12CHL1    H8  829   5.221   3.504   9.978  0.8295  1.7854  0.1694
   12CHL1   C14  830   5.358   3.377   9.856 -0.0547  0.6457  0.1034
   12CHL1   H14  831   5.414   3.282   9.869 -0.9097  0.0178 -0.6773
   12CHL1   C15  832   5.456   3.466   9.779 -0.0914 -0.4582 -0.3565
   12CHL1  H15A  833   5.421   3.572   9.782 -1.7310 -0.8083 -3.1718
   12CHL1  H15B  834   5.559   3.448   9.816 -0.3289  0.2417  0.6770
   12CHL1   C16  835   5.450   3.412   9.634 -0.2933 -0.7616  0.4109
   12CHL1  H16A  836   5.432   3.507   9.578 -1.7820  0.0691  2.2091
   12CHL1  H16B  837   5.539   3.356   9.598  0.0372 -0.4776  0.7721
   12CHL1   C17  838   5.333   3.318   9.615 -1.0082  0.2349  0.2429
   12CHL1   H17  839   5.376   3.216   9.618 -2.4815 -0.4631 -0.8800
   12CHL1   C13  840   5.256   3.336   9.748 -0.7045  0.0353 -0.0380
   12CHL1   C18  841   5.167   3.466   9.712 -0.2879 -0.0521 -0.5027
   12CHL1  H18A  842   5.224   3.562   9.711  0.5763 -0.5484  0.2594
   12CHL1  H18B  843   5.107   3.458   9.619  0.1834  1.0927 -0.9297
   12CHL1  H18C  844   5.102   3.484   9.801  0.5783  1.5455 -0.1401
   12CHL1   C12  845   5.181   3.210   9.793  0.6422 -0.0519  0.7931
   12CHL1  H12A  846   5.098   3.187   9.723 -2.0372  0.6249  3.5055
   12CHL1  H12B  847   5.254   3.126   9.800  0.4583 -0.3580 -0.6952
   12CHL1   C11  848   5.121   3.230   9.929  0.2797  0.3793  0.6458
   12CHL1  H11A  849   5.041   3.304   9.906 -0.8005 -0.8721  0.2410
   12CHL1  H11B  850   5.071   3.136   9.959 -1.2248 -0.0270 -2.6888
   12CHL1    C9  851   5.219   3.292  10.031 -1.0677  0.1263 -0.9272
   12CHL1    H9  852   5.307   3.224  10.033 -0.8810  0.2927 -2.1786
   12CHL1   C10  853   5.162   3.302  10.178 -0.6430 -0.5837 -0.4319
   12CHL1   C19  854   5.017   3.349  10.171  0.1277  1.0005  0.5838
   12CHL1  H19A  855   4.978   3.379  10.270  0.9892  1.5817  0.7653
   12CHL1  H19B  856   5.008   3.434  10.100  2.1767  0.0568 -0.9125
   12CHL1  H19C  857   4.951   3.269  10.133  0.3120  0.8376  0.6042
   12CHL1    C1  858   5.167   3.168  10.242  0.3435 -0.7277 -0.7598
   12CHL1   H1A  859   5.120   3.086  10.183 -0.7891  0.0692 -0.9957
   12CHL1   H1B  860   5.277   3.150  10.245  0.1342 -2.1869  2.7927
   12CHL1    C2  861   5.117   3.163  10.390 -0.3688 -0.1101  0.5575
   12CHL1   H2A  862   5.138   3.060  10.426  0.3696 -0.1786 -0.0493
   12CHL1   H2B  863   5.009   3.185  10.397 -0.2489  1.3886 -1.4771
   12CHL1   C20  864   5.270   3.319   9.468 -0.8665 -0.1211  0.0755
   12CHL1   H20  865   5.245   3.425   9.444 -1.3809  0.2879  2.2624
   12CHL1   C21  866   5.146   3.229   9.469 -0.0758  0.5023 -0.3680
   12CHL1  H21A  867   5.172   3.122   9.486 -0.6349 -0.5977 -4.9738
   12CHL1  H21B  868   5.101   3.218   9.368  3.5914 -1.6998 -1.9933
   12CHL1  H21C  869   5.065   3.256   9.539  1.4066  1.3086  1.0884
   12CHL1   C22  870   5.375   3.264   9.373 -0.0869 -0.0062  0.2971
   12CHL1  H22A  871   5.469   3.323   9.375  0.9784 -1.5811 -0.4765
   12CHL1  H22B  872   5.386   3.160   9.410  1.2749 -0.5063 -1.3764
   12CHL1   C23  873   5.330   3.253   9.235 -0.3005  0.1165  0.4196
   12CHL1  H23A  874   5.257   3.171   9.215  0.8310 -0.9663  0.5958
   12CHL1  H23B  875   5.271   3.341   9.202  0.4745 -0.0566 -1.5441
   12CHL1   C24  876   5.449   3.233   9.138 -0.3332 -0.6575  0.3382
   12CHL1  H24A  877   5.520   3.316   9.156 -1.4536  0.2851  0.5858
   12CHL1  H24B  878   5.508   3.142   9.161 -0.7079 -0.2403  3.4765
   12CHL1   C25  879   5.413   3.235   8.979 -0.0232  0.4107 -0.1295
   12CHL1   H25  880   5.328   3.165   8.969 -0.2742  0.7747 -0.5702
   12CHL1   C26  881   5.381   3.375   8.923 -0.9594 -0.0076 -0.0725
   12CHL1  H26A  882   5.468   3.444   8.929 -1.2516  0.3309  0.3650
   12CHL1  H26B  883   5.356   3.357   8.816  4.7467  1.4504 -2.0144
   12CHL1  H26C  884   5.289   3.412   8.974 -0.3640  1.5373 -0.0330
   12CHL1   C27  885   5.526   3.175   8.891  0.2069 -0.4566 -0.0381
   12CHL1  H27A  886   5.544   3.072   8.931  1.4432 -0.3227 -0.1866
   12CHL1  H27B  887   5.498   3.167   8.784  0.8153 -3.5139 -0.0700
   12CHL1  H27C  888   5.623   3.230   8.890 -0.2671  0.3751 -0.3110
   13CHL1    C3  889   3.869   4.426   9.845  0.1414  0.4510  0.0163
   13CHL1    H3  890   3.853   4.322   9.880  1.3090  0.5204  0.8222
   13CHL1    O3  891   3.931   4.485   9.961 -0.1325  0.1850  0.3633
   13CHL1   H3'  892   3.958   4.572   9.934 -0.9521 -0.1502 -1.7338
   13CHL1    C4  893   3.969   4.418   9.728 -0.3675  0.1087 -0.1511
   13CHL1   H4A  894   4.005   4.523   9.716 -0.9890  0.3596  0.1199
   13CHL1   H4B  895   4.056   4.361   9.766  0.8502  2.2682  0.5325
   13CHL1    C5  896   3.905   4.357   9.605  0.5529  0.2563  0.1355
   13CHL1    C6  897   3.957   4.249   9.550 -0.2425  0.3201 -0.2243
   13CHL1    H6  898   4.043   4.200   9.598  1.2631  1.7578 -1.3217
   13CHL1    C7  899   3.900   4.186   9.425 -0.0128 -0.6317  0.2337
   13CHL1   H7A  900   3.978   4.150   9.354  0.1456 -3.3772  1.6670
   13CHL1   H7B  901   3.842   4.096   9.452 -2.0556  0.5043 -0.2035
   13CHL1    C8  902   3.812   4.289   9.355  0.2770  0.1595  0.9398
   13CHL1    H8  903   3.877   4.372   9.319 -0.9473  0.9270  0.4155
   13CHL1   C14  904   3.738   4.231   9.235  0.3094  1.0189 -0.1600
   13CHL1   H14  905   3.672   4.154   9.282  0.3721  1.8422  1.3607
   13CHL1   C15  906   3.826   4.153   9.132  0.8642  0.1539 -0.2646
   13CHL1  H15A  907   3.908   4.218   9.095  2.2594 -1.9320 -1.0475
   13CHL1  H15B  908   3.872   4.057   9.165  0.2651 -0.0524 -0.0083
   13CHL1   C16  909   3.732   4.145   9.008  0.3286 -0.2012 -0.0709
   13CHL1  H16A  910   3.786   4.175   8.915  0.1425  0.9168  0.1631
   13CHL1  H16B  911   3.688   4.043   9.004 -3.7252  1.3341  0.5412
   13CHL1   C17  912   3.610   4.244   9.033  0.4183 -0.6618 -0.0257
   13CHL1   H17  913   3.526   4.179   9.065  0.1970 -1.1701 -1.5793
   13CHL1   C13  914   3.648   4.329   9.157  0.4640  0.2825  1.3665
   13CHL1   C18  915   3.731   4.452   9.104  0.2655  0.0652  0.1161
   13CHL1  H18A  916   3.675   4.517   9.033  0.4162  0.3520  0.2573
   13CHL1  H18B  917   3.772   4.505   9.192  1.6420  0.9190 -1.0007
   13CHL1  H18C  918   3.818   4.425   9.040 -1.6122  0.7931 -2.9358
   13CHL1   C12  919   3.537   4.368   9.247 -1.1202  0.1401 -0.1434
   13CHL1  H12A  920   3.470   4.448   9.210 -1.1195  0.3481  0.2971
   13CHL1  H12B  921   3.489   4.280   9.296 -0.7670  1.5511  2.9322
   13CHL1   C11  922   3.594   4.434   9.372 -0.5977  0.2870  0.1403
   13CHL1  H11A  923   3.631   4.533   9.337  2.1124 -0.5547  0.3864
   13CHL1  H11B  924   3.512   4.458   9.443  0.6049 -0.0928  1.7113
   13CHL1    C9  925   3.707   4.357   9.446 -0.5359 -0.5064 -0.5059
   13CHL1    H9  926   3.666   4.272   9.505 -0.3564  0.1196  0.5257
   13CHL1   C10  927   3.784   4.438   9.554 -0.6814  0.8041  0.2978
   13CHL1   C19  928   3.842   4.573   9.497  0.9318 -0.0254  1.2889
   13CHL1  H19A  929   3.943   4.595   9.535  1.3460  1.0891 -0.3278
   13CHL1  H19B  930   3.859   4.561   9.388 -0.8607  2.8943  0.5560
   13CHL1  H19C  931   3.776   4.657   9.529  2.1533  1.0576  1.0690
   13CHL1    C1  932   3.686   4.465   9.677  0.1835 -0.2482  0.1508
   13CHL1   H1A  933   3.622   4.553   9.652 -0.0077 -0.0914  1.1613
   13CHL1   H1B  934   3.632   4.371   9.700  0.8178 -0.6850 -0.1096
   13CHL1    C2  935   3.753   4.519   9.807  0.2731  0.5590 -0.0077
   13CHL1   H2A  936   3.689   4.523   9.898  0.4865 -0.7360  0.2106
   13CHL1   H2B  937   3.793   4.620   9.780  2.1647 -0.1048  0.1443
   13CHL1   C20  938   3.561   4.311   8.905 -0.2130 -0.7171  0.0535
   13CHL1   H20  939   3.641   4.383   8.877  1.1236 -1.1409  2.4517
   13CHL1   C21  940   3.433   4.394   8.926  0.5532  0.1112 -0.5487
   13CHL1  H21A  941   3.452   4.494   8.972  0.1002  0.9075 -2.0181
   13CHL1  H21B  942   3.361   4.335   8.986  0.0616 -0.4010 -1.6281
   13CHL1  H21C  943   3.377   4.401   8.830 -2.0077 -1.5835  0.7394
   13CHL1   C22  944   3.546   4.214   8.786  0.1070  0.3544 -0.0711
   13CHL1  H22A  945   3.506   4.279   8.705  0.7405 -0.6368 -1.2139
   13CHL1  H22B  946   3.645   4.181   8.749 -1.0599 -2.1392 -1.2695
   13CHL1   C23  947   3.445   4.098   8.813  0.0757 -1.0865  0.5349
   13CHL1  H23A  948   3.500   4.022   8.873  1.8703 -1.4365 -1.4465
   13CHL1  H23B  949   3.359   4.143   8.867  0.8814  1.4967 -0.1671
   13CHL1   C24  950   3.401   4.031   8.686  0.4330  0.0637 -0.0190
   13CHL1  H24A  951   3.322   4.092   8.637 -0.5493 -1.1877 -0.0565
   13CHL1  H24B  952   3.488   4.039   8.617 -0.5512  1.4034 -1.1624
   13CHL1   C25  953   3.357   3.888   8.703 -0.4483  0.3066  0.1264
   13CHL1   H25  954   3.297   3.869   8.794  0.2555 -1.1679  0.3187
   13CHL1   C26  955   3.267   3.859   8.581 -0.0754  0.5740  0.0657
   13CHL1  H26A  956   3.224   3.759   8.603  2.4458 -0.5089  0.4737
   13CHL1  H26B  957   3.191   3.940   8.575 -0.0721  1.1543  4.7643
   13CHL1  H26C  958   3.324   3.853   8.485  1.4014 -1.7099  1.0213
   13CHL1   C27  959   3.472   3.789   8.719  0.1634 -0.4526 -0.1817
   13CHL1  H27A  960   3.529   3.800   8.624  3.2384 -0.3080  1.5494
   13CHL1  H27B  961   3.536   3.808   8.808  0.2427  1.5256 -0.6114
   13CHL1  H27C  962   3.423   3.690   8.732 -3.5539  1.4868  2.8195
   14CHL1    C3  963   2.925   1.716  10.442  0.4705 -0.1135  0.6253
   14CHL1    H3  964   2.977   1.809  10.409 -0.7677  0.2830 -0.2915
   14CHL1    O3  965   2.908   1.705  10.581 -0.6183  0.5813 -1.0515
   14CHL1   H3'  966   2.870   1.617  10.582  1.8230 -0.5672 -0.4247
   14CHL1    C4  967   2.782   1.728  10.383  0.6206 -0.1450  0.7522
   14CHL1   H4A  968   2.713   1.652  10.425  2.2505 -1.6428  0.8619
   14CHL1   H4B  969   2.751   1.827  10.423  0.0750  0.2001 -0.4589
   14CHL1    C5  970   2.790   1.734  10.227  0.3907 -0.7365 -0.1684
   14CHL1    C6  971   2.733   1.837  10.166 -0.2041  0.0544 -0.2699
   14CHL1    H6  972   2.687   1.912  10.232  1.5223  0.3107  0.6956
   14CHL1    C7  973   2.755   1.866  10.024 -0.6768  0.3797 -0.5064
   14CHL1   H7A  974   2.664   1.914   9.983 -1.4107 -0.5980 -0.0796
   14CHL1   H7B  975   2.845   1.931  10.026 -0.7765  0.6171  3.4808
   14CHL1    C8  976   2.785   1.748   9.931  0.4048  0.0750  0.1307
   14CHL1    H8  977   2.689   1.695   9.914  0.2503  0.3015  0.2801
   14CHL1   C14  978   2.843   1.784   9.786 -0.0665 -0.1890 -0.5228
   14CHL1   H14  979   2.932   1.849   9.800 -0.5984  0.9013 -1.9134
   14CHL1   C15  980   2.756   1.870   9.694 -0.2359  0.2012 -0.6115
   14CHL1  H15A  981   2.655   1.825   9.698 -0.0568 -0.1039  1.9388
   14CHL1  H15B  982   2.758   1.978   9.720  0.9211  0.0746 -0.0910
   14CHL1   C16  983   2.811   1.837   9.554 -0.5673  0.3218 -0.1031
   14CHL1  H16A  984   2.732   1.814   9.480 -1.0823  1.6217  0.0262
   14CHL1  H16B  985   2.859   1.933   9.524 -1.0410 -0.0191 -2.0796
   14CHL1   C17  986   2.926   1.728   9.567  0.3744 -0.0454  0.7912
   14CHL1   H17  987   3.021   1.784   9.582  0.2723  0.1941  0.5528
   14CHL1   C13  988   2.880   1.663   9.701  0.2835 -0.1538  0.1937
   14CHL1   C18  989   2.767   1.564   9.675 -0.1151  0.3784 -0.9963
   14CHL1  H18A  990   2.676   1.609   9.628 -1.3357 -1.2659 -0.3033
   14CHL1  H18B  991   2.798   1.474   9.619  0.6026 -0.2076  0.3001
   14CHL1  H18C  992   2.737   1.525   9.775 -0.9332  1.7273 -0.6747
   14CHL1   C12  993   2.992   1.592   9.780 -0.0001  0.3714  0.2121
   14CHL1  H12A  994   3.020   1.498   9.727  0.6887 -0.9596  2.7613
   14CHL1  H12B  995   3.078   1.661   9.782 -0.0903  0.4983 -0.3302
   14CHL1   C11  996   2.953   1.553   9.922  0.5062  0.2078  0.5544
   14CHL1  H11A  997   2.879   1.470   9.916 -2.1372  2.1936  2.9753
   14CHL1  H11B  998   3.040   1.513   9.979 -0.6997  0.6330  2.7967
   14CHL1    C9  999   2.892   1.667  10.005 -0.0351  0.2577 -0.6799
   14CHL1    H9 1000   2.976   1.739  10.017 -0.8020  1.0821 -0.1997
   14CHL1   C10 1001   2.863   1.627  10.157  0.1525 -0.4213 -0.2188
   14CHL1   C19 1002   2.776   1.496  10.146 -0.1194 -0.4076  0.7001
   14CHL1  H19A 1003   2.697   1.521  10.072  0.9440 -0.2119 -0.3969
   14CHL1  H19B 1004   2.844   1.416  10.109 -0.3555 -0.9536  1.4247
   14CHL1  H19C 1005   2.722   1.461  10.236 -0.6538 -1.5129 -0.0320
   14CHL1    C1 1006   2.996   1.591  10.225 -0.1543  0.0526  0.0798
   14CHL1   H1A 1007   3.033   1.496  10.182  0.2742  0.3492 -0.2056
   14CHL1   H1B 1008   3.069   1.672  10.205  0.3413 -0.8415 -1.9465
   14CHL1    C2 1009   2.994   1.593  10.387 -0.1661  0.3261 -0.1307
   14CHL1   H2A 1010   3.096   1.599  10.429 -0.2115  0.3757 -0.0281
   14CHL1   H2B 1011   2.945   1.497  10.413 -0.4137  0.6296  0.5175
   14CHL1   C20 1012   2.941   1.640   9.436  0.1779 -0.0643 -0.6698
   14CHL1   H20 1013   2.845   1.588   9.414 -1.4843  2.3664  0.3496
   14CHL1   C21 1014   3.063   1.545   9.466 -0.2627 -0.2686 -0.4242
   14CHL1  H21A 1015   3.100   1.504   9.370  0.1926  0.6591 -0.6564
   14CHL1  H21B 1016   3.044   1.459   9.534  2.4019  0.6430  1.6427
   14CHL1  H21C 1017   3.147   1.605   9.505  0.4526 -1.0594 -0.7239
   14CHL1   C22 1018   2.960   1.722   9.305  0.1012  0.0049 -0.4476
   14CHL1  H22A 1019   2.867   1.777   9.278 -0.3368  0.4238  1.7609
   14CHL1  H22B 1020   3.023   1.809   9.335  0.2551 -0.7010  1.4098
   14CHL1   C23 1021   3.013   1.655   9.184 -0.4677  0.2407  1.3634
   14CHL1  H23A 1022   3.122   1.633   9.191  0.3273  2.0687 -2.6736
   14CHL1  H23B 1023   2.964   1.556   9.174  1.0223 -0.7570  3.2165
   14CHL1   C24 1024   2.998   1.753   9.061 -0.3087  0.1098  0.1447
   14CHL1  H24A 1025   2.900   1.801   9.040  0.7506  2.3735  0.1072
   14CHL1  H24B 1026   3.066   1.834   9.096  0.2126  0.5457 -1.7350
   14CHL1   C25 1027   3.060   1.698   8.923  0.2030 -0.8777 -0.4752
   14CHL1   H25 1028   2.987   1.631   8.872  1.9811 -0.3693 -3.9583
   14CHL1   C26 1029   3.063   1.822   8.833 -0.2178 -0.8093  0.1490
   14CHL1  H26A 1030   3.139   1.897   8.863 -2.0460  0.7460  1.1501
   14CHL1  H26B 1031   3.080   1.786   8.730 -1.9132 -1.6772  0.1381
   14CHL1  H26C 1032   2.964   1.873   8.832 -0.5401 -1.4339 -0.1556
   14CHL1   C27 1033   3.200   1.644   8.939 -0.3170 -0.1878 -0.3211
   14CHL1  H27A 1034   3.210   1.545   8.989 -0.9762 -0.9878 -1.6993
   14CHL1  H27B 1035   3.242   1.643   8.836 -0.0836  0.8656 -0.2467
   14CHL1  H27C 1036   3.264   1.721   8.987 -0.4312 -0.0909 -0.3235
   15CHL1    C3 1037   3.696   5.710   9.967 -0.1779 -1.2129  0.4325
   15CHL1    H3 1038   3.589   5.738   9.952  0.7398  2.2744 -0.4076
   15CHL1    O3 1039   3.697   5.677  10.104  0.6472 -0.7051  0.6265
   15CHL1   H3' 1040   3.736   5.590  10.111 -0.0563 -1.0604  0.2684
   15CHL1    C4 1041   3.740   5.590   9.888 -0.5422 -0.4265  0.3217
   15CHL1   H4A 1042   3.847   5.576   9.917 -0.5335 -1.4618 -0.1564
   15CHL1   H4B 1043   3.680   5.498   9.904  0.3639 -1.0211  0.4018
   15CHL1    C5 1044   3.734   5.631   9.738  0.4984  0.2564 -0.6544
   15CHL1    C6 1045   3.647   5.569   9.653 -0.2514 -0.0583  0.3275
   15CHL1    H6 1046   3.589   5.486   9.697 -0.2089  0.0546  0.5945
   15CHL1    C7 1047   3.638   5.591   9.507  0.7429 -0.3535  0.1257
   15CHL1   H7A 1048   3.646   5.501   9.443  2.5092  0.6287 -1.1022
   15CHL1   H7B 1049   3.547   5.652   9.486 -0.4239 -1.0146  2.8262
   15CHL1    C8 1050   3.756   5.681   9.452 -0.1682  0.3331 -0.3590
   15CHL1    H8 1051   3.854   5.629   9.442 -0.1441  0.0212  1.2339
   15CHL1   C14 1052   3.709   5.743   9.320  0.6817 -0.1264  0.5187
   15CHL1   H14 1053   3.616   5.803   9.332  0.1689 -0.5927 -0.9326
   15CHL1   C15 1054   3.670   5.650   9.207 -0.2404  0.0049 -0.4955
   15CHL1  H15A 1055   3.735   5.561   9.194 -0.6345 -0.4761  0.6981
   15CHL1  H15B 1056   3.565   5.614   9.210 -0.1652 -0.1382  1.5414
   15CHL1   C16 1057   3.688   5.736   9.084  0.2733  0.5251 -0.3865
   15CHL1  H16A 1058   3.771   5.685   9.030  1.1136  1.1648  0.2747
   15CHL1  H16B 1059   3.604   5.745   9.013 -0.2034 -0.7535 -0.0176
   15CHL1   C17 1060   3.740   5.874   9.124 -0.3239 -0.4330  0.1025
   15CHL1   H17 1061   3.661   5.943   9.161 -0.9067 -0.7704 -0.5078
   15CHL1   C13 1062   3.808   5.850   9.261 -0.4555  0.7321  0.9982
   15CHL1   C18 1063   3.938   5.772   9.240  0.0587  0.1931  0.2520
   15CHL1  H18A 1064   3.928   5.673   9.192 -0.8140  0.6918 -0.6239
   15CHL1  H18B 1065   4.013   5.825   9.177  1.9362 -1.9726  0.5292
   15CHL1  H18C 1066   3.985   5.751   9.339 -1.1444 -1.6992  0.4584
   15CHL1   C12 1067   3.820   5.973   9.354 -0.7259 -0.0155  0.4465
   15CHL1  H12A 1068   3.910   6.032   9.324 -0.1339 -0.7894  0.6842
   15CHL1  H12B 1069   3.723   6.027   9.356 -1.2283 -0.9214  1.5444
   15CHL1   C11 1070   3.857   5.913   9.497 -0.3771  0.0314 -0.4098
   15CHL1  H11A 1071   3.968   5.898   9.495 -0.3053  0.4340  0.2026
   15CHL1  H11B 1072   3.844   6.004   9.558  0.5763  1.2331 -1.9011
   15CHL1    C9 1073   3.772   5.796   9.551 -0.1959 -0.2203  0.1747
   15CHL1    H9 1074   3.673   5.846   9.558  0.3627  1.1124 -0.8350
   15CHL1   C10 1075   3.812   5.753   9.696 -0.3596 -0.1895  0.2502
   15CHL1   C19 1076   3.963   5.722   9.698 -0.1460  0.4347 -0.9478
   15CHL1  H19A 1077   3.991   5.664   9.607  1.5422  1.2876 -1.0167
   15CHL1  H19B 1078   4.027   5.813   9.700 -0.9017  1.0845  3.5605
   15CHL1  H19C 1079   3.991   5.669   9.792 -1.2043 -1.0171 -1.4154
   15CHL1    C1 1080   3.780   5.872   9.791  0.4962 -0.6456  0.0177
   15CHL1   H1A 1081   3.856   5.952   9.777 -1.4643  0.9794 -2.2308
   15CHL1   H1B 1082   3.675   5.910   9.782  1.6079  2.3772 -2.2503
   15CHL1    C2 1083   3.786   5.833   9.938  1.4069  0.1026  0.2708
   15CHL1   H2A 1084   3.752   5.917  10.002 -3.2271 -0.8620 -0.5397
   15CHL1   H2B 1085   3.888   5.797   9.964 -0.2408 -3.7880  2.3553
   15CHL1   C20 1086   3.835   5.954   9.026 -0.5110  0.8203 -0.2896
   15CHL1   H20 1087   3.908   6.002   9.094  0.3570 -0.5031 -0.2611
   15CHL1   C21 1088   3.764   6.072   8.964  0.6716  0.1373  0.1300
   15CHL1  H21A 1089   3.831   6.141   8.908 -0.4759  0.7636 -0.5245
   15CHL1  H21B 1090   3.711   6.126   9.046 -1.9789 -0.1760 -1.2415
   15CHL1  H21C 1091   3.678   6.042   8.899  0.4189  2.4551 -0.7168
   15CHL1   C22 1092   3.899   5.870   8.911 -0.1447  0.0325  0.4466
   15CHL1  H22A 1093   3.954   5.786   8.959  1.9547  1.9189  1.5274
   15CHL1  H22B 1094   3.825   5.838   8.835  1.7348 -1.0781 -1.0174
   15CHL1   C23 1095   4.009   5.937   8.827  0.7765 -0.1898 -0.6389
   15CHL1  H23A 1096   3.973   6.030   8.777 -1.3263 -1.6039 -1.8938
   15CHL1  H23B 1097   4.087   5.970   8.899 -0.2991  0.0479  0.4431
   15CHL1   C24 1098   4.072   5.844   8.713  0.2905  0.3809  0.0488
   15CHL1  H24A 1099   4.086   5.744   8.759 -1.1067 -0.4013 -1.1420
   15CHL1  H24B 1100   3.994   5.814   8.640  0.0265 -1.8474  1.1423
   15CHL1   C25 1101   4.201   5.896   8.653  0.1258 -0.8524  0.0832
   15CHL1   H25 1102   4.273   5.927   8.732 -0.8318 -0.1353  0.6920
   15CHL1   C26 1103   4.263   5.790   8.560 -0.1620  0.7859 -0.6055
   15CHL1  H26A 1104   4.366   5.813   8.528  0.5094 -0.7394  0.3203
   15CHL1  H26B 1105   4.280   5.703   8.627  2.5802  0.9451 -0.9800
   15CHL1  H26C 1106   4.189   5.756   8.484  1.0491 -2.5350 -0.4726
   15CHL1   C27 1107   4.176   6.018   8.555 -0.1524  0.2094 -0.9309
   15CHL1  H27A 1108   4.122   5.993   8.461 -2.2914 -1.8216  0.7075
   15CHL1  H27B 1109   4.131   6.097   8.618 -0.0437  0.9727 -1.7827
   15CHL1  H27C 1110   4.281   6.048   8.533  0.7874 -3.4924 -2.3841
   16CHL1    C3 1111   4.124   6.586  10.312 -0.1273 -0.5245 -0.4983
   16CHL1    H3 1112   4.138   6.477  10.295 -0.8700 -1.0482  1.9437
   16CHL1    O3 1113   4.129   6.603  10.450 -0.6466  0.0231 -0.0969
   16CHL1   H3' 1114   4.082   6.686  10.462  1.6816  1.4972 -0.4792
   16CHL1    C4 1115   4.228   6.679  10.252 -0.4676 -0.3696  0.4912
   16CHL1   H4A 1116   4.217   6.773  10.310 -1.4879 -0.7107  0.8639
   16CHL1   H4B 1117   4.325   6.633  10.284 -0.8838 -1.8096 -0.2290
   16CHL1    C5 1118   4.225   6.697  10.103  0.1869  0.0331  0.2804
   16CHL1    C6 1119   4.332   6.683  10.025 -0.6383  0.4921 -0.0330
   16CHL1    H6 1120   4.428   6.652  10.069 -0.1807 -1.4736 -2.2555
   16CHL1    C7 1121   4.337   6.704   9.877 -0.5064 -0.0421  0.1967
   16CHL1   H7A 1122   4.425   6.767   9.851  0.4849 -1.9527 -1.3000
   16CHL1   H7B 1123   4.355   6.607   9.827  0.6455  1.3998 -2.3821
   16CHL1    C8 1124   4.206   6.767   9.839  0.3517  0.2956  0.4676
   16CHL1    H8 1125   4.200   6.875   9.865  1.4579  0.5600 -0.3195
   16CHL1   C14 1126   4.194   6.768   9.690 -0.3546  0.0695 -0.3808
   16CHL1   H14 1127   4.181   6.660   9.666  0.4264 -0.4095  1.1955
   16CHL1   C15 1128   4.317   6.810   9.609 -0.4049  0.0273 -0.1346
   16CHL1  H15A 1129   4.385   6.886   9.652 -1.2184  0.1771  0.9307
   16CHL1  H15B 1130   4.379   6.718   9.598  2.3408  1.5785  1.3658
   16CHL1   C16 1131   4.257   6.850   9.477  0.3500  1.0909  0.1565
   16CHL1  H16A 1132   4.268   6.960   9.465  0.5612  1.0421 -0.1096
   16CHL1  H16B 1133   4.304   6.807   9.386  0.5859  1.2116  0.2192
   16CHL1   C17 1134   4.102   6.825   9.490 -0.2976 -0.0270 -0.5959
   16CHL1   H17 1135   4.094   6.717   9.466  0.5801 -0.2835  0.1914
   16CHL1   C13 1136   4.070   6.836   9.636 -0.0519 -0.0924  0.2722
   16CHL1   C18 1137   4.068   6.987   9.673 -0.4893  0.5352 -0.0708
   16CHL1  H18A 1138   4.143   7.044   9.615 -0.4498 -0.6507 -1.2188
   16CHL1  H18B 1139   3.966   7.025   9.650 -0.8232  0.5724  1.3431
   16CHL1  H18C 1140   4.089   7.005   9.781 -0.9332  1.3095 -0.1040
   16CHL1   C12 1141   3.943   6.763   9.685  0.2488 -0.3460  0.1115
   16CHL1  H12A 1142   3.853   6.810   9.642 -0.7687  0.1194  2.5982
   16CHL1  H12B 1143   3.943   6.661   9.640 -2.6167 -0.3851  0.0433
   16CHL1   C11 1144   3.944   6.752   9.834  0.1911 -0.6179 -0.1034
   16CHL1  H11A 1145   3.930   6.857   9.869  0.5226  0.2004 -2.2765
   16CHL1  H11B 1146   3.864   6.679   9.861  0.3341 -0.5499  0.5232
   16CHL1    C9 1147   4.080   6.707   9.899 -0.4912  0.2289  0.1091
   16CHL1    H9 1148   4.079   6.598   9.877 -1.7275 -0.0031  1.1515
   16CHL1   C10 1149   4.083   6.725  10.053  0.3049  0.4909 -0.2050
   16CHL1   C19 1150   4.045   6.867  10.091  0.3436 -0.3126 -1.3292
   16CHL1  H19A 1151   4.070   6.881  10.199 -2.9802 -2.2316 -0.1494
   16CHL1  H19B 1152   4.097   6.938  10.024  1.7818 -0.6565 -0.6235
   16CHL1  H19C 1153   3.934   6.876  10.087  0.2206  0.5568  1.5763
   16CHL1    C1 1154   3.976   6.618  10.117 -0.9140 -0.6556 -0.2973
   16CHL1   H1A 1155   3.873   6.643  10.085  0.0960  4.8280 -0.1542
   16CHL1   H1B 1156   4.021   6.519  10.094  2.5822 -0.7198  4.9515
   16CHL1    C2 1157   3.984   6.622  10.271  0.5052  0.1142 -0.7582
   16CHL1   H2A 1158   3.916   6.552  10.324  3.4085 -0.5558  2.4040
   16CHL1   H2B 1159   3.956   6.720  10.314  1.1185 -0.0968  0.1557
   16CHL1   C20 1160   4.023   6.910   9.383  0.1575  0.9598 -0.1478
   16CHL1   H20 1161   4.016   7.015   9.420 -0.8146  0.5207  0.9910
   16CHL1   C21 1162   3.876   6.851   9.370  0.0724 -0.7545  0.3723
   16CHL1  H21A 1163   3.832   6.923   9.299  2.2111 -1.0192 -1.3255
   16CHL1  H21B 1164   3.811   6.843   9.460 -0.4930  2.2572  0.3215
   16CHL1  H21C 1165   3.871   6.750   9.323 -3.4141 -0.4449 -0.1956
   16CHL1   C22 1166   4.090   6.916   9.244  0.7926  0.6303 -0.7688
   16CHL1  H22A 1167   4.015   6.971   9.184 -0.8361 -1.5995 -0.8839
   16CHL1  H22B 1168   4.180   6.980   9.256  1.0483  0.1042  0.2710
   16CHL1   C23 1169   4.118   6.774   9.193 -0.2636 -0.4990 -0.9310
   16CHL1  H23A 1170   4.165   6.708   9.270 -1.1700  1.0019  0.9850
   16CHL1  H23B 1171   4.022   6.721   9.178 -0.6086 -0.0888 -0.2155
   16CHL1   C24 1172   4.204   6.784   9.070 -0.7576 -0.0990  0.9279
   16CHL1  H24A 1173   4.309   6.815   9.086 -0.1404 -0.7740 -1.4337
   16CHL1  H24B 1174   4.231   6.684   9.030  0.5732  0.5932  0.0089
   16CHL1   C25 1175   4.162   6.875   8.953  0.0829  0.0355  1.5374
   16CHL1   H25 1176   4.175   6.982   8.977  2.6196 -0.1897  1.4014
   16CHL1   C26 1177   4.248   6.841   8.821  0.0337 -0.6225 -0.4993
   16CHL1  H26A 1178   4.240   6.731   8.807 -0.9368 -0.4437 -1.4707
   16CHL1  H26B 1179   4.210   6.880   8.724  1.3992 -0.3014 -0.9280
   16CHL1  H26C 1180   4.349   6.878   8.849 -0.1530  1.2938 -2.1713
   16CHL1   C27 1181   4.006   6.849   8.930 -0.1012  0.3770  0.5275
   16CHL1  H27A 1182   3.943   6.888   9.013 -0.0522 -1.5047  1.5198
   16CHL1  H27B 1183   3.969   6.893   8.835 -1.0439  0.1305  0.7679
   16CHL1  H27C 1184   3.994   6.739   8.928  3.2975 -0.0886  0.1853
   17CHL1    C3 1185   6.733   3.700  10.391 -0.5826  0.3430  0.3706
   17CHL1    H3 1186   6.683   3.601  10.396 -1.9695  1.0460  0.7825
   17CHL1    O3 1187   6.758   3.755  10.513  0.0174 -0.0896 -0.3436
   17CHL1   H3' 1188   6.813   3.834  10.504 -1.0055  0.7246  0.3548
   17CHL1    C4 1189   6.867   3.668  10.316 -0.4799  0.0247 -0.2137
   17CHL1   H4A 1190   6.927   3.761  10.329 -0.8748 -0.1756  4.8498
   17CHL1   H4B 1191   6.913   3.589  10.378 -0.7351  0.0012 -0.0515
   17CHL1    C5 1192   6.843   3.622  10.174 -0.0185  0.4836  0.2685
   17CHL1    C6 1193   6.891   3.505  10.120  0.1510 -0.8417 -0.3387
   17CHL1    H6 1194   6.955   3.435  10.175 -0.6961 -1.7863 -0.5272
   17CHL1    C7 1195   6.882   3.469   9.970  0.3864 -0.8739 -0.0314
   17CHL1   H7A 1196   6.984   3.445   9.933 -0.1998 -2.5229 -0.6556
   17CHL1   H7B 1197   6.815   3.383   9.949  0.2580 -1.0626  1.1023
   17CHL1    C8 1198   6.835   3.593   9.885  0.3827 -0.0089 -0.0414
   17CHL1    H8 1199   6.911   3.674   9.881 -1.2865  1.5648 -3.0496
   17CHL1   C14 1200   6.798   3.545   9.746 -0.1195  0.4336  0.8101
   17CHL1   H14 1201   6.711   3.477   9.758 -0.5078  0.9155  0.7414
   17CHL1   C15 1202   6.898   3.462   9.666  0.5283 -0.3418 -0.0977
   17CHL1  H15A 1203   7.001   3.504   9.674  1.4969 -2.6190  0.1508
   17CHL1  H15B 1204   6.908   3.360   9.708 -0.1622 -0.2699  0.2522
   17CHL1   C16 1205   6.846   3.474   9.521 -0.2671  1.0899  0.2179
   17CHL1  H16A 1206   6.930   3.507   9.456 -0.2731  0.7656  0.0486
   17CHL1  H16B 1207   6.802   3.383   9.476  1.4242 -0.4761  1.5674
   17CHL1   C17 1208   6.729   3.577   9.534 -0.4216  0.5841  0.1696
   17CHL1   H17 1209   6.634   3.521   9.544 -0.0150  0.1198  1.7864
   17CHL1   C13 1210   6.743   3.658   9.656 -0.1091  0.5690  1.0233
   17CHL1   C18 1211   6.846   3.768   9.629 -0.2560  0.7037 -0.2690
   17CHL1  H18A 1212   6.813   3.855   9.568  0.0998  0.4372 -0.8526
   17CHL1  H18B 1213   6.878   3.818   9.723  0.5768  1.3186 -0.8582
   17CHL1  H18C 1214   6.940   3.731   9.582 -1.4126 -0.1345 -2.0345
   17CHL1   C12 1215   6.619   3.715   9.717  0.4681  0.0279  0.3745
   17CHL1  H12A 1216   6.568   3.795   9.660 -1.2247 -1.4022 -0.1930
   17CHL1  H12B 1217   6.553   3.626   9.711  0.4603  0.1428 -2.7603
   17CHL1   C11 1218   6.651   3.770   9.854  0.0307 -0.5507 -0.0757
   17CHL1  H11A 1219   6.715   3.861   9.845 -0.0328 -0.2663  2.0009
   17CHL1  H11B 1220   6.554   3.796   9.902  0.2010 -2.6834  1.5351
   17CHL1    C9 1221   6.719   3.668   9.949  0.6494  0.5104  0.1130
   17CHL1    H9 1222   6.646   3.588   9.972  1.4040 -0.6671 -1.4087
   17CHL1   C10 1223   6.754   3.714  10.091  0.3496 -1.3147  0.5367
   17CHL1   C19 1224   6.853   3.838  10.079  0.2561 -0.3313  0.7942
   17CHL1  H19A 1225   6.813   3.919  10.014  3.2728 -0.4280 -1.4058
   17CHL1  H19B 1226   6.850   3.887  10.178  2.1290  1.3320  0.1014
   17CHL1  H19C 1227   6.955   3.817  10.041  1.2024  4.1506  0.2669
   17CHL1    C1 1228   6.628   3.765  10.159  0.0941 -0.1596 -0.7965
   17CHL1   H1A 1229   6.590   3.852  10.102 -1.7966 -2.2625 -2.9331
   17CHL1   H1B 1230   6.549   3.687  10.147  1.2455 -1.4780 -0.0433
   17CHL1    C2 1231   6.653   3.802  10.307  0.2502  0.0509 -0.2212
   17CHL1   H2A 1232   6.551   3.802  10.352 -0.7307 -0.0068 -2.3018
   17CHL1   H2B 1233   6.706   3.899  10.316  1.0187 -0.4227  0.3982
   17CHL1   C20 1234   6.707   3.646   9.400 -0.2492  0.8626  0.3185
   17CHL1   H20 1235   6.800   3.701   9.375  0.7316 -0.2313  1.4839
   17CHL1   C21 1236   6.597   3.764   9.406  0.4634  0.2278 -0.1300
   17CHL1  H21A 1237   6.629   3.857   9.460 -2.9815  1.6525 -0.3100
   17CHL1  H21B 1238   6.503   3.726   9.451 -0.6169  2.7219 -0.1182
   17CHL1  H21C 1239   6.582   3.805   9.304  1.9717 -0.3958 -0.6300
   17CHL1   C22 1240   6.650   3.556   9.290  0.0798 -0.2024  0.6444
   17CHL1  H22A 1241   6.681   3.449   9.290 -1.8851 -0.8223  2.0296
   17CHL1  H22B 1242   6.541   3.543   9.307 -0.8413  1.2447 -3.0634
   17CHL1   C23 1243   6.668   3.605   9.146  0.0781  0.1966 -0.6021
   17CHL1  H23A 1244   6.657   3.716   9.148 -0.4031  0.1458 -0.0381
   17CHL1  H23B 1245   6.764   3.562   9.111 -0.6499 -2.7021  0.6998
   17CHL1   C24 1246   6.570   3.537   9.043  0.1352  0.1924 -0.0536
   17CHL1  H24A 1247   6.605   3.432   9.039 -0.1349  0.1196 -0.5846
   17CHL1  H24B 1248   6.462   3.529   9.067  0.1308 -0.9810 -0.4399
   17CHL1   C25 1249   6.584   3.592   8.899 -0.1376 -0.1679 -0.3925
   17CHL1   H25 1250   6.693   3.593   8.878  0.1032 -1.5108  0.6814
   17CHL1   C26 1251   6.513   3.494   8.799  0.2084  0.3625 -0.0455
   17CHL1  H26A 1252   6.524   3.535   8.696  1.6877  0.4727  0.1445
   17CHL1  H26B 1253   6.573   3.401   8.802  0.4739  0.5574  1.3342
   17CHL1  H26C 1254   6.407   3.468   8.821  0.1498  1.6382  1.3276
   17CHL1   C27 1255   6.520   3.732   8.876  0.1252  0.2076  0.6351
   17CHL1  H27A 1256   6.414   3.713   8.902  0.5274 -2.2176  0.6674
   17CHL1  H27B 1257   6.573   3.815   8.929  1.5460 -0.8632  0.9562
   17CHL1  H27C 1258   6.529   3.753   8.767 -1.1931 -2.5556 -0.0995
   18CHL1    C3 1259   5.375   2.266  10.216  0.2194  0.0116  0.0275
   18CHL1    H3 1260   5.363   2.376  10.206 -1.3866 -0.0488  0.9314
   18CHL1    O3 1261   5.363   2.225  10.357  0.1727 -0.6917 -0.3787
   18CHL1   H3' 1262   5.343   2.308  10.402  0.3689 -1.5607  1.4035
   18CHL1    C4 1263   5.253   2.206  10.138 -0.4896 -0.1422 -0.6876
   18CHL1   H4A 1264   5.248   2.096  10.154  1.1662 -0.1270  0.1617
   18CHL1   H4B 1265   5.159   2.240  10.188 -0.1372 -2.9634  2.2627
   18CHL1    C5 1266   5.253   2.256   9.992  0.3103  0.4461  0.2978
   18CHL1    C6 1267   5.157   2.331   9.939  0.4398 -0.1401  0.1982
   18CHL1    H6 1268   5.072   2.373   9.995  0.5507  0.2273  0.0932
   18CHL1    C7 1269   5.160   2.364   9.793  0.7303 -0.6267 -0.3407
   18CHL1   H7A 1270   5.060   2.371   9.746  0.2099  0.2016  0.8444
   18CHL1   H7B 1271   5.196   2.469   9.787  1.1653 -0.8133 -1.1493
   18CHL1    C8 1272   5.258   2.283   9.707 -0.6292  0.1083 -0.1124
   18CHL1    H8 1273   5.224   2.178   9.706  5.4150 -2.2848 -0.3566
   18CHL1   C14 1274   5.284   2.339   9.563 -0.1315  0.7321 -0.0361
   18CHL1   H14 1275   5.331   2.438   9.582  1.2864 -0.4350  3.3474
   18CHL1   C15 1276   5.157   2.377   9.474  0.3662  0.2673  0.3993
   18CHL1  H15A 1277   5.070   2.315   9.503 -0.9868  1.2775 -1.3219
   18CHL1  H15B 1278   5.122   2.481   9.492  0.6532  1.0963 -3.1686
   18CHL1   C16 1279   5.207   2.360   9.329 -0.3032 -0.0369  0.2011
   18CHL1  H16A 1280   5.151   2.280   9.276 -0.0819 -0.4118  0.5254
   18CHL1  H16B 1281   5.180   2.460   9.287 -3.2356  0.5949  3.0833
   18CHL1   C17 1282   5.359   2.321   9.340 -0.4595  0.0411  0.1660
   18CHL1   H17 1283   5.411   2.419   9.349 -0.4260  0.0222  0.1768
   18CHL1   C13 1284   5.379   2.255   9.477  1.0342  0.8485 -0.7413
   18CHL1   C18 1285   5.319   2.115   9.458  0.2508  0.0945 -0.6683
   18CHL1  H18A 1286   5.326   2.064   9.556 -2.3402  1.0762  0.1184
   18CHL1  H18B 1287   5.210   2.128   9.440  0.3631 -0.1903 -1.6161
   18CHL1  H18C 1288   5.368   2.050   9.382 -0.4412 -2.2890  0.8188
   18CHL1   C12 1289   5.514   2.258   9.538  0.3729  0.0945 -0.2711
   18CHL1  H12A 1290   5.578   2.185   9.484  0.6398 -1.3823  1.9395
   18CHL1  H12B 1291   5.558   2.360   9.549  0.1573  0.0323  1.4772
   18CHL1   C11 1292   5.501   2.206   9.687  0.3991  0.5861 -0.6209
   18CHL1  H11A 1293   5.492   2.095   9.683  2.4670  0.2682  1.1504
   18CHL1  H11B 1294   5.601   2.218   9.734  0.3242 -2.3116  0.5199
   18CHL1    C9 1295   5.394   2.269   9.769 -0.6600 -0.7368 -0.6548
   18CHL1    H9 1296   5.424   2.374   9.793  0.6475 -1.3544  0.5639
   18CHL1   C10 1297   5.380   2.208   9.916 -0.0824 -0.1011  0.3094
   18CHL1   C19 1298   5.362   2.057   9.902 -0.4301 -0.2783  0.1703
   18CHL1  H19A 1299   5.388   2.013  10.001  0.2978  0.4963  0.3355
   18CHL1  H19B 1300   5.259   2.019   9.887  0.1794 -1.8496 -0.3284
   18CHL1  H19C 1301   5.428   1.993   9.839 -0.4229  0.4400 -0.5674
   18CHL1    C1 1302   5.495   2.263  10.005 -0.1294  0.1322  0.5202
   18CHL1   H1A 1303   5.588   2.229   9.956 -0.4152 -0.2500  0.2301
   18CHL1   H1B 1304   5.488   2.374  10.009  1.5783  0.3170 -0.5832
   18CHL1    C2 1305   5.497   2.213  10.149  0.8480 -0.4359 -0.1866
   18CHL1   H2A 1306   5.583   2.232  10.217 -1.0142  0.1422  2.1395
   18CHL1   H2B 1307   5.488   2.103  10.157 -0.3459 -0.3196  0.1897
   18CHL1   C20 1308   5.410   2.256   9.216  0.2717  0.9782  0.4913
   18CHL1   H20 1309   5.397   2.146   9.214 -0.2714  1.0450  0.1829
   18CHL1   C21 1310   5.561   2.275   9.209  0.0451 -0.5545  0.5992
   18CHL1  H21A 1311   5.572   2.385   9.220 -2.0147 -0.4408  2.1566
   18CHL1  H21B 1312   5.597   2.238   9.111  0.0428 -1.9526  1.0963
   18CHL1  H21C 1313   5.620   2.225   9.290 -0.8666  1.1567  2.4227
   18CHL1   C22 1314   5.350   2.316   9.086 -0.2763  0.0880 -0.4506
   18CHL1  H22A 1315   5.239   2.321   9.091 -0.6274 -0.4675 -4.3922
   18CHL1  H22B 1316   5.377   2.421   9.061 -1.2390 -0.1101 -2.5014
   18CHL1   C23 1317   5.387   2.222   8.967 -0.6771  0.0952  1.1757
   18CHL1  H23A 1318   5.484   2.257   8.927 -1.0587  1.5849  1.4962
   18CHL1  H23B 1319   5.393   2.120   9.011 -2.6908 -1.1938 -1.2838
   18CHL1   C24 1320   5.274   2.221   8.859 -0.1871  0.5539  0.2602
   18CHL1  H24A 1321   5.175   2.205   8.906  0.5297  0.0878  1.6875
   18CHL1  H24B 1322   5.265   2.316   8.801 -0.4149  2.4708  3.2260
   18CHL1   C25 1323   5.292   2.099   8.770 -0.6020 -0.1859  0.3524
   18CHL1   H25 1324   5.345   2.018   8.824 -1.8540  0.1910  2.2397
   18CHL1   C26 1325   5.163   2.049   8.725 -0.0453 -0.1485  0.1654
   18CHL1  H26A 1326   5.101   2.020   8.812  0.7591 -0.8866  0.5117
   18CHL1  H26B 1327   5.107   2.125   8.666  2.1509  3.1441  1.9853
   18CHL1  H26C 1328   5.169   1.955   8.665 -0.0523 -0.4521  0.6374
   18CHL1   C27 1329   5.379   2.137   8.646 -0.6174 -0.6494  0.2423
   18CHL1  H27A 1330   5.337   2.229   8.601  1.1069  0.6391  1.1542
   18CHL1  H27B 1331   5.480   2.176   8.674 -1.1230 -0.2059  1.5275
   18CHL1  H27C 1332   5.375   2.056   8.570 -0.2188 -0.8660  0.4490
   19CHL1    C3 1333   2.859   6.482  10.045 -0.0738  0.1930 -1.1648
   19CHL1    H3 1334   2.942   6.542  10.004  2.5679 -2.2657  0.2455
   19CHL1    O3 1335   2.835   6.517  10.179  0.1977  0.5892  0.0176
   19CHL1   H3' 1336   2.771   6.456  10.217  0.8956  0.1320  0.5014
   19CHL1    C4 1337   2.727   6.500   9.980 -0.1248  0.1009  0.0715
   19CHL1   H4A 1338   2.659   6.430  10.034  2.8926 -1.0366  2.6533
   19CHL1   H4B 1339   2.704   6.608   9.991  2.0931  0.3995  2.6384
   19CHL1    C5 1340   2.736   6.459   9.832 -0.0851 -0.1029 -1.3308
   19CHL1    C6 1341   2.702   6.533   9.730 -0.7553  0.3153  0.2641
   19CHL1    H6 1342   2.664   6.633   9.754 -0.8049  0.3831 -0.0833
   19CHL1    C7 1343   2.702   6.493   9.585  0.1838 -0.3846  0.4988
   19CHL1   H7A 1344   2.606   6.525   9.540  2.1631  2.8321 -1.9272
   19CHL1   H7B 1345   2.779   6.543   9.521 -1.5479 -0.1327 -1.5281
   19CHL1    C8 1346   2.726   6.346   9.560 -0.7100  0.1297 -0.7106
   19CHL1    H8 1347   2.634   6.292   9.590  0.3310 -0.4574  1.6588
   19CHL1   C14 1348   2.772   6.315   9.417 -0.3808 -0.2902 -0.0284
   19CHL1   H14 1349   2.871   6.364   9.414 -1.2391  1.5438  0.0833
   19CHL1   C15 1350   2.698   6.389   9.305 -0.0307  0.0017 -0.0722
   19CHL1  H15A 1351   2.594   6.395   9.342  0.4723 -0.2199  1.4448
   19CHL1  H15B 1352   2.735   6.492   9.284 -1.9307  1.0428  1.4267
   19CHL1   C16 1353   2.714   6.297   9.182  0.9702 -0.1657  0.1463
   19CHL1  H16A 1354   2.618   6.252   9.149  2.0021 -1.2015 -1.6708
   19CHL1  H16B 1355   2.761   6.360   9.103  0.5751  1.8449  1.4474
   19CHL1   C17 1356   2.815   6.186   9.233 -0.0694  0.2082 -0.0932
   19CHL1   H17 1357   2.913   6.236   9.220  0.8916 -1.4994  0.3117
   19CHL1   C13 1358   2.784   6.171   9.386 -0.1787  0.5518  0.0330
   19CHL1   C18 1359   2.656   6.088   9.412 -1.0198 -0.0013 -0.3226
   19CHL1  H18A 1360   2.576   6.129   9.347  0.1242  0.7433 -1.3128
   19CHL1  H18B 1361   2.662   5.979   9.391 -2.4220  0.0147 -0.9308
   19CHL1  H18C 1362   2.628   6.104   9.518  1.0391 -0.0834  0.2804
   19CHL1   C12 1363   2.907   6.120   9.474  0.6004  0.0224  0.6961
   19CHL1  H12A 1364   2.921   6.011   9.457  1.3015  0.1606  0.3605
   19CHL1  H12B 1365   2.997   6.179   9.446  0.9158  0.5595  2.6381
   19CHL1   C11 1366   2.879   6.150   9.619  0.6400  0.1260  0.0521
   19CHL1  H11A 1367   2.797   6.079   9.642  1.9166 -1.6173 -0.5442
   19CHL1  H11B 1368   2.965   6.125   9.685 -0.9726 -1.3803  1.7171
   19CHL1    C9 1369   2.835   6.294   9.656  0.1435 -0.3176  0.5831
   19CHL1    H9 1370   2.925   6.350   9.624 -0.6021  0.2049 -0.6620
   19CHL1   C10 1371   2.801   6.323   9.812  0.0944 -0.1840  0.0088
   19CHL1   C19 1372   2.690   6.219   9.853 -0.2155 -0.2790 -0.1480
   19CHL1  H19A 1373   2.724   6.114   9.855 -1.0167 -0.5822 -1.3681
   19CHL1  H19B 1374   2.648   6.230   9.956 -2.2208  0.4298 -0.9862
   19CHL1  H19C 1375   2.606   6.236   9.782 -0.6582  0.8505  0.6063
   19CHL1    C1 1376   2.931   6.312   9.898  0.3163 -0.1433  0.9406
   19CHL1   H1A 1377   2.985   6.215   9.892 -1.4088 -1.1466  0.8147
   19CHL1   H1B 1378   3.009   6.374   9.849  1.8790 -0.8120  2.4657
   19CHL1    C2 1379   2.915   6.342  10.040  0.4912  0.7404  0.1917
   19CHL1   H2A 1380   3.013   6.355  10.089  1.3603  4.2154 -2.1442
   19CHL1   H2B 1381   2.846   6.265  10.083  0.6305 -0.0995 -1.0229
   19CHL1   C20 1382   2.810   6.057   9.147  0.1373 -0.7170  0.3998
   19CHL1   H20 1383   2.712   6.013   9.172 -1.2375  2.2522  0.7094
   19CHL1   C21 1384   2.933   5.969   9.172  0.7163 -1.2353 -0.3432
   19CHL1  H21A 1385   2.906   5.911   9.263  0.4139 -1.3039 -0.4739
   19CHL1  H21B 1386   3.031   6.019   9.184  0.6139 -0.6237 -1.8264
   19CHL1  H21C 1387   2.949   5.897   9.089  1.6445  0.5893 -1.8331
   19CHL1   C22 1388   2.815   6.089   8.992  0.1580  0.4819  0.1734
   19CHL1  H22A 1389   2.729   6.159   8.981 -0.5773 -0.6633 -1.9603
   19CHL1  H22B 1390   2.911   6.138   8.966  0.2888  1.9355  3.0346
   19CHL1   C23 1391   2.778   5.978   8.893 -0.1451 -0.0054 -0.1111
   19CHL1  H23A 1392   2.802   6.017   8.791  0.6529  3.1259  1.1725
   19CHL1  H23B 1393   2.839   5.886   8.909 -0.6442 -0.1340  1.1232
   19CHL1   C24 1394   2.625   5.930   8.898  0.4094  0.0734 -0.8609
   19CHL1  H24A 1395   2.612   5.880   8.997 -0.5417 -1.0586 -1.5284
   19CHL1  H24B 1396   2.552   6.014   8.894 -0.1384 -0.1264  2.1590
   19CHL1   C25 1397   2.582   5.822   8.797 -0.3372 -0.2394  0.6928
   19CHL1   H25 1398   2.583   5.855   8.691  0.4260  1.2955  1.1425
   19CHL1   C26 1399   2.668   5.700   8.804  0.2002 -0.0338 -0.0877
   19CHL1  H26A 1400   2.768   5.708   8.755 -0.0356  2.0370 -0.3033
   19CHL1  H26B 1401   2.695   5.682   8.910  1.8547 -2.5226 -0.8269
   19CHL1  H26C 1402   2.617   5.610   8.763 -0.4065  0.3047 -0.0776
   19CHL1   C27 1403   2.432   5.785   8.826 -0.2581  0.1007  0.0727
   19CHL1  H27A 1404   2.389   5.748   8.731  0.9119 -1.5668  0.1482
   19CHL1  H27B 1405   2.438   5.702   8.899  2.7109 -0.5506 -0.7739
   19CHL1  H27C 1406   2.378   5.878   8.857  0.5090  1.0715 -1.3977
   20CHL1    C3 1407   5.085   6.548  10.436  0.5804 -0.5574 -0.5432
   20CHL1    H3 1408   4.978   6.528  10.418 -0.2606  2.4418  0.5432
   20CHL1    O3 1409   5.110   6.498  10.568  0.7928  0.3185 -0.0742
   20CHL1   H3' 1410   5.147   6.410  10.554  4.1250  1.8216 -1.7058
   20CHL1    C4 1411   5.167   6.476  10.324  0.4748  0.3206  0.1550
   20CHL1   H4A 1412   5.268   6.452  10.363  0.8109 -0.1944 -1.0119
   20CHL1   H4B 1413   5.102   6.386  10.325  0.0093  0.6315  1.8857
   20CHL1    C5 1414   5.159   6.547  10.187 -0.0107  0.3021  0.2591
   20CHL1    C6 1415   5.132   6.477  10.075 -0.5916  0.9756 -0.4823
   20CHL1    H6 1416   5.125   6.367  10.086  2.3735  0.5622 -1.5869
   20CHL1    C7 1417   5.138   6.537   9.941 -0.2649 -0.3018  0.3582
   20CHL1   H7A 1418   5.179   6.475   9.859 -1.8363  1.1517 -1.6528
   20CHL1   H7B 1419   5.034   6.556   9.905  0.0116 -1.1526 -0.9766
   20CHL1    C8 1420   5.225   6.670   9.941 -0.4581  0.5972 -0.2706
   20CHL1    H8 1421   5.327   6.629   9.955 -1.4978 -1.3615  2.5113
   20CHL1   C14 1422   5.201   6.737   9.804 -0.3306  0.3215 -0.1775
   20CHL1   H14 1423   5.093   6.760   9.810 -0.7866 -1.9557  1.3594
   20CHL1   C15 1424   5.229   6.654   9.681  0.1573  0.3064  0.5468
   20CHL1  H15A 1425   5.324   6.598   9.692  0.4148  0.8801  1.3476
   20CHL1  H15B 1426   5.141   6.591   9.657 -0.7534  0.9384  2.0532
   20CHL1   C16 1427   5.247   6.759   9.574  0.1142  0.1838  0.6020
   20CHL1  H16A 1428   5.350   6.748   9.536 -0.1043  0.8267 -0.1857
   20CHL1  H16B 1429   5.182   6.744   9.485 -0.8634  0.9371  1.1715
   20CHL1   C17 1430   5.230   6.898   9.642 -0.8552  0.5807  0.3112
   20CHL1   H17 1431   5.123   6.920   9.663 -0.4878  0.4022  2.7081
   20CHL1   C13 1432   5.273   6.872   9.795  0.4421 -0.1884 -0.0861
   20CHL1   C18 1433   5.431   6.855   9.799  0.9284  0.0440  0.3776
   20CHL1  H18A 1434   5.480   6.950   9.768  0.5347 -0.4649 -1.9880
   20CHL1  H18B 1435   5.470   6.811   9.893  0.0698  0.2899  0.8621
   20CHL1  H18C 1436   5.461   6.796   9.710 -0.8709  0.0361 -0.2665
   20CHL1   C12 1437   5.222   6.968   9.902 -0.2275 -0.6442 -0.2463
   20CHL1  H12A 1438   5.280   7.062   9.891  0.3993 -0.8635  0.9606
   20CHL1  H12B 1439   5.113   6.979   9.884 -0.3555  0.3626  0.9688
   20CHL1   C11 1440   5.241   6.908  10.047  0.4722 -0.2740  0.2000
   20CHL1  H11A 1441   5.350   6.899  10.068  0.3031 -3.3337  0.1415
   20CHL1  H11B 1442   5.184   6.974  10.115 -1.5739 -3.2271  1.5339
   20CHL1    C9 1443   5.177   6.762  10.059 -0.3360 -0.0024 -0.9714
   20CHL1    H9 1444   5.066   6.773  10.055 -0.5650 -0.0817  2.3738
   20CHL1   C10 1445   5.196   6.698  10.199  0.6774 -0.1845  0.0522
   20CHL1   C19 1446   5.346   6.714  10.245  0.1691  0.0248 -0.2236
   20CHL1  H19A 1447   5.367   6.658  10.339 -0.3410  0.3385  0.0834
   20CHL1  H19B 1448   5.415   6.678  10.166 -1.2496 -0.3338 -1.3388
   20CHL1  H19C 1449   5.360   6.822  10.263 -0.3795  0.5518 -2.5833
   20CHL1    C1 1450   5.103   6.764  10.305  0.3645  0.0627 -1.0982
   20CHL1   H1A 1451   5.121   6.872  10.323 -0.8006  0.0844  0.0828
   20CHL1   H1B 1452   4.996   6.753  10.278 -0.9580 -2.2134  3.9773
   20CHL1    C2 1453   5.103   6.702  10.445 -0.7343 -0.6412 -0.3486
   20CHL1   H2A 1454   5.016   6.735  10.506  0.1231  1.5566 -0.2205
   20CHL1   H2B 1455   5.200   6.727  10.494  0.0844  1.5451 -2.8211
   20CHL1   C20 1456   5.291   7.011   9.561  0.0254  0.4153 -0.5097
   20CHL1   H20 1457   5.401   6.999   9.551 -0.1840 -0.9773 -1.2923
   20CHL1   C21 1458   5.252   7.141   9.628 -0.0679 -0.5281 -0.4857
   20CHL1  H21A 1459   5.146   7.158   9.656 -0.4608 -1.5148 -1.2847
   20CHL1  H21B 1460   5.283   7.224   9.562 -0.0390 -0.3536 -0.2520
   20CHL1  H21C 1461   5.315   7.161   9.717 -0.4495  2.2018 -0.7632
   20CHL1   C22 1462   5.244   7.020   9.412  0.6097 -0.8845 -0.5478
   20CHL1  H22A 1463   5.280   7.116   9.369 -0.0015 -0.5691 -0.3676
   20CHL1  H22B 1464   5.282   6.934   9.354  1.2044 -0.8856 -0.1726
   20CHL1   C23 1465   5.088   7.014   9.387  0.7042 -0.0353  0.2209
   20CHL1  H23A 1466   5.052   6.913   9.416  0.8744 -0.2576 -0.3223
   20CHL1  H23B 1467   5.040   7.083   9.459 -3.2244 -2.2295  0.0065
   20CHL1   C24 1468   5.043   7.039   9.238  0.3790  0.0069  0.4737
   20CHL1  H24A 1469   4.932   7.049   9.238  0.0475 -2.9143  0.2078
   20CHL1  H24B 1470   5.086   7.137   9.210  0.7779  0.2570  1.8526
   20CHL1   C25 1471   5.091   6.937   9.140 -0.2781  0.1076  0.1634
   20CHL1   H25 1472   5.202   6.942   9.140 -0.1584 -0.3245 -3.0773
   20CHL1   C26 1473   5.057   6.789   9.161 -0.4835  0.4967 -0.1467
   20CHL1  H26A 1474   5.076   6.730   9.069 -1.1827  0.6793 -0.4157
   20CHL1  H26B 1475   5.117   6.753   9.247 -0.4115 -3.0890 -1.5055
   20CHL1  H26C 1476   4.952   6.769   9.190 -0.8312 -0.4119 -1.9284
   20CHL1   C27 1477   5.077   6.995   9.000  0.7119 -0.4504  0.2611
   20CHL1  H27A 1478   5.129   7.092   8.987 -4.1365  2.5852  0.8507
   20CHL1  H27B 1479   5.103   6.914   8.928  0.0033 -0.5985  0.1636
   20CHL1  H27C 1480   4.968   7.006   8.984  0.8704 -0.7828 -1.2128
   21CHL1    C3 1481   6.253   2.846  10.071  0.1558  0.2773  0.3762
   21CHL1    H3 1482   6.341   2.780  10.055 -0.6503 -0.4477 -1.4567
   21CHL1    O3 1483   6.252   2.886  10.205  0.3787 -0.2711 -0.2941
   21CHL1   H3' 1484   6.178   2.947  10.209  1.3631  1.0194 -0.7782
   21CHL1    C4 1485   6.256   2.962   9.971  0.1099 -0.1985  0.0329
   21CHL1   H4A 1486   6.170   3.030   9.990  0.3243  0.2692 -0.6128
   21CHL1   H4B 1487   6.346   3.019  10.004  0.1739  1.0849 -2.1664
   21CHL1    C5 1488   6.246   2.935   9.823 -0.0702 -0.4390 -0.8336
   21CHL1    C6 1489   6.341   2.971   9.738 -0.6076  0.0361 -0.2709
   21CHL1    H6 1490   6.424   3.035   9.769 -0.6066  0.2983 -0.8038
   21CHL1    C7 1491   6.340   2.932   9.591 -0.2747  0.2459 -0.6030
   21CHL1   H7A 1492   6.369   3.016   9.525  0.5398 -0.7522 -1.5790
   21CHL1   H7B 1493   6.414   2.851   9.572  0.9630  1.6013 -1.9040
   21CHL1    C8 1494   6.204   2.885   9.539  0.5818  0.4774 -0.6559
   21CHL1    H8 1495   6.131   2.969   9.545  0.5760  0.4652 -0.5509
   21CHL1   C14 1496   6.217   2.815   9.406  1.0037  0.8145 -0.1006
   21CHL1   H14 1497   6.294   2.736   9.412 -1.3975 -1.8238 -1.5400
   21CHL1   C15 1498   6.289   2.893   9.286 -0.0118  0.2710  0.4003
   21CHL1  H15A 1499   6.265   3.001   9.291  0.2613  0.3403  0.2139
   21CHL1  H15B 1500   6.398   2.878   9.298 -0.1866 -1.3589  0.2351
   21CHL1   C16 1501   6.241   2.812   9.159  1.0439 -0.5820 -0.0585
   21CHL1  H16A 1502   6.194   2.889   9.095  1.2512  0.3759  0.9129
   21CHL1  H16B 1503   6.323   2.754   9.112  1.2200  1.7210 -2.8971
   21CHL1   C17 1504   6.144   2.704   9.208 -0.1262 -0.1670  0.3777
   21CHL1   H17 1505   6.202   2.615   9.240 -0.0184 -0.3223 -0.2244
   21CHL1   C13 1506   6.082   2.755   9.345  0.0584  0.2943  0.3023
   21CHL1   C18 1507   5.987   2.878   9.328 -0.9970 -0.8045  0.3995
   21CHL1  H18A 1508   5.884   2.845   9.304 -1.1665 -0.1509  0.2016
   21CHL1  H18B 1509   5.990   2.949   9.413  1.9992  0.3549 -0.5269
   21CHL1  H18C 1510   6.011   2.940   9.239 -1.5291 -0.1694  0.6876
   21CHL1   C12 1511   6.035   2.650   9.449 -0.0068  0.5737  0.7260
   21CHL1  H12A 1512   5.929   2.622   9.428  0.0986  0.4310  0.3873
   21CHL1  H12B 1513   6.100   2.560   9.443 -1.0723 -0.1923  0.2122
   21CHL1   C11 1514   6.026   2.704   9.590 -0.2341 -0.1302  0.6585
   21CHL1  H11A 1515   5.934   2.765   9.600 -0.6896 -0.7639  0.3861
   21CHL1  H11B 1516   6.009   2.613   9.650 -0.5516 -2.3174 -2.5299
   21CHL1    C9 1517   6.144   2.780   9.640  0.0756 -0.6003 -0.7746
   21CHL1    H9 1518   6.220   2.700   9.656  2.8977  2.0081 -0.2234
   21CHL1   C10 1519   6.135   2.842   9.787  0.0659  0.0073  0.1643
   21CHL1   C19 1520   6.014   2.938   9.790 -0.0154  0.1426  0.0513
   21CHL1  H19A 1521   6.002   2.976   9.894  2.4128 -1.4995  1.0008
   21CHL1  H19B 1522   6.035   3.020   9.717 -0.8265  0.9424  0.6819
   21CHL1  H19C 1523   5.917   2.893   9.762 -1.1221  2.7147 -0.5569
   21CHL1    C1 1524   6.116   2.724   9.891  0.4051 -0.4081 -0.0078
   21CHL1   H1A 1525   6.016   2.677   9.875  0.3169 -1.2840  2.7270
   21CHL1   H1B 1526   6.188   2.648   9.853  0.3129  1.1327 -3.6234
   21CHL1    C2 1527   6.126   2.760  10.040 -0.2267 -0.2099  0.5428
   21CHL1   H2A 1528   6.130   2.666  10.098 -0.3247  0.2670  1.3278
   21CHL1   H2B 1529   6.045   2.825  10.079  2.8192  3.0689  1.8994
   21CHL1   C20 1530   6.045   2.658   9.094  0.3428 -0.5549  0.2591
   21CHL1   H20 1531   5.968   2.736   9.079  1.0517 -0.0091 -0.6195
   21CHL1   C21 1532   5.976   2.524   9.130  0.2472 -0.7868 -0.1625
   21CHL1  H21A 1533   6.060   2.451   9.123  2.8559  2.0336 -0.3242
   21CHL1  H21B 1534   5.899   2.499   9.054  0.5178  1.4704 -1.2524
   21CHL1  H21C 1535   5.945   2.518   9.237  3.3277 -1.2001  0.7998
   21CHL1   C22 1536   6.119   2.652   8.955  0.2304 -0.6058 -0.2520
   21CHL1  H22A 1537   6.141   2.754   8.916 -1.2397 -0.9090 -1.9942
   21CHL1  H22B 1538   6.211   2.595   8.979  0.0091 -0.0187  2.3438
   21CHL1   C23 1539   6.040   2.595   8.838 -0.2293  0.5754 -0.3304
   21CHL1  H23A 1540   6.024   2.489   8.864  2.3736  0.1856 -0.0244
   21CHL1  H23B 1541   5.945   2.647   8.811 -0.7061 -0.5499 -0.8450
   21CHL1   C24 1542   6.125   2.607   8.709 -0.0021  0.0725  0.6210
   21CHL1  H24A 1543   6.133   2.714   8.682 -3.0469 -0.2962 -2.4300
   21CHL1  H24B 1544   6.226   2.565   8.730 -0.0865 -1.2188 -1.2951
   21CHL1   C25 1545   6.072   2.520   8.590 -0.7496  0.6525 -0.2309
   21CHL1   H25 1546   6.047   2.419   8.630  2.0436 -0.1162 -0.1694
   21CHL1   C26 1547   5.944   2.588   8.533  0.5503  0.1629 -0.8372
   21CHL1  H26A 1548   5.966   2.689   8.492 -1.2929  0.8543 -0.2229
   21CHL1  H26B 1549   5.883   2.518   8.471 -0.6656 -0.0081  0.5176
   21CHL1  H26C 1550   5.877   2.599   8.621  1.8066 -1.3127  0.3630
   21CHL1   C27 1551   6.179   2.502   8.482  0.0040 -0.0642  0.3883
   21CHL1  H27A 1552   6.265   2.437   8.513  0.6491  0.0098 -1.1518
   21CHL1  H27B 1553   6.124   2.446   8.404 -1.1508  0.0029  1.1365
   21CHL1  H27C 1554   6.206   2.600   8.438 -2.6834  0.9094  0.7606
   22CHL1    C3 1555   4.709   3.534  10.138  0.0433  0.5493 -0.2987
   22CHL1    H3 1556   4.804   3.581  10.172  0.1880 -0.2715  0.4649
   22CHL1    O3 1557   4.656   3.445  10.238 -0.0985 -0.4287  0.1139
   22CHL1   H3' 1558   4.645   3.509  10.308 -0.7349 -0.6981  0.2683
   22CHL1    C4 1559   4.604   3.643  10.130  0.9395 -0.2613 -0.0549
   22CHL1   H4A 1560   4.502   3.604  10.108 -0.5134  2.0008  2.0950
   22CHL1   H4B 1561   4.597   3.686  10.233 -1.0909 -1.0928  0.2122
   22CHL1    C5 1562   4.646   3.753  10.033  0.2904  0.2380  0.2528
   22CHL1    C6 1563   4.667   3.879  10.066 -0.5353 -0.0153  0.2504
   22CHL1    H6 1564   4.646   3.914  10.168 -0.5532  2.3810 -0.5328
   22CHL1    C7 1565   4.690   3.985   9.962 -0.7079 -0.0773 -0.8098
   22CHL1   H7A 1566   4.654   4.083  10.001 -1.4023 -1.0372  1.0378
   22CHL1   H7B 1567   4.798   4.010   9.967 -1.4139  3.3402  1.3965
   22CHL1    C8 1568   4.653   3.953   9.811  0.3601  0.7512 -0.8088
   22CHL1    H8 1569   4.543   3.941   9.807  0.5568 -1.7668 -0.1903
   22CHL1   C14 1570   4.704   4.050   9.710 -0.2110 -0.2433  0.2695
   22CHL1   H14 1571   4.813   4.053   9.730 -0.0897 -0.5179 -0.3096
   22CHL1   C15 1572   4.653   4.200   9.723 -0.8403  0.7218  0.2681
   22CHL1  H15A 1573   4.545   4.218   9.741 -1.3425 -1.0375 -0.7396
   22CHL1  H15B 1574   4.715   4.243   9.804  1.4030  0.1797 -1.0925
   22CHL1   C16 1575   4.685   4.259   9.583  0.3989 -0.1137  0.3761
   22CHL1  H16A 1576   4.600   4.316   9.539  1.3596  1.6706  0.7458
   22CHL1  H16B 1577   4.771   4.328   9.582  0.8153 -0.4149  3.9114
   22CHL1   C17 1578   4.736   4.141   9.495  0.2241  0.7025  0.3416
   22CHL1   H17 1579   4.844   4.144   9.518  0.4626 -1.1082 -0.3334
   22CHL1   C13 1580   4.679   4.014   9.566 -0.3488 -0.6685 -0.5889
   22CHL1   C18 1581   4.526   4.004   9.525 -0.3916  0.5945  0.1371
   22CHL1  H18A 1582   4.472   3.928   9.586  0.9389 -0.3322  0.2061
   22CHL1  H18B 1583   4.474   4.100   9.542 -0.9406  0.0825  1.4893
   22CHL1  H18C 1584   4.524   3.978   9.417  1.3619 -0.8601  0.3886
   22CHL1   C12 1585   4.743   3.876   9.531 -0.4994 -0.3382 -0.1495
   22CHL1  H12A 1586   4.708   3.857   9.428 -1.0671  2.1652 -0.4698
   22CHL1  H12B 1587   4.853   3.892   9.524 -0.5395  0.5738  1.0656
   22CHL1   C11 1588   4.696   3.770   9.638 -0.8025  0.6054  0.4921
   22CHL1  H11A 1589   4.609   3.714   9.596  2.2762 -2.3458 -2.5253
   22CHL1  H11B 1590   4.774   3.692   9.627  0.0968  1.4935  0.3895
   22CHL1    C9 1591   4.704   3.811   9.783  0.1984 -0.2786 -1.1052
   22CHL1    H9 1592   4.811   3.830   9.805 -0.3304  1.5920  0.1605
   22CHL1   C10 1593   4.657   3.700   9.894  0.5798 -0.1152  0.9890
   22CHL1   C19 1594   4.516   3.668   9.842  0.6010  0.2034 -0.1397
   22CHL1  H19A 1595   4.521   3.613   9.746 -0.9532  0.0994 -0.1883
   22CHL1  H19B 1596   4.459   3.595   9.904 -0.5253 -1.6149 -3.0630
   22CHL1  H19C 1597   4.457   3.761   9.829 -0.0519 -0.1762  0.0469
   22CHL1    C1 1598   4.759   3.573   9.893  0.5085  0.2164  0.4975
   22CHL1   H1A 1599   4.760   3.530   9.790  2.1135  0.5060  0.3703
   22CHL1   H1B 1600   4.861   3.611   9.913  0.0897 -0.1591  3.8983
   22CHL1    C2 1601   4.727   3.467  10.002  0.1391 -0.6998  0.5662
   22CHL1   H2A 1602   4.809   3.392  10.009 -0.6001 -1.7060 -0.8578
   22CHL1   H2B 1603   4.633   3.411   9.981 -0.4572 -0.2557  1.9571
   22CHL1   C20 1604   4.705   4.169   9.350 -0.1260  0.7694  0.0653
   22CHL1   H20 1605   4.595   4.171   9.337 -0.0075 -0.1609 -1.2702
   22CHL1   C21 1606   4.775   4.065   9.257  0.1459  0.1091  0.1484
   22CHL1  H21A 1607   4.780   4.110   9.156  1.5433 -0.6695 -0.1532
   22CHL1  H21B 1608   4.713   3.975   9.240 -1.3644  0.7886  1.7715
   22CHL1  H21C 1609   4.881   4.041   9.282  0.1844  0.3092  0.1819
   22CHL1   C22 1610   4.755   4.307   9.302 -0.2315  0.4560 -0.0497
   22CHL1  H22A 1611   4.731   4.386   9.376  1.6028  1.2570 -0.2553
   22CHL1  H22B 1612   4.862   4.301   9.275 -0.4041 -0.3946 -0.5880
   22CHL1   C23 1613   4.683   4.358   9.173  0.0532 -0.3431  0.4625
   22CHL1  H23A 1614   4.673   4.301   9.079 -0.4486  1.5576 -0.6931
   22CHL1  H23B 1615   4.577   4.358   9.208 -0.0096  2.2634  0.4688
   22CHL1   C24 1616   4.733   4.500   9.135 -0.6743 -0.9283  0.5063
   22CHL1  H24A 1617   4.752   4.563   9.224  1.3535 -1.2379  0.3412
   22CHL1  H24B 1618   4.828   4.476   9.083 -1.1131 -2.1216  0.2361
   22CHL1   C25 1619   4.637   4.573   9.040 -0.1228 -0.8652 -0.0728
   22CHL1   H25 1620   4.581   4.499   8.980  1.3039 -1.7699 -0.3451
   22CHL1   C26 1621   4.539   4.662   9.119 -0.2581  0.8327 -0.6474
   22CHL1  H26A 1622   4.463   4.707   9.052 -0.8534 -0.7492 -1.0765
   22CHL1  H26B 1623   4.483   4.598   9.190  0.7992  1.1249  0.4678
   22CHL1  H26C 1624   4.590   4.745   9.171  0.6577  0.1151 -0.3615
   22CHL1   C27 1625   4.724   4.644   8.937  0.5291 -0.1152  0.6726
   22CHL1  H27A 1626   4.776   4.573   8.869  4.4495  2.1157  1.0563
   22CHL1  H27B 1627   4.664   4.703   8.864  2.1015 -2.7235 -3.0868
   22CHL1  H27C 1628   4.797   4.715   8.982 -0.3469  2.9301 -2.2730
   23CHL1    C3 1629   0.315   4.957  10.107 -0.4320 -0.3055 -0.0945
   23CHL1    H3 1630   0.398   4.883  10.112 -1.5628 -1.5350  2.0343
   23CHL1    O3 1631   0.277   4.991  10.245 -0.2175 -0.1155  0.3537
   23CHL1   H3' 1632   0.203   4.931  10.260 -1.4082  0.5804 -2.0957
   23CHL1    C4 1633   0.373   5.074  10.023  0.2947  0.2757 -0.7650
   23CHL1   H4A 1634   0.297   5.155  10.034  0.7589  0.7084 -0.6958
   23CHL1   H4B 1635   0.465   5.111  10.073 -0.4171 -0.7603  1.3981
   23CHL1    C5 1636   0.398   5.042   9.880 -0.3658  0.5044  0.1080
   23CHL1    C6 1637   0.520   5.058   9.822 -0.6904  0.5405 -0.3755
   23CHL1    H6 1638   0.599   5.108   9.878 -0.1821  0.5858 -1.1153
   23CHL1    C7 1639   0.556   5.017   9.675  0.1189 -0.0500 -0.0222
   23CHL1   H7A 1640   0.609   5.091   9.612 -0.0929 -1.1857 -1.6049
   23CHL1   H7B 1641   0.618   4.925   9.677 -0.0947 -0.1859  0.4193
   23CHL1    C8 1642   0.428   4.986   9.584  0.3722 -0.2848 -0.3430
   23CHL1    H8 1643   0.374   5.081   9.565 -1.0616 -1.0360 -0.2310
   23CHL1   C14 1644   0.471   4.922   9.457  0.0455  0.4738  0.8165
   23CHL1   H14 1645   0.520   4.827   9.487 -0.1464 -0.1568 -0.7777
   23CHL1   C15 1646   0.574   4.985   9.365  0.0723 -0.3280  0.0161
   23CHL1  H15A 1647   0.556   5.095   9.361  1.3340 -0.0725  0.9450
   23CHL1  H15B 1648   0.678   4.967   9.398 -0.8035 -1.3609  2.4158
   23CHL1   C16 1649   0.546   4.923   9.220 -0.2741  1.0209  0.0049
   23CHL1  H16A 1650   0.520   5.006   9.151 -1.9311  1.9810  1.6982
   23CHL1  H16B 1651   0.636   4.876   9.174 -0.7889  0.9737 -0.9762
   23CHL1   C17 1652   0.431   4.819   9.243 -0.9003 -0.1358  0.3138
   23CHL1   H17 1653   0.494   4.732   9.270  1.1410  0.7552 -1.2832
   23CHL1   C13 1654   0.357   4.873   9.371  0.6304 -0.0449 -0.2866
   23CHL1   C18 1655   0.273   4.993   9.332  0.6438 -0.2244 -0.1717
   23CHL1  H18A 1656   0.246   5.056   9.420  0.7208 -1.6261  0.8863
   23CHL1  H18B 1657   0.325   5.051   9.253  1.2610 -2.3814 -1.4108
   23CHL1  H18C 1658   0.175   4.951   9.301 -0.2689  0.0057  2.1763
   23CHL1   C12 1659   0.273   4.774   9.453 -0.7509  0.0126 -0.0198
   23CHL1  H12A 1660   0.185   4.740   9.394  0.1259 -0.9177 -0.8307
   23CHL1  H12B 1661   0.345   4.690   9.463  1.7668  1.7468 -2.1110
   23CHL1   C11 1662   0.214   4.832   9.582  0.1351 -0.0842 -0.5860
   23CHL1  H11A 1663   0.119   4.884   9.559  0.9288  1.5648 -0.2442
   23CHL1  H11B 1664   0.178   4.743   9.639 -3.4742 -0.8049 -3.6177
   23CHL1    C9 1665   0.327   4.901   9.666 -0.4190 -0.1030  0.0846
   23CHL1    H9 1666   0.386   4.815   9.705 -1.5032 -0.7421  0.3889
   23CHL1   C10 1667   0.285   4.965   9.805  0.1312  0.0248  0.6028
   23CHL1   C19 1668   0.163   5.053   9.767  0.4668  0.5286  0.3157
   23CHL1  H19A 1669   0.070   5.002   9.734  0.1030  1.2840  0.1567
   23CHL1  H19B 1670   0.124   5.114   9.851 -2.9641  1.7032 -1.8891
   23CHL1  H19C 1671   0.193   5.124   9.687 -2.0454  1.4717  0.1030
   23CHL1    C1 1672   0.234   4.850   9.899  0.5315 -0.2545 -0.4077
   23CHL1   H1A 1673   0.138   4.808   9.861 -1.4159  3.5571 -0.1703
   23CHL1   H1B 1674   0.306   4.767   9.918  1.3617  0.0499 -2.0849
   23CHL1    C2 1675   0.192   4.894  10.042  0.5853  0.0761  0.5859
   23CHL1   H2A 1676   0.151   4.808  10.099  1.5390 -0.8958 -0.1519
   23CHL1   H2B 1677   0.114   4.972  10.033  1.0869  0.3013 -3.1659
   23CHL1   C20 1678   0.352   4.782   9.121 -0.2765 -0.2312 -0.6712
   23CHL1   H20 1679   0.316   4.880   9.083 -1.6096  0.5932  2.4294
   23CHL1   C21 1680   0.239   4.690   9.151 -0.6086  0.0987  0.4128
   23CHL1  H21A 1681   0.210   4.656   9.049  3.2797 -0.0453 -0.8191
   23CHL1  H21B 1682   0.151   4.732   9.204 -0.4499 -0.4919  1.1636
   23CHL1  H21C 1683   0.269   4.600   9.209  0.1332  0.9993  1.4740
   23CHL1   C22 1684   0.447   4.734   9.004  0.1610  0.1813 -0.1959
   23CHL1  H22A 1685   0.547   4.782   9.002 -0.3450  1.4495  1.8317
   23CHL1  H22B 1686   0.460   4.628   9.033 -2.1233  0.4030  1.9073
   23CHL1   C23 1687   0.385   4.750   8.859  0.7462  0.5633  0.2190
   23CHL1  H23A 1688   0.277   4.727   8.856  1.0630 -1.4878  2.0543
   23CHL1  H23B 1689   0.411   4.853   8.828 -0.2316  0.6802 -0.2427
   23CHL1   C24 1690   0.456   4.654   8.759 -0.2571  0.0207 -0.0653
   23CHL1  H24A 1691   0.564   4.681   8.761  0.0539 -1.1508 -0.2372
   23CHL1  H24B 1692   0.447   4.547   8.786 -2.3592 -0.6607 -2.9783
   23CHL1   C25 1693   0.399   4.646   8.620 -0.6517 -0.3907  0.1111
   23CHL1   H25 1694   0.476   4.594   8.559 -0.8219  0.4789 -0.8832
   23CHL1   C26 1695   0.265   4.573   8.615  0.4715  0.2348 -0.4422
   23CHL1  H26A 1696   0.189   4.639   8.663 -0.1404  0.3466 -1.5298
   23CHL1  H26B 1697   0.221   4.563   8.513 -1.3628  0.2892  0.2996
   23CHL1  H26C 1698   0.265   4.476   8.668 -2.4078  0.0717 -0.5929
   23CHL1   C27 1699   0.390   4.785   8.555  0.1185 -0.1745 -0.2150
   23CHL1  H27A 1700   0.361   4.772   8.448 -2.6168  0.3121  0.3860
   23CHL1  H27B 1701   0.306   4.839   8.605  0.7811  0.2734  0.4397
   23CHL1  H27C 1702   0.480   4.849   8.564  0.5152 -0.8358  0.5877
   24CHL1    C3 1703   1.456   5.537   9.986  0.5177 -0.3283  0.4107
   24CHL1    H3 1704   1.412   5.626   9.937  0.3610 -1.7396 -2.1639
   24CHL1    O3 1705   1.492   5.575  10.115  0.1952  0.4659  0.0477
   24CHL1   H3' 1706   1.515   5.494  10.162  0.3117 -0.4822 -1.5495
   24CHL1    C4 1707   1.362   5.415   9.990  0.2916 -0.0468 -0.0303
   24CHL1   H4A 1708   1.409   5.343  10.060 -1.6931 -1.5597 -0.1728
   24CHL1   H4B 1709   1.270   5.451  10.042  0.9145 -1.6390  2.3386
   24CHL1    C5 1710   1.326   5.363   9.854  0.4760  0.4603 -0.3194
   24CHL1    C6 1711   1.197   5.351   9.812  0.2999 -0.7203  0.7047
   24CHL1    H6 1712   1.116   5.378   9.881 -0.8642 -1.0019 -0.5074
   24CHL1    C7 1713   1.162   5.298   9.676 -0.3213 -0.5147 -0.6202
   24CHL1   H7A 1714   1.083   5.220   9.677  0.2497 -1.1246 -1.7695
   24CHL1   H7B 1715   1.139   5.382   9.608  3.6103  0.1156 -1.3740
   24CHL1    C8 1716   1.283   5.229   9.607 -0.3648 -0.4448 -0.5996
   24CHL1    H8 1717   1.302   5.131   9.657  2.6110  0.1317 -0.3940
   24CHL1   C14 1718   1.250   5.209   9.460  0.5272  0.4618 -0.0753
   24CHL1   H14 1719   1.235   5.311   9.419  0.2270  0.3285 -0.3104
   24CHL1   C15 1720   1.120   5.133   9.419 -0.0722 -0.4187  0.1954
   24CHL1  H15A 1721   1.108   5.054   9.495  2.9802  0.9891  2.3683
   24CHL1  H15B 1722   1.032   5.200   9.411 -1.2650 -1.7344  1.7564
   24CHL1   C16 1723   1.144   5.076   9.279 -0.3688  0.4851  0.2589
   24CHL1  H16A 1724   1.130   4.966   9.269 -0.8741  0.5922 -0.2691
   24CHL1  H16B 1725   1.087   5.124   9.197  2.6189  1.5598 -1.3542
   24CHL1   C17 1726   1.297   5.114   9.242 -0.3601  0.6257 -0.1582
   24CHL1   H17 1727   1.300   5.219   9.207  0.4753  0.7300  0.2119
   24CHL1   C13 1728   1.363   5.143   9.373  0.0300  0.6930  0.2658
   24CHL1   C18 1729   1.396   4.998   9.427 -0.3147  0.5100  0.2792
   24CHL1  H18A 1730   1.305   4.935   9.421 -0.1985  0.2375  1.1650
   24CHL1  H18B 1731   1.479   4.946   9.375 -1.1572  0.3977 -0.9772
   24CHL1  H18C 1732   1.420   5.001   9.536  1.5992 -1.0854 -0.0481
   24CHL1   C12 1733   1.488   5.242   9.379  0.6710  0.1248 -0.0590
   24CHL1  H12A 1734   1.575   5.195   9.327  0.8909  0.9355 -0.4354
   24CHL1  H12B 1735   1.469   5.341   9.333 -0.3882 -0.4017 -0.7900
   24CHL1   C11 1736   1.524   5.262   9.529 -0.3001 -0.1018  0.5391
   24CHL1  H11A 1737   1.556   5.159   9.559  3.2488  0.5915 -0.3747
   24CHL1  H11B 1738   1.609   5.333   9.538  2.6784 -3.0956 -1.3904
   24CHL1    C9 1739   1.407   5.319   9.619  0.1811  0.8214 -0.2065
   24CHL1    H9 1740   1.376   5.416   9.575 -0.8787  0.1378 -1.0304
   24CHL1   C10 1741   1.444   5.336   9.772  0.1126  0.3427  0.0261
   24CHL1   C19 1742   1.512   5.209   9.825  0.2871  0.6631 -0.5298
   24CHL1  H19A 1743   1.463   5.111   9.810 -0.3328  0.6890  1.1169
   24CHL1  H19B 1744   1.620   5.205   9.800  0.6829  1.4769  0.9279
   24CHL1  H19C 1745   1.524   5.216   9.935  0.8804 -4.0139 -0.1262
   24CHL1    C1 1746   1.550   5.452   9.775  0.1715 -0.1735 -0.0180
   24CHL1   H1A 1747   1.644   5.417   9.728 -0.2638  1.5413 -2.3158
   24CHL1   H1B 1748   1.504   5.534   9.717 -1.8970  0.0145  1.7532
   24CHL1    C2 1749   1.586   5.499   9.916 -0.0857  0.2857 -0.0178
   24CHL1   H2A 1750   1.659   5.583   9.916  0.9338 -0.5669  0.3890
   24CHL1   H2B 1751   1.639   5.416   9.969 -0.2890 -0.1085 -0.4222
   24CHL1   C20 1752   1.366   5.029   9.134  0.6425  0.0526 -0.2676
   24CHL1   H20 1753   1.369   4.926   9.177 -2.0466  0.3831  0.9457
   24CHL1   C21 1754   1.505   5.087   9.097  0.3421 -0.0193  0.2023
   24CHL1  H21A 1755   1.506   5.195   9.071 -0.9338 -0.3225 -1.2687
   24CHL1  H21B 1756   1.536   5.027   9.008 -1.2959  1.9137 -1.7783
   24CHL1  H21C 1757   1.589   5.072   9.168  2.0964  0.7185 -1.6179
   24CHL1   C22 1758   1.290   5.009   8.995 -0.3795  0.1462 -0.4665
   24CHL1  H22A 1759   1.341   4.934   8.932 -0.1516 -0.1534  0.0697
   24CHL1  H22B 1760   1.187   4.973   9.017  0.2408 -1.5280 -0.1593
   24CHL1   C23 1761   1.263   5.129   8.907  0.0567  0.3220  0.1918
   24CHL1  H23A 1762   1.208   5.203   8.969 -0.9939 -0.5374  0.3082
   24CHL1  H23B 1763   1.360   5.172   8.873  0.5252 -0.9846 -0.1834
   24CHL1   C24 1764   1.169   5.097   8.783 -0.0423 -0.5871 -0.2182
   24CHL1  H24A 1765   1.075   5.047   8.814 -1.1368  1.5412  0.0679
   24CHL1  H24B 1766   1.133   5.199   8.755 -3.2311 -1.1616  1.2627
   24CHL1   C25 1767   1.232   5.022   8.661 -0.2272  0.2972  0.1168
   24CHL1   H25 1768   1.256   4.924   8.708 -4.8814 -2.3921 -2.4093
   24CHL1   C26 1769   1.119   4.992   8.566 -0.0226  0.3881  0.3607
   24CHL1  H26A 1770   1.015   4.977   8.603  0.2627 -1.4884  0.4924
   24CHL1  H26B 1771   1.109   5.070   8.487  1.2896 -1.2682 -1.5335
   24CHL1  H26C 1772   1.133   4.896   8.512 -0.7998  1.6258 -2.1741
   24CHL1   C27 1773   1.354   5.090   8.595  0.1353 -0.5350  0.1371
   24CHL1  H27A 1774   1.376   5.029   8.505 -1.2939  0.0007 -0.6002
   24CHL1  H27B 1775   1.331   5.191   8.554 -0.9126  0.6567  3.3281
   24CHL1  H27C 1776   1.444   5.106   8.659  0.8569 -1.5848 -0.5878
   25CHL1    C3 1777   4.048   1.856  10.373 -0.5440  0.5053  0.7988
   25CHL1    H3 1778   3.967   1.921  10.332  1.2328  1.0262 -2.1856
   25CHL1    O3 1779   4.080   1.861  10.513 -0.1236 -0.4444  0.1619
   25CHL1   H3' 1780   3.996   1.851  10.557  0.3125 -0.0100  1.1146
   25CHL1    C4 1781   4.018   1.705  10.333 -0.1787 -0.0633  0.3125
   25CHL1   H4A 1782   4.107   1.642  10.357  1.0815  1.3648 -0.4046
   25CHL1   H4B 1783   3.941   1.663  10.401  2.3873 -1.5276  2.5316
   25CHL1    C5 1784   4.011   1.674  10.185  0.3764 -0.2724  0.1649
   25CHL1    C6 1785   3.902   1.613  10.137  0.1950 -0.7161 -0.4371
   25CHL1    H6 1786   3.822   1.578  10.204  0.8952 -1.0265  0.2658
   25CHL1    C7 1787   3.885   1.586   9.991  0.1234  0.5884 -0.2489
   25CHL1   H7A 1788   3.852   1.481   9.976 -1.2086  0.8354  0.7980
   25CHL1   H7B 1789   3.803   1.650   9.953 -1.7611 -1.0954  0.8026
   25CHL1    C8 1790   4.011   1.606   9.905  0.1916  0.3794  0.1154
   25CHL1    H8 1791   4.088   1.527   9.914  0.1778  0.0213 -2.1862
   25CHL1   C14 1792   3.983   1.616   9.756  0.3364 -0.5183  0.6157
   25CHL1   H14 1793   3.915   1.704   9.754  3.2508  1.9326 -1.5406
   25CHL1   C15 1794   3.893   1.509   9.687 -1.0929 -0.1536  0.0139
   25CHL1  H15A 1795   3.936   1.409   9.711  1.1935  0.1981 -2.2428
   25CHL1  H15B 1796   3.789   1.516   9.726 -1.5758  0.6052 -1.3236
   25CHL1   C16 1797   3.911   1.539   9.537 -0.6781 -0.5577 -0.0418
   25CHL1  H16A 1798   3.956   1.453   9.483 -0.1331  0.9652 -2.1742
   25CHL1  H16B 1799   3.809   1.560   9.500 -1.2431  0.3235  1.8625
   25CHL1   C17 1800   4.013   1.647   9.524 -0.3162  0.1694 -0.9722
   25CHL1   H17 1801   3.967   1.748   9.521  0.1130  0.3474 -2.9542
   25CHL1   C13 1802   4.096   1.643   9.656  0.2242 -0.3205  0.5341
   25CHL1   C18 1803   4.196   1.522   9.649 -0.2111 -0.0545 -0.0297
   25CHL1  H18A 1804   4.235   1.495   9.750 -0.8855 -2.3495 -0.3242
   25CHL1  H18B 1805   4.140   1.434   9.610  1.3326 -1.1384  0.1035
   25CHL1  H18C 1806   4.279   1.536   9.577 -0.3230 -0.4798 -0.2431
   25CHL1   C12 1807   4.171   1.769   9.704 -0.2490 -0.0578  0.1636
   25CHL1  H12A 1808   4.271   1.768   9.654 -0.2300 -1.0855  0.2063
   25CHL1  H12B 1809   4.113   1.858   9.672  1.4911  1.2257  0.4394
   25CHL1   C11 1810   4.208   1.770   9.854  0.1363 -0.4661 -0.1084
   25CHL1  H11A 1811   4.294   1.702   9.873  1.6673  0.8809 -1.9125
   25CHL1  H11B 1812   4.249   1.869   9.886  2.1376 -1.6699  1.2957
   25CHL1    C9 1813   4.089   1.738   9.951 -0.0553  0.0204  0.0002
   25CHL1    H9 1814   4.016   1.820   9.934  1.4557  1.5341  0.5730
   25CHL1   C10 1815   4.122   1.741  10.102 -0.2041 -0.9766  0.0871
   25CHL1   C19 1816   4.252   1.644  10.121 -0.8355  0.5222  0.3163
   25CHL1  H19A 1817   4.343   1.696  10.086  0.1888 -0.5801  1.2507
   25CHL1  H19B 1818   4.290   1.623  10.224  0.4002  2.3012  0.2623
   25CHL1  H19C 1819   4.237   1.550  10.062 -2.8999  1.5826 -0.9693
   25CHL1    C1 1820   4.160   1.887  10.150 -0.2213  0.2875 -0.0701
   25CHL1   H1A 1821   4.260   1.910  10.108  0.2065 -0.9296  0.2457
   25CHL1   H1B 1822   4.087   1.962  10.113 -0.6241  0.1655  0.4594
   25CHL1    C2 1823   4.176   1.893  10.297  0.5316 -0.1757  0.2910
   25CHL1   H2A 1824   4.211   1.996  10.318  0.6834 -0.2941  0.6210
   25CHL1   H2B 1825   4.249   1.817  10.332 -1.5439 -2.9974 -1.1078
   25CHL1   C20 1826   4.083   1.639   9.388  0.3644  0.0795  0.6889
   25CHL1   H20 1827   4.146   1.549   9.375  2.7944  1.7297  0.5289
   25CHL1   C21 1828   4.167   1.770   9.372 -0.7833 -0.3038 -0.4755
   25CHL1  H21A 1829   4.112   1.862   9.403 -0.9126  0.1872 -2.0500
   25CHL1  H21B 1830   4.205   1.786   9.269 -0.0163  0.7199 -0.0417
   25CHL1  H21C 1831   4.250   1.765   9.445  0.6868  1.5240 -1.9177
   25CHL1   C22 1832   3.980   1.638   9.274 -0.3792 -0.2970 -0.0473
   25CHL1  H22A 1833   3.938   1.536   9.268  0.0945 -0.5211  0.4064
   25CHL1  H22B 1834   3.886   1.692   9.299  0.1662  1.2662 -1.1909
   25CHL1   C23 1835   4.028   1.683   9.127  0.7466 -0.2342 -0.3940
   25CHL1  H23A 1836   4.020   1.794   9.128  0.1398 -0.2251 -2.1378
   25CHL1  H23B 1837   4.130   1.654   9.094 -0.1719  0.5967 -4.6068
   25CHL1   C24 1838   3.952   1.626   9.000 -0.0686 -0.2665 -0.1000
   25CHL1  H24A 1839   3.995   1.673   8.909  1.7461  0.0524  0.8809
   25CHL1  H24B 1840   3.970   1.516   8.998  0.6121 -0.2464  2.4031
   25CHL1   C25 1841   3.802   1.654   9.006  0.2866 -0.2645  0.1409
   25CHL1   H25 1842   3.769   1.609   9.102  0.7059 -0.4779  0.1866
   25CHL1   C26 1843   3.764   1.801   9.012 -0.0030  0.2594  0.1322
   25CHL1  H26A 1844   3.791   1.851   9.108 -1.2628  1.6196 -0.1922
   25CHL1  H26B 1845   3.814   1.855   8.928  3.5450 -3.0897 -0.1732
   25CHL1  H26C 1846   3.656   1.825   9.001  0.2549  1.4263 -0.0573
   25CHL1   C27 1847   3.721   1.584   8.894 -0.5919 -0.0535 -0.0808
   25CHL1  H27A 1848   3.614   1.605   8.915 -0.1996  2.6060 -0.4043
   25CHL1  H27B 1849   3.741   1.627   8.793  0.4115 -0.1067  0.0868
   25CHL1  H27C 1850   3.742   1.475   8.887 -0.5493  0.0190 -1.3266
   26CHL1    C3 1851   5.808   5.105   9.957 -0.8258 -0.1920 -0.0303
   26CHL1    H3 1852   5.910   5.086   9.998 -1.0697  0.7120  1.0627
   26CHL1    O3 1853   5.722   5.102  10.073 -0.2162 -0.3381  0.1039
   26CHL1   H3' 1854   5.778   5.069  10.144 -1.5011  1.7985  2.2804
   26CHL1    C4 1855   5.825   5.245   9.894 -0.0447 -0.3816 -0.8644
   26CHL1   H4A 1856   5.728   5.294   9.869  0.6078  1.4266 -0.0284
   26CHL1   H4B 1857   5.861   5.315   9.972 -0.4635 -0.2122 -0.8232
   26CHL1    C5 1858   5.916   5.243   9.777 -0.4352 -0.1142  0.6708
   26CHL1    C6 1859   6.026   5.319   9.769 -0.1308 -0.5304 -0.6253
   26CHL1    H6 1860   6.041   5.389   9.852  0.9508 -0.9012 -0.4916
   26CHL1    C7 1861   6.129   5.326   9.662 -0.8751 -0.1404  0.2338
   26CHL1   H7A 1862   6.165   5.423   9.620 -1.1711 -0.9496 -2.0129
   26CHL1   H7B 1863   6.212   5.259   9.695  0.7111  1.9817  0.8057
   26CHL1    C8 1864   6.075   5.255   9.535  0.2083 -0.0361 -0.0447
   26CHL1    H8 1865   5.999   5.331   9.504  0.4406  0.9704  1.7527
   26CHL1   C14 1866   6.175   5.228   9.418  0.4918 -0.2284  0.3098
   26CHL1   H14 1867   6.241   5.147   9.455 -1.2262 -1.4276  0.8601
   26CHL1   C15 1868   6.260   5.350   9.371  0.0052 -0.3903 -0.5642
   26CHL1  H15A 1869   6.198   5.441   9.383  0.9111  0.6958 -3.2410
   26CHL1  H15B 1870   6.350   5.347   9.437 -1.1651  0.0878  1.0970
   26CHL1   C16 1871   6.293   5.318   9.226  0.4469  0.1647 -0.4904
   26CHL1  H16A 1872   6.240   5.384   9.155 -0.7028 -0.1237  0.0866
   26CHL1  H16B 1873   6.402   5.316   9.201  1.1403  0.4148  2.2240
   26CHL1   C17 1874   6.237   5.170   9.200  0.2235 -0.0191  0.8187
   26CHL1   H17 1875   6.313   5.096   9.230 -0.3793 -2.1645 -2.4536
   26CHL1   C13 1876   6.116   5.163   9.286 -0.3242 -0.3512 -0.1354
   26CHL1   C18 1877   6.000   5.249   9.230  0.7417  0.4337 -0.2716
   26CHL1  H18A 1878   5.937   5.198   9.154  1.9388 -0.7415 -0.4959
   26CHL1  H18B 1879   5.925   5.285   9.304  0.3590  0.9111 -0.8752
   26CHL1  H18C 1880   6.038   5.340   9.179 -2.5719  3.0534  1.4876
   26CHL1   C12 1881   6.067   5.021   9.331 -0.3695  0.3407 -0.1261
   26CHL1  H12A 1882   6.018   4.979   9.240  0.4312  3.1239 -2.0041
   26CHL1  H12B 1883   6.161   4.968   9.356  0.4295  0.7936 -1.9573
   26CHL1   C11 1884   5.964   5.032   9.442  0.5158  0.7263  0.7487
   26CHL1  H11A 1885   5.870   5.056   9.389  0.3103 -1.8557 -0.2091
   26CHL1  H11B 1886   5.952   4.926   9.476 -0.2122 -0.0240 -1.6460
   26CHL1    C9 1887   5.996   5.123   9.561 -0.4445  0.5295 -0.0384
   26CHL1    H9 1888   6.071   5.069   9.622 -0.3413  2.4731  1.6958
   26CHL1   C10 1889   5.883   5.143   9.669 -0.2902 -0.1893  0.0426
   26CHL1   C19 1890   5.757   5.188   9.594 -0.1685  0.3945 -0.5864
   26CHL1  H19A 1891   5.674   5.209   9.664 -0.0424 -1.0120  0.0278
   26CHL1  H19B 1892   5.776   5.283   9.539 -1.6511  0.3418 -1.2373
   26CHL1  H19C 1893   5.724   5.112   9.519 -1.8625  1.2594 -0.7666
   26CHL1    C1 1894   5.855   5.003   9.734 -0.1496  0.3478 -0.6532
   26CHL1   H1A 1895   5.822   4.936   9.652 -0.9167  0.1888 -0.2210
   26CHL1   H1B 1896   5.959   4.970   9.758 -0.4262 -0.0748 -0.0123
   26CHL1    C2 1897   5.764   4.999   9.859 -0.3371 -0.1290 -1.0019
   26CHL1   H2A 1898   5.768   4.895   9.898  2.3808 -0.1326 -1.0886
   26CHL1   H2B 1899   5.664   5.029   9.823 -0.8769 -0.1990  0.3824
   26CHL1   C20 1900   6.213   5.144   9.047  0.1601 -0.3791  0.5447
   26CHL1   H20 1901   6.137   5.215   9.009  0.3539 -0.8118 -0.7060
   26CHL1   C21 1902   6.159   5.008   9.027  0.3515  0.3257  0.4297
   26CHL1  H21A 1903   6.049   4.994   9.039  0.7147 -2.4743  1.0407
   26CHL1  H21B 1904   6.198   4.935   9.100  2.1911 -0.1582 -0.9525
   26CHL1  H21C 1905   6.183   4.962   8.929  1.5349  0.6897  0.5278
   26CHL1   C22 1906   6.340   5.153   8.969  0.3802 -1.1359  1.1684
   26CHL1  H22A 1907   6.406   5.237   8.999  0.0957  0.3499 -1.9183
   26CHL1  H22B 1908   6.403   5.063   8.988  0.4361 -1.4482 -0.3922
   26CHL1   C23 1909   6.312   5.171   8.811  0.1681  0.1260  0.2763
   26CHL1  H23A 1910   6.267   5.074   8.780 -1.0250  1.1001 -1.1302
   26CHL1  H23B 1911   6.234   5.246   8.789  1.3281  2.2595  2.7824
   26CHL1   C24 1912   6.444   5.187   8.728  0.0523 -0.3838 -0.0014
   26CHL1  H24A 1913   6.502   5.279   8.753 -0.0208  0.0441 -1.3750
   26CHL1  H24B 1914   6.516   5.106   8.753  0.1487  0.2364  1.8872
   26CHL1   C25 1915   6.402   5.186   8.580  0.8404  0.7094 -0.4096
   26CHL1   H25 1916   6.307   5.240   8.558  0.0752 -0.2367  0.4785
   26CHL1   C26 1917   6.515   5.237   8.486  0.1262 -0.1713 -1.0643
   26CHL1  H26A 1918   6.607   5.187   8.523 -0.4894 -0.0876  0.6924
   26CHL1  H26B 1919   6.490   5.200   8.385 -1.1956 -1.4397 -0.3213
   26CHL1  H26C 1920   6.524   5.347   8.502  0.4194 -0.2872 -0.3925
   26CHL1   C27 1921   6.380   5.037   8.537  0.7119 -0.1000 -0.0585
   26CHL1  H27A 1922   6.367   5.030   8.427  0.5303 -0.0902 -0.0389
   26CHL1  H27B 1923   6.464   4.976   8.577  0.6576 -0.3201 -0.2729
   26CHL1  H27C 1924   6.294   4.983   8.583  0.6027 -0.9469 -1.2012
   27CHL1    C3 1925   3.654   0.296  10.416 -0.5736  0.4322 -0.1387
   27CHL1    H3 1926   3.553   0.260  10.447  0.1211  0.2518  2.0838
   27CHL1    O3 1927   3.744   0.315  10.523 -0.2896 -0.0895 -0.2293
   27CHL1   H3' 1928   3.797   0.237  10.535 -0.0763  0.2702  1.3553
   27CHL1    C4 1929   3.721   0.206  10.319  0.1117  0.2693  0.7951
   27CHL1   H4A 1930   3.821   0.245  10.292  0.2721  0.8768  2.1986
   27CHL1   H4B 1931   3.747   0.105  10.359  2.9645  1.1151  1.2986
   27CHL1    C5 1932   3.650   0.189  10.185  0.5551 -0.3735 -0.3430
   27CHL1    C6 1933   3.602   0.070  10.139 -0.5015 -0.4371 -0.1864
   27CHL1    H6 1934   3.622  -0.019  10.201  0.9433  0.4635  0.7037
   27CHL1    C7 1935   3.552   0.033  10.000 -0.2969 -0.4151 -0.7974
   27CHL1   H7A 1936   3.610  -0.048   9.952 -2.1186 -1.6589 -1.0123
   27CHL1   H7B 1937   3.451  -0.013  10.003 -1.2960  1.6801 -0.0699
   27CHL1    C8 1938   3.567   0.158   9.913 -0.1204  0.0452 -0.1455
   27CHL1    H8 1939   3.671   0.165   9.875 -0.8972  0.9326 -2.2526
   27CHL1   C14 1940   3.470   0.135   9.792  0.0720 -0.2779 -0.0713
   27CHL1   H14 1941   3.368   0.135   9.837 -1.3913 -0.3488 -3.1329
   27CHL1   C15 1942   3.494   0.002   9.717 -0.1690  0.3241 -0.1692
   27CHL1  H15A 1943   3.604  -0.002   9.698 -0.2097 -1.0192 -0.2426
   27CHL1  H15B 1944   3.442  -0.074   9.779 -0.9309  0.7381 -0.2920
   27CHL1   C16 1945   3.434   0.027   9.575  0.2972 -0.2440 -0.7723
   27CHL1  H16A 1946   3.503   0.011   9.489  0.2997  1.2604 -1.0638
   27CHL1  H16B 1947   3.343  -0.037   9.576 -0.2489  0.4472  2.5118
   27CHL1   C17 1948   3.398   0.181   9.576 -0.2015 -0.6781 -0.0799
   27CHL1   H17 1949   3.289   0.189   9.600 -0.6997 -3.1433 -1.1814
   27CHL1   C13 1950   3.477   0.249   9.694 -0.1344  0.0220  0.2710
   27CHL1   C18 1951   3.627   0.273   9.632 -0.4548  0.2577 -0.2707
   27CHL1  H18A 1952   3.616   0.335   9.540 -0.5247  2.2186  0.9845
   27CHL1  H18B 1953   3.699   0.330   9.694  0.8259 -0.7068 -0.8262
   27CHL1  H18C 1954   3.674   0.176   9.606 -0.3285  0.4774 -0.8883
   27CHL1   C12 1955   3.419   0.371   9.767  0.2012 -0.4992 -0.7995
   27CHL1  H12A 1956   3.400   0.457   9.698  0.5415 -1.3787 -2.0285
   27CHL1  H12B 1957   3.320   0.340   9.807 -1.1628  0.5554 -3.1197
   27CHL1   C11 1958   3.497   0.409   9.896  0.2259  0.7590  0.0429
   27CHL1  H11A 1959   3.590   0.459   9.861  0.4750  1.5549  1.7657
   27CHL1  H11B 1960   3.448   0.493   9.949 -1.1252  0.6741 -1.0167
   27CHL1    C9 1961   3.526   0.286   9.988 -0.3697  0.0700  0.4760
   27CHL1    H9 1962   3.429   0.259  10.034  0.2802 -0.8720  1.3354
   27CHL1   C10 1963   3.621   0.316  10.111  0.6500  0.5456  0.0043
   27CHL1   C19 1964   3.760   0.370  10.059  0.2791 -1.2994  0.7949
   27CHL1  H19A 1965   3.799   0.302   9.980 -1.6077 -0.9715 -0.4788
   27CHL1  H19B 1966   3.723   0.466  10.018 -1.8921 -2.8934 -1.2847
   27CHL1  H19C 1967   3.833   0.377  10.142 -0.1277  0.4340  1.0428
   27CHL1    C1 1968   3.557   0.421  10.208  0.3133 -0.2858 -0.2581
   27CHL1   H1A 1969   3.544   0.524  10.167  3.4236 -0.3668 -1.6726
   27CHL1   H1B 1970   3.460   0.370  10.226  0.2204 -0.4647 -1.2307
   27CHL1    C2 1971   3.627   0.432  10.342 -0.3079  0.1715 -0.0504
   27CHL1   H2A 1972   3.573   0.490  10.421 -1.0341 -1.4832  0.7225
   27CHL1   H2B 1973   3.722   0.484  10.320 -0.2429  1.4346  2.7388
   27CHL1   C20 1974   3.385   0.249   9.435 -0.0905 -0.5641  0.6989
   27CHL1   H20 1975   3.482   0.229   9.385 -0.3393 -0.7934  0.2996
   27CHL1   C21 1976   3.356   0.404   9.434 -0.6782 -0.1170 -0.4096
   27CHL1  H21A 1977   3.251   0.415   9.467 -0.6220  1.2815 -0.6441
   27CHL1  H21B 1978   3.378   0.454   9.337 -0.1275  1.0415  0.2969
   27CHL1  H21C 1979   3.432   0.453   9.499 -0.0374  1.0477 -1.9777
   27CHL1   C22 1980   3.282   0.176   9.356 -0.4052 -0.0847 -0.4821
   27CHL1  H22A 1981   3.306   0.068   9.342 -0.8940 -0.3348  0.5200
   27CHL1  H22B 1982   3.188   0.181   9.416  0.0819 -0.4658  0.3277
   27CHL1   C23 1983   3.251   0.232   9.215  0.1904  0.5037 -0.7495
   27CHL1  H23A 1984   3.228   0.340   9.216  2.5633  1.0487 -0.9934
   27CHL1  H23B 1985   3.344   0.240   9.155  0.4523  1.5153 -0.2177
   27CHL1   C24 1986   3.144   0.160   9.136 -0.2754  0.0103 -0.0695
   27CHL1  H24A 1987   3.149   0.049   9.146  1.6000  0.1668  1.4857
   27CHL1  H24B 1988   3.054   0.187   9.195 -0.6795 -2.0126  0.3215
   27CHL1   C25 1989   3.137   0.186   8.986 -0.1014 -0.2713  0.3272
   27CHL1   H25 1990   3.139   0.295   8.964  2.6813 -0.2596  0.3631
   27CHL1   C26 1991   3.251   0.113   8.907  0.1773 -0.3385 -0.0617
   27CHL1  H26A 1992   3.345   0.155   8.950 -0.7397 -2.2151  4.2678
   27CHL1  H26B 1993   3.256   0.003   8.918 -0.6707 -0.4588 -0.7669
   27CHL1  H26C 1994   3.237   0.112   8.796 -0.6605  0.5053  0.0289
   27CHL1   C27 1995   3.008   0.132   8.931 -0.4004 -0.0579 -0.7631
   27CHL1  H27A 1996   2.916   0.168   8.982 -0.2154 -1.2005  0.4012
   27CHL1  H27B 1997   2.998   0.165   8.825  0.8566  2.2655 -0.2156
   27CHL1  H27C 1998   3.001   0.022   8.937  1.1212 -0.0970  1.0962
   28CHL1    C3 1999   5.186   5.847   9.844 -0.0902  0.0680  0.4439
   28CHL1    H3 2000   5.296   5.843   9.825 -0.5652  1.8394 -3.4027
   28CHL1    O3 2001   5.162   5.789   9.970 -0.0550 -0.2791  0.6430
   28CHL1   H3' 2002   5.175   5.867  10.024 -0.2424  0.7681 -0.7558
   28CHL1    C4 2003   5.125   5.985   9.851  0.5490 -0.2712  0.3257
   28CHL1   H4A 2004   5.026   5.984   9.902  0.7274  1.4087  0.7706
   28CHL1   H4B 2005   5.182   6.053   9.918 -0.2843  1.0249 -0.2263
   28CHL1    C5 2006   5.108   6.053   9.712  0.6392  0.2307 -0.7575
   28CHL1    C6 2007   5.154   6.177   9.692  0.0421 -0.1546 -0.7006
   28CHL1    H6 2008   5.191   6.226   9.783  1.5194 -1.4387 -0.5707
   28CHL1    C7 2009   5.149   6.251   9.561 -0.6353 -0.4337  0.0735
   28CHL1   H7A 2010   5.126   6.358   9.580  1.8422  0.1779 -0.1252
   28CHL1   H7B 2011   5.251   6.248   9.518 -2.0106  1.5060 -3.7883
   28CHL1    C8 2012   5.041   6.186   9.470 -0.0385 -0.2365  0.4596
   28CHL1    H8 2013   4.935   6.212   9.494  0.4262  1.0335  1.2673
   28CHL1   C14 2014   5.064   6.233   9.324 -0.4495 -0.1871  0.1119
   28CHL1   H14 2015   5.168   6.205   9.299 -0.4323  1.1427 -1.4650
   28CHL1   C15 2016   5.042   6.385   9.301 -0.2218 -0.0289 -0.4171
   28CHL1  H15A 2017   4.953   6.422   9.356 -1.1696 -0.9039 -1.3249
   28CHL1  H15B 2018   5.133   6.434   9.342 -1.0016 -0.0945  1.5120
   28CHL1   C16 2019   5.034   6.406   9.152  0.0973  0.5388  0.3722
   28CHL1  H16A 2020   4.950   6.472   9.123  0.9473  1.2497 -0.5256
   28CHL1  H16B 2021   5.132   6.443   9.114 -0.2271  0.9913 -0.0200
   28CHL1   C17 2022   5.012   6.262   9.096 -0.3419  0.9741  0.8327
   28CHL1   H17 2023   5.108   6.220   9.059 -2.0948 -0.8891 -1.9612
   28CHL1   C13 2024   4.980   6.168   9.216 -0.1742 -0.1394 -0.5260
   28CHL1   C18 2025   4.831   6.194   9.253 -0.5271  0.2474 -0.0786
   28CHL1  H18A 2026   4.800   6.301   9.247 -0.8487  0.1504 -0.1730
   28CHL1  H18B 2027   4.762   6.140   9.186  0.7964  0.1268 -1.3790
   28CHL1  H18C 2028   4.796   6.160   9.353 -2.7909 -0.2350 -0.9544
   28CHL1   C12 2029   5.023   6.023   9.197  0.0613 -0.5524  0.4762
   28CHL1  H12A 2030   4.966   5.970   9.118 -2.2048  0.9995  0.9355
   28CHL1  H12B 2031   5.131   6.006   9.178 -0.1482  0.6209 -2.1999
   28CHL1   C11 2032   4.999   5.953   9.334  0.0227 -0.1049 -0.0492
   28CHL1  H11A 2033   4.890   5.943   9.354  0.0702  0.6254  0.6531
   28CHL1  H11B 2034   5.042   5.851   9.328  1.7039  0.6293 -1.3371
   28CHL1    C9 2035   5.058   6.034   9.460  0.1606  0.2408 -0.0609
   28CHL1    H9 2036   5.168   6.025   9.453  0.3603  1.0668  1.5537
   28CHL1   C10 2037   5.041   5.969   9.603 -0.3576 -0.0509 -0.0238
   28CHL1   C19 2038   4.894   5.952   9.639  0.2593  0.5127  0.2044
   28CHL1  H19A 2039   4.839   6.048   9.640 -1.3018 -0.3008  2.3938
   28CHL1  H19B 2040   4.856   5.876   9.567  0.8264 -1.3017  1.7403
   28CHL1  H19C 2041   4.888   5.903   9.739  2.9793  1.5570  0.9648
   28CHL1    C1 2042   5.109   5.825   9.604 -0.4227 -0.1696 -0.0846
   28CHL1   H1A 2043   5.044   5.760   9.541  1.2756 -1.5971 -0.4418
   28CHL1   H1B 2044   5.206   5.835   9.552  0.0740 -0.6127  0.7400
   28CHL1    C2 2045   5.117   5.754   9.740  0.4429  0.5002  0.5167
   28CHL1   H2A 2046   5.180   5.663   9.728  1.5425  1.2562  0.4610
   28CHL1   H2B 2047   5.018   5.715   9.772  0.7469 -1.7821 -1.0622
   28CHL1   C20 2048   4.916   6.265   8.980  0.2568 -0.0512 -0.1720
   28CHL1   H20 2049   4.817   6.306   9.008  0.0087 -1.8034  1.7593
   28CHL1   C21 2050   4.883   6.127   8.911 -0.0089  0.1550 -0.4750
   28CHL1  H21A 2051   4.835   6.054   8.980  0.7796  0.6961  0.6891
   28CHL1  H21B 2052   4.980   6.083   8.878  0.2534  0.9639 -0.8054
   28CHL1  H21C 2053   4.820   6.138   8.820 -0.4720 -1.2412 -0.3514
   28CHL1   C22 2054   4.973   6.357   8.865 -0.1394  0.2652 -0.9749
   28CHL1  H22A 2055   4.902   6.344   8.780 -1.1781  0.4356 -0.1519
   28CHL1  H22B 2056   4.973   6.462   8.902 -2.1445 -0.0622  0.1176
   28CHL1   C23 2057   5.115   6.319   8.817 -0.5531 -0.5631 -0.8257
   28CHL1  H23A 2058   5.179   6.356   8.901 -0.1297  0.4952 -1.5930
   28CHL1  H23B 2059   5.132   6.210   8.804 -0.0575 -0.7084  0.7652
   28CHL1   C24 2060   5.152   6.401   8.685  0.2509 -0.2423 -0.0314
   28CHL1  H24A 2061   5.083   6.376   8.602  0.2693 -0.6000  0.0556
   28CHL1  H24B 2062   5.140   6.510   8.701  0.8787 -0.0564 -0.7814
   28CHL1   C25 2063   5.301   6.375   8.644  0.0024  0.4124 -0.1043
   28CHL1   H25 2064   5.369   6.375   8.732  0.8379  0.0313 -0.7314
   28CHL1   C26 2065   5.311   6.242   8.581  0.2057  0.2142  0.0250
   28CHL1  H26A 2066   5.279   6.163   8.653  1.6015 -0.1513  0.2657
   28CHL1  H26B 2067   5.254   6.240   8.486  3.1227 -0.1890 -1.8271
   28CHL1  H26C 2068   5.415   6.210   8.558  0.5090  1.3952 -0.2817
   28CHL1   C27 2069   5.353   6.479   8.551 -0.4840 -0.1175 -0.1522
   28CHL1  H27A 2070   5.326   6.457   8.445  1.7172 -1.3311 -0.5193
   28CHL1  H27B 2071   5.314   6.580   8.575  0.4506  0.0463  0.7152
   28CHL1  H27C 2072   5.463   6.485   8.539 -0.6140  0.2936 -1.3550
   29CHL1    C3 2073   0.880   5.049   6.577  0.2199 -0.0255 -0.4517
   29CHL1    H3 2074   0.972   5.023   6.635 -0.3824 -2.2944 -0.4418
   29CHL1    O3 2075   0.908   5.026   6.444 -0.0291 -0.0304 -0.0573
   29CHL1   H3' 2076   0.998   5.050   6.423  0.2613  3.6683  3.8449
   29CHL1    C4 2077   0.768   4.965   6.632 -0.7237  0.1120  0.6028
   29CHL1   H4A 2078   0.675   4.967   6.571 -1.0390 -0.2683  1.0604
   29CHL1   H4B 2079   0.812   4.863   6.630 -1.2198 -0.1071 -1.2286
   29CHL1    C5 2080   0.734   5.011   6.775 -0.1008 -0.5866 -0.6033
   29CHL1    C6 2081   0.748   4.935   6.881 -0.1632 -0.0339 -0.3710
   29CHL1    H6 2082   0.777   4.829   6.879  3.0038  0.6375  1.7914
   29CHL1    C7 2083   0.712   4.984   7.015 -0.3557 -0.6104 -0.2253
   29CHL1   H7A 2084   0.640   4.910   7.056 -1.2188 -1.1481 -2.6018
   29CHL1   H7B 2085   0.794   4.999   7.089 -0.5948  2.6254 -0.4525
   29CHL1    C8 2086   0.644   5.121   7.027  0.5257  0.6709  0.4808
   29CHL1    H8 2087   0.534   5.106   7.020  0.6861 -0.6234  0.5658
   29CHL1   C14 2088   0.661   5.179   7.169 -0.1223 -0.6713 -0.6292
   29CHL1   H14 2089   0.768   5.211   7.176 -0.1899 -0.5099 -0.3185
   29CHL1   C15 2090   0.635   5.082   7.285 -0.4088 -0.2479 -0.1897
   29CHL1  H15A 2091   0.555   5.008   7.263  0.7948 -1.1993 -1.5651
   29CHL1  H15B 2092   0.731   5.027   7.290  0.8506  1.7976 -0.7347
   29CHL1   C16 2093   0.606   5.177   7.404  0.0574 -0.0544  0.0048
   29CHL1  H16A 2094   0.499   5.156   7.427 -0.3710  0.4723 -1.4143
   29CHL1  H16B 2095   0.667   5.167   7.497  0.5957 -0.0778 -0.3489
   29CHL1   C17 2096   0.608   5.324   7.349  0.1270  0.0539 -0.4163
   29CHL1   H17 2097   0.714   5.355   7.342 -0.2088  1.4074  0.1830
   29CHL1   C13 2098   0.574   5.311   7.201  0.6262  0.7997  0.5193
   29CHL1   C18 2099   0.414   5.285   7.192  0.3840 -0.1357  0.2406
   29CHL1  H18A 2100   0.382   5.208   7.265 -0.5616 -0.6501 -0.6831
   29CHL1  H18B 2101   0.369   5.382   7.222  2.2015  0.9736 -0.5116
   29CHL1  H18C 2102   0.372   5.270   7.090 -1.8101  0.6781  0.9639
   29CHL1   C12 2103   0.616   5.417   7.098 -0.3871 -0.1137 -0.6685
   29CHL1  H12A 2104   0.555   5.510   7.105  0.3137  0.2148  1.6094
   29CHL1  H12B 2105   0.717   5.460   7.114  0.1737 -1.6501  0.1162
   29CHL1   C11 2106   0.613   5.359   6.951  0.3338  0.2705 -0.2001
   29CHL1  H11A 2107   0.506   5.346   6.927  0.6445 -0.4232 -1.2845
   29CHL1  H11B 2108   0.657   5.447   6.899 -1.2395  3.2744  3.1317
   29CHL1    C9 2109   0.694   5.225   6.930 -0.1539 -0.3936  0.3962
   29CHL1    H9 2110   0.801   5.240   6.955  0.3837  0.1733 -2.0252
   29CHL1   C10 2111   0.705   5.166   6.793 -0.0648 -0.5477  0.7722
   29CHL1   C19 2112   0.565   5.184   6.728 -0.7936 -0.2023  0.0132
   29CHL1  H19A 2113   0.483   5.136   6.787 -2.1099 -0.5892 -2.0293
   29CHL1  H19B 2114   0.539   5.291   6.718  1.3535  0.4698  1.1268
   29CHL1  H19C 2115   0.550   5.133   6.631 -0.6626  2.1987 -1.3412
   29CHL1    C1 2116   0.807   5.251   6.712  0.0023 -0.7792 -0.1865
   29CHL1   H1A 2117   0.769   5.356   6.713 -1.8173 -1.3792  2.1112
   29CHL1   H1B 2118   0.906   5.252   6.762  0.6651  0.8984 -1.4108
   29CHL1    C2 2119   0.835   5.198   6.573  0.4112  0.1907 -0.6072
   29CHL1   H2A 2120   0.929   5.251   6.545  0.9614 -1.0050 -1.1133
   29CHL1   H2B 2121   0.753   5.231   6.506  0.9517 -0.1963 -1.4768
   29CHL1   C20 2122   0.539   5.422   7.446  0.1944  0.4935  0.3990
   29CHL1   H20 2123   0.428   5.420   7.439  0.2597  0.0148 -0.5820
   29CHL1   C21 2124   0.587   5.565   7.412  0.8222  0.0311 -0.1922
   29CHL1  H21A 2125   0.698   5.570   7.401  1.1576 -3.1881  0.7026
   29CHL1  H21B 2126   0.547   5.641   7.482 -0.7722  0.4278 -1.4755
   29CHL1  H21C 2127   0.547   5.599   7.314  1.3266  0.3784 -0.2853
   29CHL1   C22 2128   0.564   5.398   7.599 -0.1622  0.6099 -0.2569
   29CHL1  H22A 2129   0.522   5.479   7.662  1.6337  0.7009  0.9133
   29CHL1  H22B 2130   0.523   5.299   7.627 -1.0853  0.9356 -0.4513
   29CHL1   C23 2131   0.712   5.402   7.654 -0.1757  0.3907 -0.4631
   29CHL1  H23A 2132   0.768   5.325   7.597 -1.0168  0.9081 -2.0359
   29CHL1  H23B 2133   0.760   5.499   7.630 -0.7295  0.4588 -1.3256
   29CHL1   C24 2134   0.723   5.377   7.808  0.0393  0.3201  0.2133
   29CHL1  H24A 2135   0.682   5.274   7.819  0.6398 -0.2431 -2.3317
   29CHL1  H24B 2136   0.829   5.377   7.841 -0.2547  2.0772  1.2987
   29CHL1   C25 2137   0.645   5.487   7.894  0.2088  0.4619 -0.4811
   29CHL1   H25 2138   0.538   5.465   7.874  0.4971 -0.1485 -1.4538
   29CHL1   C26 2139   0.680   5.477   8.048 -0.5639  0.0456  0.1561
   29CHL1  H26A 2140   0.783   5.510   8.070 -0.6180  1.1327 -1.0978
   29CHL1  H26B 2141   0.609   5.529   8.115  0.4956  2.5105 -0.5525
   29CHL1  H26C 2142   0.679   5.375   8.092  3.8408 -0.2249  0.1216
   29CHL1   C27 2143   0.669   5.642   7.849 -0.3210  0.4446 -0.2964
   29CHL1  H27A 2144   0.592   5.709   7.892  0.4980  0.1495  1.7036
   29CHL1  H27B 2145   0.767   5.677   7.887 -1.0813 -0.5320  2.8015
   29CHL1  H27C 2146   0.666   5.652   7.738 -0.5945 -2.6259 -0.6635
   30CHL1    C3 2147   5.818   2.348   7.319  0.3130  1.5887  0.0029
   30CHL1    H3 2148   5.757   2.433   7.354  1.0665  2.0223  0.2981
   30CHL1    O3 2149   5.844   2.361   7.181 -0.3412 -0.0817 -0.0314
   30CHL1   H3' 2150   5.911   2.429   7.174 -0.3167 -0.2093 -1.1036
   30CHL1    C4 2151   5.945   2.346   7.403 -0.7117 -0.2364  0.2469
   30CHL1   H4A 2152   6.004   2.264   7.356 -1.3917 -0.9346  0.5798
   30CHL1   H4B 2153   6.006   2.438   7.395 -0.1853 -0.6449 -0.4993
   30CHL1    C5 2154   5.920   2.329   7.555 -0.0477  0.0400  0.2755
   30CHL1    C6 2155   5.975   2.411   7.651  0.3696  0.5843 -0.3539
   30CHL1    H6 2156   6.046   2.488   7.617  1.3230 -0.2683 -0.3452
   30CHL1    C7 2157   5.953   2.391   7.798 -0.9773  0.6845  0.0798
   30CHL1   H7A 2158   6.050   2.399   7.851 -0.1324 -2.1346 -0.8715
   30CHL1   H7B 2159   5.876   2.460   7.837 -0.8264  0.0298  1.6199
   30CHL1    C8 2160   5.901   2.247   7.839  0.2600 -0.0044 -0.1538
   30CHL1    H8 2161   5.985   2.175   7.828  2.2382  1.9773  1.1629
   30CHL1   C14 2162   5.852   2.230   7.978  0.1205  0.1035 -0.2074
   30CHL1   H14 2163   5.779   2.311   7.998  2.9385  2.8723 -0.2513
   30CHL1   C15 2164   5.956   2.270   8.084  0.4666 -1.1766  0.8889
   30CHL1  H15A 2165   6.052   2.220   8.058 -0.5521 -1.8357 -1.9932
   30CHL1  H15B 2166   5.972   2.380   8.091 -0.3491 -0.8892 -0.9797
   30CHL1   C16 2167   5.903   2.206   8.209 -0.4198 -0.0473  0.6787
   30CHL1  H16A 2168   5.968   2.125   8.248  0.1457  1.6485  3.5593
   30CHL1  H16B 2169   5.876   2.272   8.294 -2.1503 -0.9057  0.8474
   30CHL1   C17 2170   5.765   2.139   8.172  0.5946  0.4562  0.4565
   30CHL1   H17 2171   5.684   2.213   8.191 -2.2373 -1.9872 -1.2066
   30CHL1   C13 2172   5.783   2.105   8.017 -0.3641  0.2183  0.4241
   30CHL1   C18 2173   5.879   1.985   8.000 -0.2314 -0.1380 -0.4091
   30CHL1  H18A 2174   5.960   1.982   8.076 -1.3909 -2.4825  0.8257
   30CHL1  H18B 2175   5.822   1.893   8.023  0.1992 -0.4649 -0.6460
   30CHL1  H18C 2176   5.938   1.983   7.906  0.2996 -0.3038 -0.0736
   30CHL1   C12 2177   5.661   2.086   7.929 -0.4637 -0.3532  0.4037
   30CHL1  H12A 2178   5.599   1.995   7.946  1.4345 -1.5980  0.9657
   30CHL1  H12B 2179   5.603   2.178   7.953 -4.1366 -2.3210 -0.1538
   30CHL1   C11 2180   5.700   2.081   7.781  0.0854 -0.3704 -0.6698
   30CHL1  H11A 2181   5.764   1.992   7.765  1.0170 -0.1540  1.5915
   30CHL1  H11B 2182   5.614   2.080   7.710 -0.0098  0.0595 -0.5671
   30CHL1    C9 2183   5.789   2.206   7.735 -0.0148  0.0879 -0.2812
   30CHL1    H9 2184   5.722   2.293   7.751 -0.8078 -0.7781  1.3937
   30CHL1   C10 2185   5.828   2.210   7.589 -0.0225  0.1405  0.0700
   30CHL1   C19 2186   5.909   2.081   7.558  0.0174  0.5694 -0.1269
   30CHL1  H19A 2187   5.939   2.081   7.451 -0.9683 -1.4510 -0.4469
   30CHL1  H19B 2188   6.002   2.071   7.618 -1.1747  0.7242  1.8447
   30CHL1  H19C 2189   5.843   1.994   7.580 -2.2564  2.1470 -0.2920
   30CHL1    C1 2190   5.703   2.199   7.489 -0.3839 -0.0038 -0.1183
   30CHL1   H1A 2191   5.655   2.100   7.503 -2.1459  0.4792 -2.1215
   30CHL1   H1B 2192   5.630   2.271   7.534 -0.2395 -1.0126  1.8539
   30CHL1    C2 2193   5.735   2.221   7.337  0.5085 -0.4061  0.3483
   30CHL1   H2A 2194   5.642   2.239   7.278 -0.4746  0.0252  1.9696
   30CHL1   H2B 2195   5.790   2.130   7.304  1.3917  0.2534 -0.0397
   30CHL1   C20 2196   5.730   2.023   8.267 -0.2040  0.4156 -0.2239
   30CHL1   H20 2197   5.826   1.971   8.288  0.2481  0.8236 -1.2150
   30CHL1   C21 2198   5.626   1.921   8.213 -0.9781  0.5005  0.5474
   30CHL1  H21A 2199   5.665   1.873   8.121  0.8924  2.7747  0.0560
   30CHL1  H21B 2200   5.532   1.966   8.175 -1.4930 -0.5767  0.4928
   30CHL1  H21C 2201   5.600   1.836   8.281 -1.4182 -0.5510 -0.8956
   30CHL1   C22 2202   5.676   2.077   8.406 -0.2743 -0.2080  0.4993
   30CHL1  H22A 2203   5.622   2.173   8.395  0.5730  0.0165 -2.8251
   30CHL1  H22B 2204   5.613   1.995   8.446  1.3345 -1.0296  1.4765
   30CHL1   C23 2205   5.791   2.082   8.506  0.0370 -0.4723 -0.6719
   30CHL1  H23A 2206   5.833   1.980   8.520 -1.4169 -1.0931 -0.6203
   30CHL1  H23B 2207   5.869   2.152   8.469  0.1369 -1.1228 -1.7542
   30CHL1   C24 2208   5.741   2.129   8.643 -0.0434 -0.3203  0.3837
   30CHL1  H24A 2209   5.689   2.227   8.635 -1.7709 -1.1053  1.3903
   30CHL1  H24B 2210   5.679   2.048   8.686  1.6099 -0.7859  1.9781
   30CHL1   C25 2211   5.863   2.160   8.737  0.6156 -0.4484 -0.2089
   30CHL1   H25 2212   5.918   2.250   8.700 -0.1480 -0.1364 -0.6055
   30CHL1   C26 2213   5.790   2.219   8.864 -0.5726  0.3439  0.1996
   30CHL1  H26A 2214   5.727   2.133   8.897 -1.0238  0.0056 -1.4717
   30CHL1  H26B 2215   5.855   2.242   8.951 -1.6354  0.9226  0.8587
   30CHL1  H26C 2216   5.736   2.313   8.842  1.2466  1.5298  0.5798
   30CHL1   C27 2217   5.957   2.040   8.768  0.0388  0.3889  0.2049
   30CHL1  H27A 2218   5.906   1.949   8.805  0.0442  0.0752 -0.5503
   30CHL1  H27B 2219   6.011   2.016   8.674 -1.1865  1.8046 -0.9132
   30CHL1  H27C 2220   6.032   2.061   8.847  0.7443  0.3774 -0.4502
   31CHL1    C3 2221   5.275   5.258   6.640  0.0108  0.4719  0.4783
   31CHL1    H3 2222   5.201   5.177   6.655 -2.2016  2.3455  0.2763
   31CHL1    O3 2223   5.339   5.227   6.516  0.3802  0.5214 -0.3014
   31CHL1   H3' 2224   5.400   5.300   6.504 -1.9201  2.7141  0.2820
   31CHL1    C4 2225   5.214   5.400   6.633 -0.4447  0.0569 -0.2929
   31CHL1   H4A 2226   5.278   5.481   6.594  0.9355  0.4311  2.4536
   31CHL1   H4B 2227   5.138   5.388   6.553 -3.0953 -2.8693  2.3645
   31CHL1    C5 2228   5.155   5.441   6.771  0.0619  0.1746  0.1317
   31CHL1    C6 2229   5.021   5.460   6.785  0.9133  0.0707 -0.2558
   31CHL1    H6 2230   4.955   5.451   6.697  1.3227  1.7845 -0.7861
   31CHL1    C7 2231   4.955   5.460   6.925 -0.4355 -0.6310  0.2647
   31CHL1   H7A 2232   4.863   5.521   6.938 -0.7764 -1.2777  0.9795
   31CHL1   H7B 2233   4.942   5.351   6.945 -0.3594 -0.6581  0.1652
   31CHL1    C8 2234   5.052   5.518   7.033 -0.5860 -0.3661  0.9479
   31CHL1    H8 2235   5.058   5.626   7.010  1.0664 -0.6411 -0.0126
   31CHL1   C14 2236   5.004   5.510   7.176  0.4223  0.6923 -0.5143
   31CHL1   H14 2237   4.983   5.402   7.189 -1.2781  0.9685 -0.6507
   31CHL1   C15 2238   4.859   5.555   7.197 -0.6533 -0.4308 -0.1620
   31CHL1  H15A 2239   4.859   5.656   7.150  0.0603 -0.3425  0.0076
   31CHL1  H15B 2240   4.778   5.497   7.149 -0.8227  1.1639 -1.9057
   31CHL1   C16 2241   4.847   5.563   7.349  0.4844 -0.4942  0.2801
   31CHL1  H16A 2242   4.810   5.663   7.380  1.0694 -0.6504  1.5588
   31CHL1  H16B 2243   4.778   5.482   7.382 -0.5210  0.7969  1.4963
   31CHL1   C17 2244   4.987   5.555   7.406  0.9706  0.0745 -0.4088
   31CHL1   H17 2245   4.988   5.452   7.449  0.8931  0.0946 -0.3585
   31CHL1   C13 2246   5.085   5.570   7.286  0.7316  0.0697 -0.4914
   31CHL1   C18 2247   5.103   5.723   7.258  0.7798 -0.2719  0.1366
   31CHL1  H18A 2248   5.170   5.777   7.329 -1.5724  1.2689  1.3134
   31CHL1  H18B 2249   5.137   5.754   7.157  3.8244  1.2012  1.4930
   31CHL1  H18C 2250   5.000   5.761   7.272  0.1990 -1.9695  0.6726
   31CHL1   C12 2251   5.220   5.499   7.293  0.2495 -0.3630 -0.1907
   31CHL1  H12A 2252   5.284   5.548   7.368 -1.5815 -1.2161  2.0594
   31CHL1  H12B 2253   5.211   5.396   7.334  1.6926 -0.0685  0.9432
   31CHL1   C11 2254   5.278   5.502   7.147  0.1014 -0.3288  0.2812
   31CHL1  H11A 2255   5.302   5.608   7.127  1.0674 -0.9304 -2.2298
   31CHL1  H11B 2256   5.375   5.447   7.153 -0.3748 -1.7148 -2.5839
   31CHL1    C9 2257   5.186   5.449   7.032  0.3603 -0.2511  0.7934
   31CHL1    H9 2258   5.164   5.345   7.065 -2.1901  0.3645  1.2079
   31CHL1   C10 2259   5.249   5.431   6.893  0.4792 -0.4316  0.2054
   31CHL1   C19 2260   5.343   5.551   6.871  0.3408  0.5732 -0.1750
   31CHL1  H19A 2261   5.312   5.657   6.887  1.6601  0.6367  2.5826
   31CHL1  H19B 2262   5.433   5.530   6.932  0.9875 -0.3117 -1.3954
   31CHL1  H19C 2263   5.383   5.531   6.770  0.1382  0.1422 -0.1729
   31CHL1    C1 2264   5.312   5.291   6.884  0.2190 -0.0166 -0.9549
   31CHL1   H1A 2265   5.389   5.285   6.965 -1.5605  3.6026  1.2470
   31CHL1   H1B 2266   5.228   5.221   6.901  0.7296 -0.5877 -0.7217
   31CHL1    C2 2267   5.376   5.254   6.751 -0.3576  0.0909  0.2018
   31CHL1   H2A 2268   5.410   5.149   6.751 -0.6114  0.0090  0.2996
   31CHL1   H2B 2269   5.460   5.320   6.718 -2.1895  1.5410 -1.8571
   31CHL1   C20 2270   5.003   5.651   7.528 -0.0564 -0.5216 -0.2102
   31CHL1   H20 2271   4.989   5.754   7.488  2.6012 -0.4356 -1.1055
   31CHL1   C21 2272   5.145   5.651   7.593  0.4665  0.5275 -0.0907
   31CHL1  H21A 2273   5.151   5.721   7.679  2.6108 -0.7429  0.8859
   31CHL1  H21B 2274   5.223   5.671   7.516  2.2048 -1.0294  1.1721
   31CHL1  H21C 2275   5.172   5.546   7.618  1.4659  0.2670 -2.0412
   31CHL1   C22 2276   4.896   5.633   7.641 -0.5721 -0.2060  0.3314
   31CHL1  H22A 2277   4.933   5.703   7.719  0.4587  0.4511 -0.7063
   31CHL1  H22B 2278   4.804   5.675   7.594  0.1520  1.4184  0.2944
   31CHL1   C23 2279   4.882   5.493   7.707 -0.8589 -0.0599 -0.5809
   31CHL1  H23A 2280   4.844   5.426   7.628 -1.5568 -1.4193  0.8401
   31CHL1  H23B 2281   4.982   5.460   7.744 -0.2168  1.5045 -0.8514
   31CHL1   C24 2282   4.781   5.502   7.822 -0.5745  0.8994 -0.5265
   31CHL1  H24A 2283   4.824   5.553   7.911 -0.1393 -0.4828  0.0865
   31CHL1  H24B 2284   4.677   5.530   7.795 -0.5526  1.5137  0.0017
   31CHL1   C25 2285   4.752   5.359   7.880 -0.0270 -0.6866  0.0731
   31CHL1   H25 2286   4.849   5.313   7.911  0.0333 -1.0825 -0.6990
   31CHL1   C26 2287   4.670   5.374   8.007 -0.5415 -0.6946  1.1028
   31CHL1  H26A 2288   4.724   5.424   8.090  0.9026 -1.4816  0.6752
   31CHL1  H26B 2289   4.577   5.430   7.982  1.6092  2.5820 -0.1791
   31CHL1  H26C 2290   4.643   5.271   8.039  0.7754 -0.7380  2.1686
   31CHL1   C27 2291   4.677   5.270   7.778  0.1588 -0.0005  0.3217
   31CHL1  H27A 2292   4.670   5.166   7.816 -1.3144  0.6796  2.0402
   31CHL1  H27B 2293   4.718   5.264   7.675  1.2407  1.0785  0.6596
   31CHL1  H27C 2294   4.571   5.301   7.767  0.6949  1.4973 -1.0260
   32CHL1    C3 2295   5.789   3.372   6.830  0.3855  0.1189  0.0699
   32CHL1    H3 2296   5.822   3.475   6.802  2.3542 -0.3651  0.4709
   32CHL1    O3 2297   5.811   3.285   6.718 -0.5997 -0.3227  0.0025
   32CHL1   H3' 2298   5.767   3.200   6.733 -1.9216  0.0582 -1.4528
   32CHL1    C4 2299   5.896   3.330   6.932  0.0673 -0.6949  0.5656
   32CHL1   H4A 2300   5.881   3.221   6.944  0.5576 -1.0743 -1.6921
   32CHL1   H4B 2301   5.992   3.345   6.877 -0.4807 -1.1561 -0.5461
   32CHL1    C5 2302   5.892   3.401   7.067  0.0615  0.0687  0.0368
   32CHL1    C6 2303   6.001   3.467   7.114 -0.4035  0.4066  0.5132
   32CHL1    H6 2304   6.092   3.466   7.052 -0.0469  0.4318  1.0229
   32CHL1    C7 2305   6.002   3.546   7.239  0.0502 -0.8030 -0.4204
   32CHL1   H7A 2306   6.104   3.553   7.282 -0.6234 -0.7299  1.2563
   32CHL1   H7B 2307   5.978   3.650   7.207 -0.3947 -1.0820 -1.0058
   32CHL1    C8 2308   5.886   3.500   7.338  0.4902 -0.3827  0.2535
   32CHL1    H8 2309   5.907   3.395   7.369  0.9903 -0.5650 -0.6311
   32CHL1   C14 2310   5.872   3.598   7.453 -0.6756  0.3091 -0.7590
   32CHL1   H14 2311   5.848   3.694   7.402  1.4437  0.4246 -1.6531
   32CHL1   C15 2312   6.008   3.631   7.517  0.6142  0.1939 -0.2140
   32CHL1  H15A 2313   6.056   3.537   7.553  1.6511  1.0688  0.7886
   32CHL1  H15B 2314   6.085   3.673   7.448 -0.4715  1.9260 -0.4060
   32CHL1   C16 2315   5.960   3.704   7.645  0.6274  0.2817 -0.3515
   32CHL1  H16A 2316   6.015   3.670   7.736  1.3963 -1.8604 -1.5361
   32CHL1  H16B 2317   5.976   3.814   7.652  1.9074  0.1572 -0.9550
   32CHL1   C17 2318   5.810   3.682   7.654 -0.0791  0.0044  0.1339
   32CHL1   H17 2319   5.754   3.773   7.623 -1.3763  0.0587  2.4119
   32CHL1   C13 2320   5.774   3.561   7.560 -0.9337  0.0955 -0.2670
   32CHL1   C18 2321   5.809   3.431   7.635 -0.5203  0.9168  0.1395
   32CHL1  H18A 2322   5.741   3.418   7.721 -1.5953  0.0193 -0.8145
   32CHL1  H18B 2323   5.799   3.337   7.577 -1.5932  0.4803  1.0115
   32CHL1  H18C 2324   5.907   3.431   7.687 -1.3948 -1.3815  1.9519
   32CHL1   C12 2325   5.639   3.556   7.490  0.0016  0.1446 -0.5587
   32CHL1  H12A 2326   5.553   3.526   7.553  0.9713 -1.0076  0.2571
   32CHL1  H12B 2327   5.621   3.660   7.455  0.0198  0.3102 -0.0946
   32CHL1   C11 2328   5.632   3.469   7.364 -0.4838 -0.1464 -0.1893
   32CHL1  H11A 2329   5.635   3.361   7.390 -0.4153 -0.5628 -1.8520
   32CHL1  H11B 2330   5.545   3.499   7.302  0.5605  3.0622 -0.3050
   32CHL1    C9 2331   5.751   3.497   7.263 -0.1812  0.2029  0.5222
   32CHL1    H9 2332   5.739   3.602   7.227  1.1984  0.8761  1.8947
   32CHL1   C10 2333   5.760   3.397   7.140  0.2878 -0.3676 -0.2581
   32CHL1   C19 2334   5.713   3.258   7.181 -0.6179 -1.2886 -0.2436
   32CHL1  H19A 2335   5.734   3.182   7.103 -1.0483 -0.4091 -1.2436
   32CHL1  H19B 2336   5.771   3.219   7.268 -1.0999 -1.5835 -0.0481
   32CHL1  H19C 2337   5.604   3.258   7.202 -0.1029 -0.6051  2.9193
   32CHL1    C1 2338   5.664   3.445   7.035  0.7874 -0.6376  0.2826
   32CHL1   H1A 2339   5.557   3.449   7.065  0.3666  1.1600 -1.2689
   32CHL1   H1B 2340   5.680   3.550   7.005 -1.5088 -0.5669 -0.9881
   32CHL1    C2 2341   5.650   3.366   6.904  1.0176 -0.1809 -0.8342
   32CHL1   H2A 2342   5.564   3.396   6.840 -0.7350 -0.9911  1.0037
   32CHL1   H2B 2343   5.633   3.258   6.926 -1.0093  0.4106  0.7774
   32CHL1   C20 2344   5.772   3.676   7.806  0.3047  0.7362 -0.6871
   32CHL1   H20 2345   5.811   3.585   7.857 -2.7492 -0.3846 -0.1392
   32CHL1   C21 2346   5.618   3.654   7.810 -0.2762 -0.8390 -0.6861
   32CHL1  H21A 2347   5.592   3.638   7.917  0.1289 -1.0666 -0.6174
   32CHL1  H21B 2348   5.581   3.579   7.737  0.1405 -0.7505 -0.9947
   32CHL1  H21C 2349   5.583   3.756   7.785  0.7077 -0.4743 -0.6127
   32CHL1   C22 2350   5.825   3.801   7.887  0.4076  0.6460 -0.6713
   32CHL1  H22A 2351   5.932   3.782   7.910  0.5884  1.1652 -1.0476
   32CHL1  H22B 2352   5.819   3.888   7.818  1.2201  0.1014 -1.4442
   32CHL1   C23 2353   5.754   3.811   8.029  0.3009 -0.3482  0.4560
   32CHL1  H23A 2354   5.651   3.852   8.025  0.5734  0.3611  0.4878
   32CHL1  H23B 2355   5.750   3.712   8.078 -0.6576 -1.0971 -1.0826
   32CHL1   C24 2356   5.836   3.896   8.131  0.3833  0.0120 -0.0877
   32CHL1  H24A 2357   5.929   3.834   8.132  0.7269  0.4985  1.6106
   32CHL1  H24B 2358   5.862   3.996   8.091  1.9133 -0.8427 -1.3586
   32CHL1   C25 2359   5.775   3.905   8.276 -0.3548  0.8325 -0.0088
   32CHL1   H25 2360   5.761   3.798   8.305 -0.5266  0.6147 -0.8560
   32CHL1   C26 2361   5.878   3.972   8.363  0.3658 -0.5865  0.2329
   32CHL1  H26A 2362   5.880   4.079   8.333  0.9773  0.1743  2.7887
   32CHL1  H26B 2363   5.856   3.974   8.472  0.1038 -0.9282  0.1876
   32CHL1  H26C 2364   5.981   3.933   8.342  0.3231 -1.3030  1.2880
   32CHL1   C27 2365   5.646   3.982   8.281  0.4997  0.8395 -0.7697
   32CHL1  H27A 2366   5.653   4.086   8.243  0.8323  1.5249  1.0728
   32CHL1  H27B 2367   5.576   3.929   8.213  0.2800  3.1726 -2.4953
   32CHL1  H27C 2368   5.596   3.976   8.380 -0.6746 -0.8909 -1.4165
   33CHL1    C3 2369   0.566   3.545   6.853 -0.1772  0.2532  0.3587
   33CHL1    H3 2370   0.507   3.463   6.899  2.4029 -2.9630 -1.6115
   33CHL1    O3 2371   0.537   3.514   6.711 -0.5586 -0.7025 -0.7038
   33CHL1   H3' 2372   0.569   3.423   6.708 -1.8667 -1.1742 -3.0524
   33CHL1    C4 2373   0.523   3.691   6.903  0.0606 -0.3132  0.3706
   33CHL1   H4A 2374   0.563   3.767   6.833 -0.9318 -1.2343 -1.2341
   33CHL1   H4B 2375   0.415   3.708   6.886  0.2344 -0.7755 -1.3853
   33CHL1    C5 2376   0.563   3.700   7.053  0.5347 -0.0301 -0.0321
   33CHL1    C6 2377   0.464   3.711   7.139 -0.0773  0.1724 -0.2141
   33CHL1    H6 2378   0.359   3.725   7.108 -1.1208 -0.1598  2.8497
   33CHL1    C7 2379   0.472   3.721   7.290  0.2700  0.2180 -0.4607
   33CHL1   H7A 2380   0.389   3.785   7.328 -1.1758 -0.3196 -2.5734
   33CHL1   H7B 2381   0.451   3.624   7.340 -1.8128  0.5477 -0.6082
   33CHL1    C8 2382   0.618   3.750   7.334 -0.7680  0.1657 -0.5467
   33CHL1    H8 2383   0.635   3.859   7.321  0.2186 -0.0397 -1.1355
   33CHL1   C14 2384   0.637   3.712   7.484 -0.2392 -0.1344 -0.1275
   33CHL1   H14 2385   0.623   3.602   7.486  0.6451 -0.2688  2.4825
   33CHL1   C15 2386   0.537   3.761   7.591 -0.1355  0.1308  0.4075
   33CHL1  H15A 2387   0.536   3.872   7.592 -1.3262  0.1245  1.1600
   33CHL1  H15B 2388   0.431   3.730   7.583 -0.3653  0.5993  1.5542
   33CHL1   C16 2389   0.609   3.727   7.724 -0.6561  0.9097  0.1115
   33CHL1  H16A 2390   0.598   3.810   7.797  0.9769  0.5338  0.8433
   33CHL1  H16B 2391   0.552   3.639   7.762  0.0417  0.4392  0.0842
   33CHL1   C17 2392   0.756   3.684   7.685 -0.2551 -0.5501  0.1010
   33CHL1   H17 2393   0.744   3.574   7.681  0.2958 -0.6914  1.7403
   33CHL1   C13 2394   0.774   3.733   7.543  0.1497  0.3028  0.1895
   33CHL1   C18 2395   0.810   3.880   7.542  0.7740 -0.0227 -0.9797
   33CHL1  H18A 2396   0.793   3.926   7.443 -1.4849 -3.2228 -2.2308
   33CHL1  H18B 2397   0.742   3.941   7.605 -1.4766 -0.4565 -2.8549
   33CHL1  H18C 2398   0.917   3.895   7.569  0.8967 -1.4534 -0.5757
   33CHL1   C12 2399   0.884   3.669   7.452 -0.3100  0.3042 -0.3428
   33CHL1  H12A 2400   0.981   3.709   7.489 -1.5494  1.1244  2.3633
   33CHL1  H12B 2401   0.879   3.559   7.469  0.0661  0.1720 -1.0648
   33CHL1   C11 2402   0.865   3.692   7.304  0.0282  0.3408  1.0354
   33CHL1  H11A 2403   0.883   3.800   7.282 -2.5692  0.9202  1.3956
   33CHL1  H11B 2404   0.935   3.622   7.253  1.1586  1.1888  1.3761
   33CHL1    C9 2405   0.724   3.669   7.253  0.5097  0.6962  0.0213
   33CHL1    H9 2406   0.697   3.565   7.283 -2.7991  1.6009  0.5316
   33CHL1   C10 2407   0.707   3.680   7.097 -0.2332 -0.2887  0.4913
   33CHL1   C19 2408   0.784   3.808   7.044 -0.6761 -0.0382  0.4268
   33CHL1  H19A 2409   0.749   3.895   7.103  0.0478  0.9757 -0.6102
   33CHL1  H19B 2410   0.893   3.790   7.061 -0.1897  0.3947 -1.8255
   33CHL1  H19C 2411   0.772   3.836   6.937  0.7612 -1.0317 -0.0412
   33CHL1    C1 2412   0.762   3.545   7.027  0.3256  0.1139  0.3535
   33CHL1   H1A 2413   0.872   3.540   7.039  0.2286  0.1707  1.3218
   33CHL1   H1B 2414   0.731   3.460   7.091 -1.0104  0.5099  0.2703
   33CHL1    C2 2415   0.717   3.529   6.881 -0.4201 -0.2006 -0.4860
   33CHL1   H2A 2416   0.757   3.435   6.837 -0.5146  0.3875 -1.8874
   33CHL1   H2B 2417   0.768   3.610   6.824  2.4660 -0.2737  1.7407
   33CHL1   C20 2418   0.866   3.714   7.788 -0.5405  0.4316 -0.4348
   33CHL1   H20 2419   0.952   3.760   7.734  0.5619 -0.7384  0.2803
   33CHL1   C21 2420   0.914   3.577   7.837 -0.0501  0.1227  0.4840
   33CHL1  H21A 2421   0.944   3.521   7.745 -0.7229  0.6119 -0.0432
   33CHL1  H21B 2422   0.824   3.531   7.882  0.3393 -0.0291  1.1234
   33CHL1  H21C 2423   0.997   3.586   7.910  0.2677 -0.9258  0.2723
   33CHL1   C22 2424   0.822   3.812   7.907 -0.4298  0.6032  0.2081
   33CHL1  H22A 2425   0.792   3.909   7.863 -1.3381 -0.2769 -1.1943
   33CHL1  H22B 2426   0.737   3.764   7.960 -1.1796  2.1567  0.4529
   33CHL1   C23 2427   0.934   3.843   8.010  1.1886 -0.5463  0.5987
   33CHL1  H23A 2428   0.991   3.763   8.061  2.2422 -0.5338 -0.5255
   33CHL1  H23B 2429   1.014   3.900   7.958  1.5278  0.4127  2.1136
   33CHL1   C24 2430   0.884   3.939   8.116 -0.1834  0.8887  0.1841
   33CHL1  H24A 2431   0.823   4.011   8.058  1.3499  0.6885 -1.7778
   33CHL1  H24B 2432   0.821   3.886   8.191 -0.1741  2.1985  1.1349
   33CHL1   C25 2433   0.992   4.021   8.185 -0.2211 -0.1969  0.4100
   33CHL1   H25 2434   1.027   4.087   8.103 -2.0763  1.7458  1.0910
   33CHL1   C26 2435   0.923   4.113   8.286 -0.5832  0.4421  0.6074
   33CHL1  H26A 2436   0.881   4.059   8.373 -0.4698  0.4852  0.6879
   33CHL1  H26B 2437   0.994   4.188   8.326  0.3907 -0.3809  0.4777
   33CHL1  H26C 2438   0.843   4.172   8.236 -0.4504  0.5498  0.5200
   33CHL1   C27 2439   1.113   3.945   8.250 -0.1040  0.5975 -0.2376
   33CHL1  H27A 2440   1.177   3.903   8.169  1.2709  0.7991  0.7206
   33CHL1  H27B 2441   1.177   4.013   8.310 -0.3489  0.3555  0.3011
   33CHL1  H27C 2442   1.079   3.856   8.308 -0.4722  0.0340 -1.2901
   34CHL1    C3 2443   1.398   2.837   7.083 -0.7698 -0.2461 -0.4907
   34CHL1    H3 2444   1.390   2.936   7.133  0.7060 -0.8519  1.0430
   34CHL1    O3 2445   1.414   2.859   6.944 -0.4112  0.0305  0.4151
   34CHL1   H3' 2446   1.356   2.790   6.910 -2.1286  1.5764  0.0634
   34CHL1    C4 2447   1.531   2.783   7.145  0.2238 -0.0752  0.1571
   34CHL1   H4A 2448   1.549   2.683   7.099  0.6674  0.0015  0.1576
   34CHL1   H4B 2449   1.622   2.841   7.117  0.8448 -0.5106  1.2056
   34CHL1    C5 2450   1.518   2.753   7.297 -0.3202  0.0819  0.0412
   34CHL1    C6 2451   1.611   2.805   7.384 -0.4675 -0.1281  0.2233
   34CHL1    H6 2452   1.696   2.861   7.341 -1.1226 -0.4185 -1.5265
   34CHL1    C7 2453   1.603   2.777   7.534  0.1565 -0.5066 -0.2029
   34CHL1   H7A 2454   1.700   2.743   7.575  2.0293  1.5124 -2.6876
   34CHL1   H7B 2455   1.588   2.872   7.589  0.4445 -2.2390  3.0929
   34CHL1    C8 2456   1.489   2.682   7.584 -1.2442 -0.1899  0.6747
   34CHL1    H8 2457   1.531   2.579   7.588 -1.5849 -0.3285  0.6862
   34CHL1   C14 2458   1.443   2.715   7.722  0.0739  0.0341  0.3461
   34CHL1   H14 2459   1.400   2.816   7.708  0.5633  0.0606 -1.1369
   34CHL1   C15 2460   1.552   2.733   7.827 -0.6819 -0.5460  0.0258
   34CHL1  H15A 2461   1.631   2.654   7.831 -0.3373 -0.2636 -0.8547
   34CHL1  H15B 2462   1.605   2.830   7.817 -1.0196 -0.4863 -1.3295
   34CHL1   C16 2463   1.464   2.739   7.953 -0.7731  0.6759 -0.0855
   34CHL1  H16A 2464   1.496   2.654   8.017  1.4738  0.5445 -1.2670
   34CHL1  H16B 2465   1.462   2.833   8.012  0.1190  0.6683 -0.0202
   34CHL1   C17 2466   1.317   2.701   7.916 -0.1587 -0.2198  0.2897
   34CHL1   H17 2467   1.262   2.796   7.898  0.6659  0.3815  0.9075
   34CHL1   C13 2468   1.332   2.624   7.783  0.5461  1.0958 -0.0030
   34CHL1   C18 2469   1.384   2.478   7.811 -0.0982 -0.0659  0.1123
   34CHL1  H18A 2470   1.452   2.437   7.733  0.4988  0.6133  0.2624
   34CHL1  H18B 2471   1.454   2.488   7.897 -1.0987  2.3587  0.7245
   34CHL1  H18C 2472   1.306   2.406   7.844 -2.0834  0.9252 -2.0955
   34CHL1   C12 2473   1.215   2.614   7.689  0.2033  1.1448 -0.2625
   34CHL1  H12A 2474   1.138   2.539   7.721  2.6649 -1.9106 -0.9848
   34CHL1  H12B 2475   1.177   2.718   7.688 -2.4100  0.2753 -0.1887
   34CHL1   C11 2476   1.258   2.576   7.550 -0.0019  0.3743 -0.3412
   34CHL1  H11A 2477   1.288   2.469   7.546 -3.1874 -0.6597  0.2953
   34CHL1  H11B 2478   1.164   2.567   7.492 -0.3407 -0.0997  0.2609
   34CHL1    C9 2479   1.363   2.669   7.490 -0.4263 -0.5399  0.3136
   34CHL1    H9 2480   1.312   2.766   7.505  0.4703 -0.2034  1.2652
   34CHL1   C10 2481   1.395   2.670   7.339  0.0553  0.6179 -0.1285
   34CHL1   C19 2482   1.431   2.517   7.311 -0.4395  0.4875  0.0351
   34CHL1  H19A 2483   1.509   2.487   7.384  0.0445 -0.4323 -0.8342
   34CHL1  H19B 2484   1.340   2.458   7.337 -1.8794  2.6161  0.0866
   34CHL1  H19C 2485   1.463   2.496   7.207 -1.2553  1.1612 -0.3618
   34CHL1    C1 2486   1.269   2.727   7.268 -0.3847 -0.1687 -0.1615
   34CHL1   H1A 2487   1.187   2.655   7.287 -0.3421  0.1773  1.4900
   34CHL1   H1B 2488   1.253   2.826   7.317 -1.6450 -1.6466  2.6159
   34CHL1    C2 2489   1.285   2.744   7.114  0.9572  0.0444 -0.2576
   34CHL1   H2A 2490   1.192   2.784   7.069 -0.4616 -2.4723  0.2105
   34CHL1   H2B 2491   1.299   2.644   7.067 -1.3163  0.4451 -1.9122
   34CHL1   C20 2492   1.240   2.637   8.031 -0.5522  0.4316  0.6437
   34CHL1   H20 2493   1.278   2.535   8.055 -0.4522 -0.4226 -2.7262
   34CHL1   C21 2494   1.094   2.614   8.002  0.6446 -0.2295  0.4943
   34CHL1  H21A 2495   1.027   2.616   8.091  2.3468  0.1819  1.8015
   34CHL1  H21B 2496   1.089   2.511   7.960 -1.2840 -0.0889  0.2728
   34CHL1  H21C 2497   1.056   2.681   7.922  1.8387 -0.4786 -0.2943
   34CHL1   C22 2498   1.254   2.716   8.161 -0.5718  0.0667 -0.3004
   34CHL1  H22A 2499   1.362   2.726   8.187 -0.7887 -0.3231  0.8286
   34CHL1  H22B 2500   1.231   2.822   8.136  1.0443  0.2629 -1.0736
   34CHL1   C23 2501   1.193   2.662   8.298  0.2110 -0.4246 -0.0456
   34CHL1  H23A 2502   1.089   2.701   8.306  0.1572 -0.7951  1.5311
   34CHL1  H23B 2503   1.203   2.551   8.299 -1.9546 -0.7589  3.5643
   34CHL1   C24 2504   1.277   2.704   8.417  0.1009  0.3667 -1.0592
   34CHL1  H24A 2505   1.374   2.649   8.419 -0.1263 -0.0947  1.9594
   34CHL1  H24B 2506   1.288   2.814   8.407  1.1638  0.5052  1.0788
   34CHL1   C25 2507   1.213   2.668   8.551 -0.0830 -0.1091  0.0307
   34CHL1   H25 2508   1.280   2.702   8.632  0.0198 -0.2526  0.0069
   34CHL1   C26 2509   1.071   2.738   8.559 -0.0640 -0.3947 -0.0212
   34CHL1  H26A 2510   1.024   2.707   8.655 -0.5232 -3.5568 -1.1533
   34CHL1  H26B 2511   1.091   2.847   8.565 -1.5378 -0.1016 -0.1045
   34CHL1  H26C 2512   1.005   2.693   8.482  1.1378 -2.5992  0.1415
   34CHL1   C27 2513   1.199   2.514   8.568 -0.3979 -0.7139  0.0053
   34CHL1  H27A 2514   1.153   2.486   8.665  0.1864  0.2673  0.5939
   34CHL1  H27B 2515   1.134   2.483   8.484 -0.7407  1.5819 -0.6423
   34CHL1  H27C 2516   1.301   2.472   8.555 -0.3285 -0.2840 -0.8934
   35CHL1    C3 2517   4.713   3.682   7.021  0.3965  0.8854 -0.4198
   35CHL1    H3 2518   4.623   3.689   7.086 -0.4282  1.4215 -1.5698
   35CHL1    O3 2519   4.667   3.672   6.886  0.1522 -0.5194 -0.7337
   35CHL1   H3' 2520   4.745   3.671   6.830 -0.5766 -1.3565 -1.7744
   35CHL1    C4 2521   4.799   3.814   7.037  0.2518  0.1530 -0.1929
   35CHL1   H4A 2522   4.885   3.810   6.966 -0.1818  0.3460 -0.7409
   35CHL1   H4B 2523   4.739   3.906   7.016 -0.6700 -0.0388  1.4778
   35CHL1    C5 2524   4.853   3.816   7.180  0.6643 -0.1104 -0.2777
   35CHL1    C6 2525   4.839   3.917   7.259  0.7025  0.1970 -0.0259
   35CHL1    H6 2526   4.788   4.007   7.222  2.0084  1.1061  0.2893
   35CHL1    C7 2527   4.897   3.935   7.393 -0.3704  0.2194  0.7710
   35CHL1   H7A 2528   4.937   4.037   7.409 -2.3673  1.3057 -0.6485
   35CHL1   H7B 2529   4.813   3.930   7.466 -0.7157 -0.6937  0.3256
   35CHL1    C8 2530   5.002   3.827   7.429 -0.1583 -0.3767  0.6052
   35CHL1    H8 2531   5.094   3.847   7.370 -0.6108  1.1494  0.3946
   35CHL1   C14 2532   5.025   3.830   7.580  0.1169 -1.0448 -0.4899
   35CHL1   H14 2533   4.925   3.816   7.627  0.6650 -0.2717  0.9647
   35CHL1   C15 2534   5.075   3.955   7.647 -0.2465 -0.3686 -0.1106
   35CHL1  H15A 2535   5.166   3.998   7.601 -0.6252  0.8544  0.2515
   35CHL1  H15B 2536   5.004   4.040   7.654 -1.5155 -1.3402 -0.7034
   35CHL1   C16 2537   5.110   3.903   7.786 -0.2591 -0.3762 -0.2078
   35CHL1  H16A 2538   5.206   3.953   7.812 -0.4597  0.6762 -1.3729
   35CHL1  H16B 2539   5.039   3.936   7.865  0.5806 -2.4680  1.5115
   35CHL1   C17 2540   5.110   3.753   7.789  0.1225 -0.5876  0.1297
   35CHL1   H17 2541   5.009   3.721   7.823 -0.4778 -0.8943 -1.8304
   35CHL1   C13 2542   5.116   3.717   7.638  0.6403 -0.3293 -0.7807
   35CHL1   C18 2543   5.262   3.736   7.582 -0.5056  0.0728 -0.8204
   35CHL1  H18A 2544   5.321   3.810   7.640  1.0177 -0.6756 -1.3578
   35CHL1  H18B 2545   5.317   3.645   7.613 -0.3579  0.7285  0.9266
   35CHL1  H18C 2546   5.271   3.760   7.474  1.9145  1.7939 -0.3266
   35CHL1   C12 2547   5.051   3.587   7.597  0.2313  0.5984  0.7588
   35CHL1  H12A 2548   5.115   3.503   7.632 -0.0820 -0.5803 -1.3225
   35CHL1  H12B 2549   4.954   3.569   7.648  1.0090 -0.7307  1.8779
   35CHL1   C11 2550   5.042   3.577   7.438  0.0018  1.4613 -0.2535
   35CHL1  H11A 2551   5.147   3.583   7.402  0.2831 -1.6786 -0.1784
   35CHL1  H11B 2552   5.001   3.480   7.404 -1.6934  1.7585  0.7865
   35CHL1    C9 2553   4.955   3.693   7.383  0.6435  1.0235 -0.1268
   35CHL1    H9 2554   4.861   3.667   7.437  0.6201 -0.6503 -0.8880
   35CHL1   C10 2555   4.925   3.688   7.227  0.2597 -0.6206 -0.3974
   35CHL1   C19 2556   5.060   3.673   7.165 -0.2497 -0.2302  0.6269
   35CHL1  H19A 2557   5.112   3.579   7.193  1.0279  0.7715  1.7952
   35CHL1  H19B 2558   5.051   3.672   7.054 -1.4883 -0.5499  0.7171
   35CHL1  H19C 2559   5.136   3.748   7.196  1.2732 -0.9871 -1.1029
   35CHL1    C1 2560   4.845   3.554   7.189 -0.3270 -0.3592  0.2122
   35CHL1   H1A 2561   4.924   3.478   7.206 -0.4881 -0.1662  2.0431
   35CHL1   H1B 2562   4.764   3.531   7.261  0.2685 -0.0706  0.9874
   35CHL1    C2 2563   4.798   3.559   7.043  0.4282  0.4859 -0.3937
   35CHL1   H2A 2564   4.746   3.462   7.030 -1.3135  1.3396 -0.0715
   35CHL1   H2B 2565   4.889   3.559   6.979  0.2575 -0.2510 -0.6448
   35CHL1   C20 2566   5.209   3.702   7.892 -0.4159 -0.1400 -0.3315
   35CHL1   H20 2567   5.310   3.715   7.848 -0.6422  0.5353 -0.6653
   35CHL1   C21 2568   5.206   3.548   7.902 -0.9450 -0.1062 -0.8307
   35CHL1  H21A 2569   5.284   3.506   7.834 -1.7803 -1.6381 -0.8892
   35CHL1  H21B 2570   5.110   3.494   7.887 -1.9412  0.6760  2.1420
   35CHL1  H21C 2571   5.250   3.520   8.000 -0.0952  0.5052 -1.0264
   35CHL1   C22 2572   5.197   3.763   8.038 -0.2514  0.0093 -0.1937
   35CHL1  H22A 2573   5.286   3.728   8.093  0.1880  0.0868 -0.8493
   35CHL1  H22B 2574   5.189   3.874   8.036 -1.0001 -0.0053  0.7640
   35CHL1   C23 2575   5.072   3.712   8.117  0.2371  0.0979 -1.0134
   35CHL1  H23A 2576   4.984   3.758   8.069 -0.7515  1.0018  1.4796
   35CHL1  H23B 2577   5.056   3.604   8.096 -0.7467 -0.4983  2.2409
   35CHL1   C24 2578   5.071   3.766   8.261  1.2962 -0.0362  0.1984
   35CHL1  H24A 2579   5.087   3.876   8.263 -0.4561  0.2875  2.7844
   35CHL1  H24B 2580   4.970   3.755   8.306  2.0682 -0.7154  1.8684
   35CHL1   C25 2581   5.163   3.700   8.356 -1.3750  0.2030 -0.1566
   35CHL1   H25 2582   5.265   3.721   8.316  0.0010 -1.3741  2.2287
   35CHL1   C26 2583   5.153   3.765   8.492  0.2734 -0.1862  0.2801
   35CHL1  H26A 2584   5.071   3.713   8.546 -1.9663  1.4925 -1.3143
   35CHL1  H26B 2585   5.248   3.734   8.541  0.1998 -0.3276  0.3320
   35CHL1  H26C 2586   5.131   3.874   8.505 -0.4209 -0.3185  0.2649
   35CHL1   C27 2587   5.133   3.548   8.366 -0.0929 -0.2538 -0.7217
   35CHL1  H27A 2588   5.027   3.534   8.398 -0.0480 -0.5403 -0.6980
   35CHL1  H27B 2589   5.197   3.493   8.439 -2.6789 -1.7908  0.5288
   35CHL1  H27C 2590   5.134   3.486   8.274  0.9637 -1.1934 -0.0995
   36CHL1    C3 2591   4.830   2.518   6.930  0.0621  0.3398  0.0429
   36CHL1    H3 2592   4.777   2.612   6.958 -1.3929 -1.1579  2.6940
   36CHL1    O3 2593   4.855   2.505   6.792 -0.8551 -0.0815  0.0323
   36CHL1   H3' 2594   4.913   2.431   6.773 -1.0562  0.0753 -1.3050
   36CHL1    C4 2595   4.965   2.505   7.006  0.1559 -0.4865  0.5011
   36CHL1   H4A 2596   5.000   2.400   7.002  3.0135  0.4128 -0.4045
   36CHL1   H4B 2597   5.034   2.563   6.942  2.9523 -2.4219  1.5608
   36CHL1    C5 2598   4.953   2.534   7.155  0.0472  0.1901  0.5240
   36CHL1    C6 2599   5.020   2.632   7.216 -0.3774  0.5201 -0.3695
   36CHL1    H6 2600   5.086   2.686   7.146 -0.1152 -1.4017 -1.6964
   36CHL1    C7 2601   5.025   2.649   7.365  0.0886 -0.0407 -0.3651
   36CHL1   H7A 2602   5.125   2.636   7.411 -2.0341 -0.4147  4.7949
   36CHL1   H7B 2603   4.985   2.750   7.390  1.5115  0.1553  1.2625
   36CHL1    C8 2604   4.948   2.531   7.438  0.2198  0.0429  0.4984
   36CHL1    H8 2605   5.015   2.443   7.447  0.1015 -0.2284 -1.0457
   36CHL1   C14 2606   4.915   2.582   7.575  0.2873 -0.1750 -0.2868
   36CHL1   H14 2607   4.841   2.665   7.581  0.9667  0.4411 -0.2001
   36CHL1   C15 2608   5.034   2.650   7.654 -0.1307  0.0653  0.7743
   36CHL1  H15A 2609   5.117   2.577   7.664 -0.8900 -0.9400 -0.0125
   36CHL1  H15B 2610   5.063   2.748   7.610 -1.5292  0.5228  0.8339
   36CHL1   C16 2611   4.972   2.658   7.797  0.2539  0.0032  0.6179
   36CHL1  H16A 2612   5.052   2.627   7.867  0.6902  0.1405  0.1872
   36CHL1  H16B 2613   4.951   2.766   7.816  1.2617  1.0880 -3.3879
   36CHL1   C17 2614   4.849   2.571   7.796 -0.6903 -0.3399  0.7928
   36CHL1   H17 2615   4.756   2.630   7.780 -0.3806 -0.6576 -3.4544
   36CHL1   C13 2616   4.854   2.477   7.670 -0.0339  0.5276 -0.0269
   36CHL1   C18 2617   4.943   2.362   7.696  0.0503 -0.2615  0.5290
   36CHL1  H18A 2618   4.960   2.302   7.604 -0.7156  0.8139 -0.3359
   36CHL1  H18B 2619   5.038   2.403   7.738 -0.8819 -0.6564  3.2215
   36CHL1  H18C 2620   4.908   2.292   7.774  0.8610 -0.9266  0.3235
   36CHL1   C12 2621   4.717   2.431   7.607  0.4503  0.1875 -0.3729
   36CHL1  H12A 2622   4.678   2.344   7.665 -0.6604  1.1944  0.4312
   36CHL1  H12B 2623   4.650   2.519   7.599  1.4643  0.9949 -0.2097
   36CHL1   C11 2624   4.732   2.383   7.460  0.3761  0.2585 -0.1771
   36CHL1  H11A 2625   4.789   2.288   7.472 -0.4536 -0.7044 -3.0022
   36CHL1  H11B 2626   4.633   2.359   7.417 -0.0713  2.6986 -0.6325
   36CHL1    C9 2627   4.818   2.481   7.369 -0.4389  0.4868 -0.0317
   36CHL1    H9 2628   4.751   2.569   7.356 -0.2332  0.5123 -0.9691
   36CHL1   C10 2629   4.850   2.429   7.223  0.4672  0.0040  0.3193
   36CHL1   C19 2630   4.904   2.290   7.225 -0.1175  0.2471 -0.3658
   36CHL1  H19A 2631   4.977   2.287   7.308 -1.3242  2.6506  0.9046
   36CHL1  H19B 2632   4.827   2.214   7.251  1.2704 -0.8580  0.6835
   36CHL1  H19C 2633   4.938   2.254   7.126  2.6064 -3.2763  1.6298
   36CHL1    C1 2634   4.720   2.426   7.140  0.3830 -0.3645  0.0095
   36CHL1   H1A 2635   4.649   2.353   7.183 -1.3501  1.7394  0.8898
   36CHL1   H1B 2636   4.665   2.521   7.158  1.5581  0.5916 -1.2141
   36CHL1    C2 2637   4.733   2.408   6.987 -0.2339  0.3125 -0.2954
   36CHL1   H2A 2638   4.639   2.431   6.932 -1.2091 -0.0002  1.1794
   36CHL1   H2B 2639   4.762   2.304   6.961 -0.5993  0.8664 -3.2393
   36CHL1   C20 2640   4.824   2.508   7.940  0.0792 -0.4498  0.3323
   36CHL1   H20 2641   4.905   2.433   7.955  2.0581  1.1131 -1.9294
   36CHL1   C21 2642   4.690   2.431   7.936  0.6552  0.5786  0.6426
   36CHL1  H21A 2643   4.654   2.391   8.033  1.8181 -0.1586  0.7938
   36CHL1  H21B 2644   4.715   2.345   7.871  0.0438 -0.1305  1.3239
   36CHL1  H21C 2645   4.613   2.496   7.890  0.9605  0.1631 -0.4941
   36CHL1   C22 2646   4.822   2.613   8.055 -0.0385  0.2662 -0.3775
   36CHL1  H22A 2647   4.917   2.671   8.059  1.2140 -1.5748 -1.8375
   36CHL1  H22B 2648   4.731   2.676   8.041 -1.6202 -0.2182  5.3352
   36CHL1   C23 2649   4.819   2.545   8.193 -0.0270 -0.3070 -0.2879
   36CHL1  H23A 2650   4.718   2.502   8.211  0.6212 -2.3920 -1.2796
   36CHL1  H23B 2651   4.892   2.464   8.213  1.2766  0.8233 -0.3321
   36CHL1   C24 2652   4.861   2.650   8.297 -0.0029  0.6146 -0.5349
   36CHL1  H24A 2653   4.971   2.658   8.286  0.2211 -0.6911  0.5383
   36CHL1  H24B 2654   4.820   2.748   8.264  0.8951  0.8187 -1.0994
   36CHL1   C25 2655   4.836   2.617   8.448 -0.8610 -0.4819  0.8653
   36CHL1   H25 2656   4.909   2.537   8.476 -0.2600 -0.3214 -0.1668
   36CHL1   C26 2657   4.880   2.737   8.527 -0.4072 -0.6177 -0.2477
   36CHL1  H26A 2658   4.906   2.703   8.629 -1.5655  3.4534  1.6148
   36CHL1  H26B 2659   4.966   2.787   8.476  0.5584 -0.8172  1.1411
   36CHL1  H26C 2660   4.795   2.806   8.542  0.4821 -0.1105  3.4966
   36CHL1   C27 2661   4.699   2.570   8.477 -0.4186 -0.3383 -0.3258
   36CHL1  H27A 2662   4.679   2.564   8.586 -1.8056  0.0042 -0.5488
   36CHL1  H27B 2663   4.628   2.646   8.437  2.3221  1.3855 -2.2949
   36CHL1  H27C 2664   4.682   2.474   8.424  3.4815 -0.9411 -0.7615
   37CHL1    C3 2665   1.007   6.429   7.019 -0.0158 -0.0425  0.1933
   37CHL1    H3 2666   1.118   6.422   7.027  0.0709 -1.3510 -1.6309
   37CHL1    O3 2667   0.971   6.412   6.883  0.2867  0.7552  0.2804
   37CHL1   H3' 2668   0.998   6.493   6.839  1.3263  1.0264  1.3536
   37CHL1    C4 2669   0.951   6.314   7.095 -0.0178 -0.5100  0.1835
   37CHL1   H4A 2670   0.841   6.311   7.079 -0.2334  1.4415  1.0134
   37CHL1   H4B 2671   1.000   6.224   7.051  2.7375 -0.4860  2.8838
   37CHL1    C5 2672   0.970   6.327   7.244  0.2091 -0.4009  0.5044
   37CHL1    C6 2673   1.022   6.233   7.323 -0.0797  0.2686 -0.2659
   37CHL1    H6 2674   1.043   6.135   7.277  1.1571  1.6668 -2.9030
   37CHL1    C7 2675   1.049   6.232   7.466  0.0344  0.3503 -0.1469
   37CHL1   H7A 2676   0.996   6.141   7.503 -0.0247 -0.1060 -1.3262
   37CHL1   H7B 2677   1.158   6.215   7.479 -0.3851 -2.8798  0.0448
   37CHL1    C8 2678   0.997   6.364   7.526  0.2040  0.7235  0.5194
   37CHL1    H8 2679   0.891   6.347   7.552  0.6625  0.3061  2.2833
   37CHL1   C14 2680   1.055   6.390   7.660 -0.0867  0.3875  0.1330
   37CHL1   H14 2681   1.163   6.407   7.639  0.0638  0.0514  0.6259
   37CHL1   C15 2682   1.060   6.270   7.753 -0.1766 -0.0728  0.3192
   37CHL1  H15A 2683   0.957   6.240   7.783 -1.6135  2.7700 -1.3921
   37CHL1  H15B 2684   1.118   6.186   7.710 -0.5556  2.1267 -5.2371
   37CHL1   C16 2685   1.107   6.342   7.883 -0.3591 -0.0973 -0.6163
   37CHL1  H16A 2686   1.044   6.313   7.970 -1.6623  2.0331 -0.7949
   37CHL1  H16B 2687   1.214   6.314   7.893 -0.0273  1.9062  3.0720
   37CHL1   C17 2688   1.104   6.502   7.871  0.1014 -0.0984 -0.2499
   37CHL1   H17 2689   1.205   6.534   7.839  0.6849  0.9728  2.4352
   37CHL1   C13 2690   1.016   6.513   7.745 -0.1907 -0.1155 -0.1320
   37CHL1   C18 2691   0.861   6.493   7.795  0.5172 -0.5090  0.2143
   37CHL1  H18A 2692   0.806   6.468   7.702  1.6487  1.9417 -1.2254
   37CHL1  H18B 2693   0.860   6.417   7.876  2.4534 -1.2125 -0.3758
   37CHL1  H18C 2694   0.812   6.586   7.833 -1.4792 -1.6758  0.6468
   37CHL1   C12 2695   1.031   6.635   7.653 -0.1733  0.0985  0.2271
   37CHL1  H12A 2696   1.001   6.729   7.705  1.7524 -0.4330  2.5033
   37CHL1  H12B 2697   1.138   6.631   7.623 -0.5025  0.2185 -1.0004
   37CHL1   C11 2698   0.947   6.619   7.514 -0.6403 -0.6858 -0.5089
   37CHL1  H11A 2699   0.842   6.600   7.544  0.6027 -3.2902  2.8893
   37CHL1  H11B 2700   0.962   6.713   7.458 -2.3119  0.3616  0.7093
   37CHL1    C9 2701   0.997   6.491   7.438 -0.4122  0.1253 -0.4594
   37CHL1    H9 2702   1.107   6.498   7.428 -0.1731  0.4469  1.7495
   37CHL1   C10 2703   0.935   6.465   7.302 -0.0566  0.6612  0.3313
   37CHL1   C19 2704   0.781   6.460   7.312 -0.2542  0.3458 -0.3646
   37CHL1  H19A 2705   0.721   6.438   7.221  1.0059  1.8327 -1.6044
   37CHL1  H19B 2706   0.743   6.391   7.391  1.6775 -2.5851 -1.8209
   37CHL1  H19C 2707   0.748   6.562   7.342 -0.4779  0.9189 -2.4196
   37CHL1    C1 2708   0.985   6.582   7.215  0.1539 -0.1616 -0.1765
   37CHL1   H1A 2709   0.939   6.679   7.243  3.9253  1.5232  0.8533
   37CHL1   H1B 2710   1.094   6.593   7.236 -0.2680  0.7479  1.7819
   37CHL1    C2 2711   0.962   6.562   7.067 -0.1468 -0.0576 -0.2821
   37CHL1   H2A 2712   1.016   6.646   7.017  0.9140 -0.5099  0.0705
   37CHL1   H2B 2713   0.854   6.572   7.042 -0.7848 -2.5526  1.1469
   37CHL1   C20 2714   1.082   6.570   8.003  0.7174 -0.4077 -0.1323
   37CHL1   H20 2715   0.978   6.556   8.039  0.5013 -1.3192 -1.0651
   37CHL1   C21 2716   1.084   6.720   7.974  0.6651 -0.4937  0.1519
   37CHL1  H21A 2717   0.990   6.744   7.921  1.5760 -0.0450 -1.2995
   37CHL1  H21B 2718   1.177   6.758   7.928  0.3336 -0.9791 -0.9480
   37CHL1  H21C 2719   1.071   6.788   8.061  1.5922  0.5337 -0.4932
   37CHL1   C22 2720   1.184   6.534   8.118 -0.0869 -0.6794  0.7600
   37CHL1  H22A 2721   1.159   6.607   8.198 -1.8969 -0.0709 -0.3113
   37CHL1  H22B 2722   1.162   6.429   8.149 -0.3473 -1.1040 -0.7861
   37CHL1   C23 2723   1.336   6.557   8.088 -0.5171 -0.4178 -0.1622
   37CHL1  H23A 2724   1.362   6.475   8.018 -1.8075 -0.9187 -0.0959
   37CHL1  H23B 2725   1.359   6.649   8.030  1.7346  0.4082  1.8614
   37CHL1   C24 2726   1.440   6.557   8.201 -0.1695  0.4147  0.4008
   37CHL1  H24A 2727   1.537   6.569   8.147  1.3112 -2.9815  1.9493
   37CHL1  H24B 2728   1.424   6.646   8.264 -0.9217  0.6774 -0.1554
   37CHL1   C25 2729   1.435   6.431   8.291 -0.0236 -0.0092  0.3852
   37CHL1   H25 2730   1.330   6.399   8.304 -0.0525 -0.0983 -0.0391
   37CHL1   C26 2731   1.499   6.317   8.209 -0.2258 -0.5936  0.1180
   37CHL1  H26A 2732   1.603   6.343   8.180 -1.2104  2.3138 -1.1040
   37CHL1  H26B 2733   1.514   6.216   8.252 -2.1456 -1.0580 -0.1864
   37CHL1  H26C 2734   1.439   6.312   8.115  0.9024 -0.3735 -0.6307
   37CHL1   C27 2735   1.489   6.432   8.427 -0.5497 -0.0655  0.0889
   37CHL1  H27A 2736   1.493   6.326   8.461  1.7393 -0.6851 -1.8454
   37CHL1  H27B 2737   1.596   6.465   8.423 -0.3592 -0.4681  1.3170
   37CHL1  H27C 2738   1.428   6.499   8.491  0.6582 -0.5863  1.8864
   38CHL1    C3 2739   6.578   4.720   6.615  0.7462 -0.2968  0.9023
   38CHL1    H3 2740   6.686   4.705   6.639  1.0675 -2.0905 -1.3630
   38CHL1    O3 2741   6.577   4.688   6.471  1.1282  0.2076 -0.7568
   38CHL1   H3' 2742   6.487   4.702   6.440  0.0200 -2.0407  1.1336
   38CHL1    C4 2743   6.489   4.627   6.701  0.6978 -0.4824 -0.4123
   38CHL1   H4A 2744   6.383   4.628   6.670  0.5055 -2.4883  0.0512
   38CHL1   H4B 2745   6.516   4.520   6.687 -0.9716 -1.0185  0.2213
   38CHL1    C5 2746   6.499   4.655   6.848  0.3823  0.0348  0.5685
   38CHL1    C6 2747   6.531   4.562   6.937  0.2755 -0.9777  0.1676
   38CHL1    H6 2748   6.527   4.457   6.905 -1.0938 -0.9732  0.2305
   38CHL1    C7 2749   6.567   4.584   7.077  0.1798  0.6899 -0.0747
   38CHL1   H7A 2750   6.530   4.496   7.134  0.9088 -0.6926 -1.6634
   38CHL1   H7B 2751   6.676   4.591   7.096  0.6621 -1.2636 -1.7348
   38CHL1    C8 2752   6.509   4.720   7.128  0.2456 -0.3133 -0.1209
   38CHL1    H8 2753   6.398   4.718   7.130  0.2466 -0.3043 -0.0667
   38CHL1   C14 2754   6.558   4.751   7.269 -0.6109  0.0079 -0.2995
   38CHL1   H14 2755   6.667   4.769   7.262 -0.6564 -0.3310 -2.9060
   38CHL1   C15 2756   6.533   4.644   7.381  0.1715  0.0235  0.0188
   38CHL1  H15A 2757   6.429   4.606   7.383 -0.5144  1.7577 -0.5544
   38CHL1  H15B 2758   6.602   4.558   7.369 -1.1849 -1.5714  2.7274
   38CHL1   C16 2759   6.559   4.719   7.513 -1.1372  0.2150 -0.1542
   38CHL1  H16A 2760   6.467   4.723   7.576 -0.0010 -0.6732  1.6314
   38CHL1  H16B 2761   6.641   4.678   7.575 -1.5515  1.6445  1.4050
   38CHL1   C17 2762   6.566   4.871   7.481  0.0107  0.2069  0.5818
   38CHL1   H17 2763   6.676   4.886   7.485  0.0602  0.0419 -0.0575
   38CHL1   C13 2764   6.514   4.886   7.331  0.2490  0.2371 -0.1513
   38CHL1   C18 2765   6.351   4.882   7.328 -0.3027 -0.8640 -0.8001
   38CHL1  H18A 2766   6.318   4.973   7.383  1.0620  1.6290 -3.8263
   38CHL1  H18B 2767   6.301   4.902   7.231 -0.7136  1.3619 -0.1775
   38CHL1  H18C 2768   6.306   4.790   7.373 -0.4480  0.5476  2.1716
   38CHL1   C12 2769   6.557   4.994   7.244  0.2544  0.5499  0.7439
   38CHL1  H12A 2770   6.510   5.092   7.268 -3.5623 -0.9190 -0.1086
   38CHL1  H12B 2771   6.667   5.002   7.262  0.3900 -0.8467  0.6384
   38CHL1   C11 2772   6.513   4.976   7.089  0.1385 -0.0212 -0.5366
   38CHL1  H11A 2773   6.408   5.011   7.099  0.6106  0.9716  1.3148
   38CHL1  H11B 2774   6.565   5.058   7.036  0.0901  0.6050  0.3619
   38CHL1    C9 2775   6.545   4.830   7.032  0.6761  0.1881 -0.0296
   38CHL1    H9 2776   6.655   4.837   7.025  0.4934  1.9172 -2.1472
   38CHL1   C10 2777   6.491   4.807   6.890 -0.4093 -0.9669 -0.7551
   38CHL1   C19 2778   6.339   4.847   6.877 -0.6597  0.3397  0.1519
   38CHL1  H19A 2779   6.286   4.805   6.965  0.7305  1.1083  1.4001
   38CHL1  H19B 2780   6.330   4.958   6.876  2.1571  0.6484 -0.8328
   38CHL1  H19C 2781   6.296   4.808   6.783  0.5621  1.3584 -0.8711
   38CHL1    C1 2782   6.577   4.897   6.792 -0.0944  0.0056  0.2906
   38CHL1   H1A 2783   6.544   5.003   6.805  0.1119 -0.1021  1.9359
   38CHL1   H1B 2784   6.687   4.895   6.809  0.4800 -0.4635 -2.9429
   38CHL1    C2 2785   6.552   4.866   6.638 -0.4379 -0.3292 -0.8474
   38CHL1   H2A 2786   6.615   4.928   6.571 -0.6930 -0.6203 -1.3686
   38CHL1   H2B 2787   6.450   4.898   6.607 -0.9271 -0.9920  0.0266
   38CHL1   C20 2788   6.501   4.963   7.581  0.3932  0.1980 -0.0418
   38CHL1   H20 2789   6.391   4.946   7.587  0.2084  1.0236 -0.8651
   38CHL1   C21 2790   6.522   5.109   7.549 -0.6752  0.0530  0.4556
   38CHL1  H21A 2791   6.621   5.130   7.503 -1.3698  0.1199 -1.0565
   38CHL1  H21B 2792   6.518   5.179   7.635  0.5739 -0.5146  1.0133
   38CHL1  H21C 2793   6.442   5.127   7.474  0.7365  1.0884 -0.8616
   38CHL1   C22 2794   6.561   4.945   7.728  0.0886 -0.3234 -0.0434
   38CHL1  H22A 2795   6.575   4.837   7.748 -1.5366 -0.5122  0.2291
   38CHL1  H22B 2796   6.661   4.992   7.734  1.0634 -2.4724  2.7472
   38CHL1   C23 2797   6.464   5.005   7.838 -0.0139 -0.0579  0.4565
   38CHL1  H23A 2798   6.443   5.114   7.829 -1.0331 -0.2749 -0.0255
   38CHL1  H23B 2799   6.362   4.966   7.817 -1.3451  4.0224 -1.8708
   38CHL1   C24 2800   6.491   4.964   7.980 -0.4483  1.3425 -0.3096
   38CHL1  H24A 2801   6.400   4.994   8.036  0.0889 -0.1885  1.4923
   38CHL1  H24B 2802   6.511   4.855   7.994 -1.5755  1.0470 -0.8102
   38CHL1   C25 2803   6.606   5.038   8.046 -0.3265 -0.0728  0.1251
   38CHL1   H25 2804   6.697   5.033   7.982  1.6244 -0.7593  2.8055
   38CHL1   C26 2805   6.573   5.189   8.074  0.7312 -0.1106 -0.6959
   38CHL1  H26A 2806   6.646   5.222   8.152 -2.2754  1.8052  1.5007
   38CHL1  H26B 2807   6.574   5.259   7.988 -0.6788 -0.7110 -1.2240
   38CHL1  H26C 2808   6.471   5.185   8.118 -0.1633 -1.3467 -2.7613
   38CHL1   C27 2809   6.645   4.967   8.180  0.0723 -0.6454 -0.0350
   38CHL1  H27A 2810   6.561   4.995   8.247 -1.1253 -1.9524 -0.9069
   38CHL1  H27B 2811   6.655   4.856   8.177 -1.1535 -0.7582 -0.5273
   38CHL1  H27C 2812   6.730   5.020   8.227 -0.3342 -1.3700  1.5988
   39CHL1    C3 2813   3.397   5.046   6.911 -0.2047  0.2463 -0.7883
   39CHL1    H3 2814   3.431   4.941   6.908  0.9589  0.5976 -0.3599
   39CHL1    O3 2815   3.360   5.082   6.782  0.2201  0.0602  0.2215
   39CHL1   H3' 2816   3.436   5.060   6.728  1.0194  1.3539  0.7791
   39CHL1    C4 2817   3.277   5.072   7.004  0.0589  0.5920  0.0612
   39CHL1   H4A 2818   3.247   5.178   7.005  1.3454  1.0054  2.5244
   39CHL1   H4B 2819   3.188   5.015   6.970  2.0846 -1.2493 -2.6336
   39CHL1    C5 2820   3.318   5.034   7.143  0.5831  0.6709 -0.2520
   39CHL1    C6 2821   3.259   4.937   7.215  0.0227 -0.3338  0.0326
   39CHL1    H6 2822   3.178   4.879   7.169 -0.7704  1.6322 -1.1552
   39CHL1    C7 2823   3.298   4.889   7.349  0.3488 -0.1905 -0.2687
   39CHL1   H7A 2824   3.207   4.875   7.413 -0.2265  1.2055 -0.7406
   39CHL1   H7B 2825   3.349   4.791   7.355  0.4477 -0.0499  2.3008
   39CHL1    C8 2826   3.385   4.992   7.424  0.3415  0.4189  0.4851
   39CHL1    H8 2827   3.319   5.074   7.460  0.3673  0.2369  0.9495
   39CHL1   C14 2828   3.445   4.927   7.550  0.1804  0.3099 -0.4308
   39CHL1   H14 2829   3.514   4.850   7.508  4.1897  1.7613  2.8702
   39CHL1   C15 2830   3.353   4.852   7.649 -0.2478  0.4712  0.1755
   39CHL1  H15A 2831   3.259   4.906   7.673 -0.5893  1.6781 -3.3380
   39CHL1  H15B 2832   3.332   4.751   7.608 -0.8196  0.4942  0.4042
   39CHL1   C16 2833   3.443   4.842   7.774 -0.4779 -0.5462 -0.6160
   39CHL1  H16A 2834   3.389   4.889   7.859 -0.7691  0.6655 -1.4433
   39CHL1  H16B 2835   3.472   4.740   7.807 -0.6952 -0.2688  0.4379
   39CHL1   C17 2836   3.574   4.921   7.744 -0.4003  0.0281 -0.1980
   39CHL1   H17 2837   3.628   4.842   7.688  0.6054  0.2097  0.4962
   39CHL1   C13 2838   3.538   5.018   7.628  0.3376  0.1827 -0.0697
   39CHL1   C18 2839   3.453   5.140   7.681  0.4887 -0.1408 -0.1072
   39CHL1  H18A 2840   3.365   5.103   7.737  1.1796 -0.8317  0.5540
   39CHL1  H18B 2841   3.513   5.186   7.763 -0.6362  0.3211  0.4729
   39CHL1  H18C 2842   3.436   5.215   7.600  2.7897 -0.2045 -0.7243
   39CHL1   C12 2843   3.648   5.063   7.530  0.3991 -0.1985 -0.2061
   39CHL1  H12A 2844   3.719   5.129   7.583 -0.1713  1.5623 -1.5367
   39CHL1  H12B 2845   3.699   4.969   7.498  0.2604  0.1172 -1.4326
   39CHL1   C11 2846   3.610   5.130   7.395 -0.0731  0.8833 -0.0911
   39CHL1  H11A 2847   3.568   5.230   7.422  1.9382  1.6362  0.4536
   39CHL1  H11B 2848   3.698   5.127   7.328 -0.8032 -1.1652 -1.0301
   39CHL1    C9 2849   3.497   5.043   7.328 -0.7542  0.3723 -0.0266
   39CHL1    H9 2850   3.560   4.957   7.295 -1.1777  0.3115 -0.7070
   39CHL1   C10 2851   3.442   5.114   7.203  1.0085 -0.4215  0.2854
   39CHL1   C19 2852   3.392   5.264   7.230  0.1879  0.2390  0.1086
   39CHL1  H19A 2853   3.482   5.324   7.253  0.5912 -0.8614  1.5710
   39CHL1  H19B 2854   3.348   5.317   7.142  0.7512  1.0500  0.3048
   39CHL1  H19C 2855   3.315   5.254   7.310 -1.0084  1.7767 -0.7844
   39CHL1    C1 2856   3.551   5.111   7.098  0.0988  0.0185  0.1333
   39CHL1   H1A 2857   3.621   5.193   7.125  1.6550 -2.1832  3.3908
   39CHL1   H1B 2858   3.611   5.017   7.099  0.8407  0.4813  1.1981
   39CHL1    C2 2859   3.515   5.129   6.953  0.1139  0.6051  0.5655
   39CHL1   H2A 2860   3.600   5.107   6.885 -0.1508 -0.5703  0.5901
   39CHL1   H2B 2861   3.482   5.233   6.937  0.2439  0.5103 -0.3706
   39CHL1   C20 2862   3.663   4.969   7.864 -0.1083  0.2700  0.0021
   39CHL1   H20 2863   3.737   5.045   7.833 -1.0917  0.4308 -2.1483
   39CHL1   C21 2864   3.741   4.845   7.909  0.9432  0.0895  0.3899
   39CHL1  H21A 2865   3.788   4.797   7.821 -2.5809 -0.9124 -1.1037
   39CHL1  H21B 2866   3.674   4.767   7.949  3.1267 -2.5084 -0.7367
   39CHL1  H21C 2867   3.812   4.860   7.993  0.6989 -1.2362  0.8498
   39CHL1   C22 2868   3.582   5.021   7.980  0.2352  0.2048  0.6629
   39CHL1  H22A 2869   3.502   5.089   7.945  0.1062  0.9921  2.3788
   39CHL1  H22B 2870   3.533   4.940   8.038  0.2478 -0.7635 -0.6278
   39CHL1   C23 2871   3.662   5.112   8.078  0.0042 -0.7196  0.1662
   39CHL1  H23A 2872   3.737   5.049   8.131  1.2154  1.4622  1.2095
   39CHL1  H23B 2873   3.718   5.186   8.017 -0.8586 -0.5183 -0.3928
   39CHL1   C24 2874   3.574   5.188   8.181  0.6310 -0.2127 -0.3087
   39CHL1  H24A 2875   3.595   5.297   8.182  2.3652 -0.5131  0.5770
   39CHL1  H24B 2876   3.468   5.181   8.150  1.0470  1.0662 -2.2079
   39CHL1   C25 2877   3.595   5.134   8.325 -0.1317 -0.0339 -0.9691
   39CHL1   H25 2878   3.696   5.173   8.351 -0.6402  3.3367 -3.3122
   39CHL1   C26 2879   3.496   5.212   8.420 -0.1780 -0.0604  0.3875
   39CHL1  H26A 2880   3.517   5.191   8.527  1.7201 -0.2479  0.0046
   39CHL1  H26B 2881   3.496   5.322   8.401 -0.9602  0.0357  0.9027
   39CHL1  H26C 2882   3.394   5.177   8.395 -0.4268  1.4825 -0.9095
   39CHL1   C27 2883   3.570   4.985   8.339 -0.8402  0.2874  0.4941
   39CHL1  H27A 2884   3.644   4.934   8.274  0.3414  1.3426  0.9871
   39CHL1  H27B 2885   3.580   4.949   8.443  0.5709 -1.2085 -0.1082
   39CHL1  H27C 2886   3.466   4.968   8.302 -0.9845  2.7172 -0.3533
   40CHL1    C3 2887   0.589   3.134   7.022  0.1147  0.6055  0.5159
   40CHL1    H3 2888   0.666   3.205   6.985  0.3916  0.0550  0.0220
   40CHL1    O3 2889   0.511   3.117   6.903  0.0559 -0.1295  0.5622
   40CHL1   H3' 2890   0.459   3.037   6.910 -0.2099 -0.3929 -2.8527
   40CHL1    C4 2891   0.645   2.997   7.068 -0.1317  0.9870 -0.2180
   40CHL1   H4A 2892   0.568   2.919   7.088  0.1000  0.4495 -1.3439
   40CHL1   H4B 2893   0.705   2.955   6.985 -0.0563  1.8505 -0.6095
   40CHL1    C5 2894   0.729   3.009   7.197  0.1798  0.0254 -0.3065
   40CHL1    C6 2895   0.861   2.976   7.196 -0.5962  0.2215  0.3094
   40CHL1    H6 2896   0.904   2.933   7.105  0.1162  1.8976 -0.1866
   40CHL1    C7 2897   0.954   2.995   7.314  0.4417  0.6464 -0.0742
   40CHL1   H7A 2898   1.019   2.906   7.326 -0.5397 -0.1675 -0.5948
   40CHL1   H7B 2899   1.020   3.079   7.285  0.8327 -0.4632 -2.6827
   40CHL1    C8 2900   0.871   3.014   7.444  0.0676 -0.1872 -0.4965
   40CHL1    H8 2901   0.820   2.920   7.474 -0.3167  0.6622  1.7179
   40CHL1   C14 2902   0.958   3.061   7.554 -0.1706  0.3602  0.0647
   40CHL1   H14 2903   0.989   3.164   7.527  1.8623 -0.0989  0.4587
   40CHL1   C15 2904   1.092   2.993   7.586  0.3269  0.5709 -0.1640
   40CHL1  H15A 2905   1.067   2.886   7.596  0.5317  0.6543  1.6362
   40CHL1  H15B 2906   1.169   3.002   7.507 -0.4323 -3.4667 -1.5937
   40CHL1   C16 2907   1.135   3.050   7.718  0.2118 -0.3369 -0.1266
   40CHL1  H16A 2908   1.164   2.972   7.792  1.0518 -1.7584 -1.8759
   40CHL1  H16B 2909   1.217   3.121   7.691  2.1709 -2.7805 -1.0595
   40CHL1   C17 2910   1.010   3.121   7.773  0.6178  0.1155  0.0816
   40CHL1   H17 2911   1.022   3.229   7.752  2.1028 -0.2809 -1.2650
   40CHL1   C13 2912   0.887   3.079   7.689  0.4315  0.4374  0.5942
   40CHL1   C18 2913   0.821   2.948   7.731 -0.0068 -0.1397  0.6057
   40CHL1  H18A 2914   0.739   2.917   7.663  0.3911  1.8115 -0.8764
   40CHL1  H18B 2915   0.893   2.863   7.729 -2.3293 -2.2218  0.3440
   40CHL1  H18C 2916   0.783   2.948   7.836 -2.4690 -0.3620 -0.2264
   40CHL1   C12 2917   0.776   3.188   7.669 -0.3914  0.1849 -0.3221
   40CHL1  H12A 2918   0.714   3.202   7.760 -0.0403 -1.0932  0.1357
   40CHL1  H12B 2919   0.833   3.283   7.659  0.0249 -0.1040 -0.7302
   40CHL1   C11 2920   0.684   3.160   7.552  0.1119  0.5483 -0.1471
   40CHL1  H11A 2921   0.626   3.072   7.587  2.5562 -1.2248 -0.3127
   40CHL1  H11B 2922   0.628   3.256   7.550  0.2571  0.6247 -0.4455
   40CHL1    C9 2923   0.757   3.115   7.429 -0.7974 -0.1141  0.4947
   40CHL1    H9 2924   0.805   3.206   7.388  1.6367 -2.9154 -3.7406
   40CHL1   C10 2925   0.659   3.079   7.314  0.7541 -0.5743  0.6939
   40CHL1   C19 2926   0.542   2.996   7.363  0.0673 -0.0055  0.0079
   40CHL1  H19A 2927   0.469   3.055   7.422 -0.5013  1.0933 -1.7167
   40CHL1  H19B 2928   0.479   2.947   7.285  1.8893 -1.1561 -0.8352
   40CHL1  H19C 2929   0.575   2.920   7.438  1.9686 -0.1571 -0.9029
   40CHL1    C1 2930   0.601   3.217   7.257 -0.2028 -0.4356  0.2275
   40CHL1   H1A 2931   0.539   3.260   7.338 -0.0577  1.1862 -0.4637
   40CHL1   H1B 2932   0.690   3.277   7.227 -0.9803 -0.1570 -1.7441
   40CHL1    C2 2933   0.508   3.199   7.137  0.2050 -0.0906 -0.0715
   40CHL1   H2A 2934   0.476   3.301   7.108  1.0948  0.3647  0.4976
   40CHL1   H2B 2935   0.419   3.136   7.160 -1.5492  1.5728 -1.8749
   40CHL1   C20 2936   0.994   3.122   7.931  0.4795 -0.2462  0.2472
   40CHL1   H20 2937   0.894   3.159   7.962 -0.4856 -1.8887 -0.7491
   40CHL1   C21 2938   1.100   3.224   7.974 -0.1210 -0.4501  0.3322
   40CHL1  H21A 2939   1.115   3.231   8.084  2.1854 -0.7038  0.0791
   40CHL1  H21B 2940   1.062   3.325   7.945 -2.8335 -1.3309  0.5548
   40CHL1  H21C 2941   1.199   3.206   7.928  0.9713  0.7894  2.0606
   40CHL1   C22 2942   1.015   2.991   8.010 -0.2021 -0.3747 -0.0799
   40CHL1  H22A 2943   0.939   2.921   7.969  0.8314 -2.1985  1.0116
   40CHL1  H22B 2944   1.121   2.962   7.998  0.8389  3.0624 -0.4143
   40CHL1   C23 2945   0.995   3.006   8.161  0.4338 -0.1701  0.2333
   40CHL1  H23A 2946   0.983   2.900   8.192 -0.7762  0.3358  1.6618
   40CHL1  H23B 2947   1.086   3.038   8.217 -0.9887  0.8171  2.1259
   40CHL1   C24 2948   0.865   3.078   8.217 -0.4762  0.0062  0.3796
   40CHL1  H24A 2949   0.876   3.188   8.215 -0.6806  0.0220 -0.5332
   40CHL1  H24B 2950   0.771   3.062   8.160 -0.2795  0.9836 -0.2468
   40CHL1   C25 2951   0.861   3.036   8.362  1.3101 -0.2523  0.1513
   40CHL1   H25 2952   0.883   2.928   8.374 -0.0253 -0.5839 -0.2345
   40CHL1   C26 2953   0.961   3.119   8.447 -0.1086 -0.0129 -0.4983
   40CHL1  H26A 2954   0.950   3.229   8.435  0.5491  0.2261  0.8558
   40CHL1  H26B 2955   0.939   3.097   8.554 -0.7787  2.9451  0.0669
   40CHL1  H26C 2956   1.065   3.090   8.423 -0.6530 -2.3502 -0.2130
   40CHL1   C27 2957   0.714   3.062   8.414  0.1590 -0.3720  0.4538
   40CHL1  H27A 2958   0.712   3.038   8.523 -0.3672 -2.6856 -0.0025
   40CHL1  H27B 2959   0.680   3.166   8.393  0.5266 -0.5266 -0.9982
   40CHL1  H27C 2960   0.653   2.982   8.367  2.1552 -2.0145  0.5396
   41CHL1    C3 2961   1.009   4.170   6.883  0.3619  0.1547  0.2925
   41CHL1    H3 2962   0.972   4.086   6.945  1.1748 -1.0165 -0.7505
   41CHL1    O3 2963   0.988   4.139   6.745  0.2135  0.2235 -0.2976
   41CHL1   H3' 2964   1.060   4.172   6.690 -0.4589  0.2172 -1.2051
   41CHL1    C4 2965   0.943   4.304   6.911  0.4440 -0.8347 -0.4031
   41CHL1   H4A 2966   0.988   4.378   6.843 -0.1483 -2.6402 -2.9016
   41CHL1   H4B 2967   0.839   4.313   6.872  1.1295  4.6848 -1.7886
   41CHL1    C5 2968   0.961   4.352   7.053 -0.4243  0.1699  0.7585
   41CHL1    C6 2969   0.864   4.368   7.139  0.0172  0.1267 -0.1848
   41CHL1    H6 2970   0.762   4.339   7.111  0.3521 -0.4423 -0.8474
   41CHL1    C7 2971   0.886   4.430   7.277  0.5509  0.2208  0.3011
   41CHL1   H7A 2972   0.799   4.492   7.308  0.7699 -1.3139  4.6547
   41CHL1   H7B 2973   0.865   4.343   7.344 -0.3172  0.8021  0.8061
   41CHL1    C8 2974   1.022   4.492   7.303 -0.1324 -0.5622 -0.4002
   41CHL1    H8 2975   1.031   4.582   7.238  3.0605 -1.1543 -0.9228
   41CHL1   C14 2976   1.052   4.518   7.452 -0.1645  0.3495 -0.3878
   41CHL1   H14 2977   1.043   4.416   7.496  1.0698  0.1818 -0.4836
   41CHL1   C15 2978   0.955   4.607   7.533  0.3549 -0.9309 -0.0546
   41CHL1  H15A 2979   0.938   4.707   7.487 -0.4794 -1.2569 -0.4547
   41CHL1  H15B 2980   0.850   4.573   7.540  0.3303 -0.5843  1.5797
   41CHL1   C16 2981   1.028   4.638   7.664  0.4892 -0.5640  0.4267
   41CHL1  H16A 2982   1.048   4.747   7.675  2.2087 -0.7142 -0.8185
   41CHL1  H16B 2983   0.967   4.611   7.753  0.2562  0.1490  0.4925
   41CHL1   C17 2984   1.172   4.570   7.652 -0.0719 -0.2053  0.4214
   41CHL1   H17 2985   1.165   4.468   7.696 -3.7253 -1.1033 -1.7826
   41CHL1   C13 2986   1.191   4.559   7.494  0.5007 -0.6287  0.5324
   41CHL1   C18 2987   1.225   4.704   7.447  0.6146  0.4874 -0.0789
   41CHL1  H18A 2988   1.190   4.715   7.342  0.1251 -0.1376  0.0190
   41CHL1  H18B 2989   1.175   4.789   7.498  2.6010  0.2482  2.4812
   41CHL1  H18C 2990   1.333   4.731   7.438  0.0046  2.8421 -1.0540
   41CHL1   C12 2991   1.284   4.449   7.439 -0.7439  0.4669 -0.4833
   41CHL1  H12A 2992   1.389   4.482   7.457 -0.5170  0.0794 -1.0674
   41CHL1  H12B 2993   1.278   4.346   7.482  0.0645  0.4954 -0.2881
   41CHL1   C11 2994   1.277   4.426   7.289 -0.2579 -0.0614  0.4454
   41CHL1  H11A 2995   1.314   4.521   7.244  0.4998 -0.2116  0.7503
   41CHL1  H11B 2996   1.329   4.336   7.250 -2.0684 -0.7398 -0.5164
   41CHL1    C9 2997   1.128   4.402   7.244 -0.8585 -0.1276  0.4349
   41CHL1    H9 2998   1.112   4.310   7.305 -2.1698  0.1131  0.4861
   41CHL1   C10 2999   1.108   4.376   7.090  0.3369  0.4969 -0.1580
   41CHL1   C19 3000   1.165   4.492   7.012 -0.4294 -0.2314 -0.2464
   41CHL1  H19A 3001   1.147   4.490   6.903 -0.4294 -0.9015 -0.2369
   41CHL1  H19B 3002   1.129   4.589   7.052 -0.0713 -1.0436  2.2566
   41CHL1  H19C 3003   1.275   4.495   7.027 -0.4912 -1.7640  0.8287
   41CHL1    C1 3004   1.191   4.248   7.049  0.6909 -0.1679  0.6835
   41CHL1   H1A 3005   1.300   4.269   7.047  0.4740  1.6131  3.0864
   41CHL1   H1B 3006   1.171   4.168   7.122  2.0215 -0.7761  0.4088
   41CHL1    C2 3007   1.158   4.183   6.910 -0.4579  0.9552 -0.5042
   41CHL1   H2A 3008   1.210   4.086   6.910 -0.3339  0.9904 -2.0768
   41CHL1   H2B 3009   1.198   4.235   6.820  0.4408  1.3148  0.0933
   41CHL1   C20 3010   1.275   4.646   7.734  0.0253  0.0143  0.7396
   41CHL1   H20 3011   1.291   4.747   7.690 -1.5457 -0.0436 -0.0470
   41CHL1   C21 3012   1.414   4.574   7.718 -0.0916  0.2001 -0.4328
   41CHL1  H21A 3013   1.495   4.625   7.775  0.8522 -1.2420 -0.4325
   41CHL1  H21B 3014   1.436   4.573   7.610 -0.1761 -0.7957 -0.4505
   41CHL1  H21C 3015   1.403   4.476   7.768 -1.8540  0.9708  0.8294
   41CHL1   C22 3016   1.226   4.650   7.881 -0.3627 -0.4219  0.0852
   41CHL1  H22A 3017   1.158   4.738   7.892  0.3227  0.2365 -0.7684
   41CHL1  H22B 3018   1.181   4.551   7.903 -1.3607 -0.1557 -0.6486
   41CHL1   C23 3019   1.339   4.659   7.987 -0.8357 -0.3206 -0.4520
   41CHL1  H23A 3020   1.412   4.579   7.961 -0.7868 -0.3584 -0.2031
   41CHL1  H23B 3021   1.395   4.753   7.967  2.5950 -1.6734  1.7688
   41CHL1   C24 3022   1.288   4.649   8.132 -0.6860  0.1775  0.3037
   41CHL1  H24A 3023   1.223   4.735   8.160 -0.8044  1.0951 -2.4591
   41CHL1  H24B 3024   1.225   4.557   8.137 -1.2493  0.3212 -2.2839
   41CHL1   C25 3025   1.395   4.625   8.240  0.7701  0.8721  0.4304
   41CHL1   H25 3026   1.476   4.556   8.208 -0.3366 -0.3823  0.2843
   41CHL1   C26 3027   1.473   4.749   8.277 -0.1406 -0.1821  0.1685
   41CHL1  H26A 3028   1.420   4.834   8.325  2.6821  2.7285 -1.4682
   41CHL1  H26B 3029   1.557   4.735   8.348  0.9952 -1.7070 -1.3964
   41CHL1  H26C 3030   1.527   4.797   8.192  2.2560 -0.7197  1.2894
   41CHL1   C27 3031   1.318   4.563   8.358  0.0347 -0.1424 -0.0696
   41CHL1  H27A 3032   1.258   4.647   8.400  0.7078  0.2756  0.0593
   41CHL1  H27B 3033   1.255   4.476   8.331  1.7600 -0.7576 -2.4439
   41CHL1  H27C 3034   1.379   4.528   8.444 -0.9757  2.5032  1.8969
   42CHL1    C3 3035   4.276   1.336   7.117  0.2252 -0.0226 -0.3066
   42CHL1    H3 3036   4.311   1.437   7.149 -0.9918  0.4533 -0.4255
   42CHL1    O3 3037   4.300   1.331   6.976  0.3547 -0.6921 -0.6423
   42CHL1   H3' 3038   4.292   1.239   6.951 -0.3906 -0.2627 -2.1231
   42CHL1    C4 3039   4.337   1.222   7.192  0.5593 -0.0229 -0.3504
   42CHL1   H4A 3040   4.287   1.131   7.152 -0.4117 -0.1648  1.0905
   42CHL1   H4B 3041   4.445   1.212   7.172  0.5454 -0.0318 -0.4204
   42CHL1    C5 3042   4.310   1.224   7.342  0.7726  0.6886 -0.0003
   42CHL1    C6 3043   4.400   1.212   7.436 -0.2676  0.1557 -0.1792
   42CHL1    H6 3044   4.505   1.214   7.402 -0.1007  0.2416  0.3296
   42CHL1    C7 3045   4.384   1.213   7.583  0.4944  0.0369 -0.2681
   42CHL1   H7A 3046   4.436   1.130   7.635  2.6054  2.1321  1.1371
   42CHL1   H7B 3047   4.422   1.305   7.631 -0.7640 -0.2401  1.3410
   42CHL1    C8 3048   4.228   1.201   7.622 -0.0972  0.2656  0.4565
   42CHL1    H8 3049   4.209   1.092   7.607  2.8295 -0.5289  1.6560
   42CHL1   C14 3050   4.203   1.239   7.769  0.1932  0.0354 -0.1854
   42CHL1   H14 3051   4.253   1.338   7.778  1.9146 -0.9138  1.1820
   42CHL1   C15 3052   4.292   1.168   7.868 -0.0984  0.4093  0.9692
   42CHL1  H15A 3053   4.289   1.058   7.850  4.2090 -0.4107  3.6933
   42CHL1  H15B 3054   4.399   1.195   7.873 -0.7721  3.5359  0.2978
   42CHL1   C16 3055   4.227   1.191   8.001  0.1223  0.1411  0.6175
   42CHL1  H16A 3056   4.196   1.102   8.060 -0.6116 -0.8853 -1.2246
   42CHL1  H16B 3057   4.284   1.260   8.067  1.2254  0.5561 -0.7181
   42CHL1   C17 3058   4.098   1.278   7.967 -0.3336  0.6474 -0.2662
   42CHL1   H17 3059   4.137   1.382   7.971  0.7320  0.4893 -3.6573
   42CHL1   C13 3060   4.066   1.243   7.823 -0.5809 -0.3515 -0.3309
   42CHL1   C18 3061   4.005   1.095   7.810 -0.0779 -0.1840  0.2129
   42CHL1  H18A 3062   4.028   1.056   7.708 -1.9379  0.3055 -0.4156
   42CHL1  H18B 3063   4.056   1.022   7.877  0.7629  1.3587  1.3089
   42CHL1  H18C 3064   3.897   1.108   7.829 -0.9400 -1.8217 -2.8247
   42CHL1   C12 3065   3.981   1.338   7.728 -0.6927  0.0991  0.1470
   42CHL1  H12A 3066   3.872   1.340   7.752 -0.1185 -0.8907  3.4331
   42CHL1  H12B 3067   4.016   1.443   7.739 -2.2975  1.0030 -2.5133
   42CHL1   C11 3068   3.997   1.296   7.577  0.1996 -0.2748  0.4568
   42CHL1  H11A 3069   3.947   1.197   7.572  2.6995 -1.5990 -0.5341
   42CHL1  H11B 3070   3.941   1.363   7.509 -1.2729 -0.6951  1.2138
   42CHL1    C9 3071   4.148   1.292   7.530  0.1347 -0.1784  0.2181
   42CHL1    H9 3072   4.183   1.396   7.546  2.3573 -0.8781  0.2273
   42CHL1   C10 3073   4.158   1.252   7.379 -0.7432  0.4557  0.3620
   42CHL1   C19 3074   4.087   1.124   7.353  0.3859 -0.4201 -0.7211
   42CHL1  H19A 3075   4.116   1.078   7.256  0.3436 -0.2019 -0.8383
   42CHL1  H19B 3076   4.101   1.047   7.432 -1.7741  1.2421  1.3984
   42CHL1  H19C 3077   3.980   1.151   7.356  0.2044 -1.1459 -0.5279
   42CHL1    C1 3078   4.091   1.356   7.286 -0.6003  0.0198 -0.2606
   42CHL1   H1A 3079   3.981   1.358   7.303 -0.5566  1.1424 -0.0213
   42CHL1   H1B 3080   4.134   1.451   7.325  0.9277 -0.6523 -0.2378
   42CHL1    C2 3081   4.121   1.337   7.138 -0.5779  0.6208  0.1427
   42CHL1   H2A 3082   4.073   1.421   7.084  0.2092  1.3348  0.5332
   42CHL1   H2B 3083   4.081   1.240   7.102 -0.0661  0.9438 -1.3544
   42CHL1   C20 3084   3.988   1.259   8.077  1.2375  0.0250  0.3798
   42CHL1   H20 3085   3.945   1.157   8.074  0.5054  0.3456 -0.7200
   42CHL1   C21 3086   3.869   1.353   8.041  0.5722  0.0860 -0.1476
   42CHL1  H21A 3087   3.798   1.377   8.123  0.7214 -0.6665  0.2162
   42CHL1  H21B 3088   3.808   1.297   7.967  2.1297 -2.0099  0.0761
   42CHL1  H21C 3089   3.904   1.451   8.002 -1.8256  1.4754  0.9857
   42CHL1   C22 3090   4.023   1.280   8.228  0.0423  0.3346 -0.3295
   42CHL1  H22A 3091   4.122   1.235   8.254  1.1506  2.8121  0.0185
   42CHL1  H22B 3092   4.049   1.388   8.227 -2.2441  0.9505  0.2762
   42CHL1   C23 3093   3.908   1.250   8.330 -0.4359  0.4369 -0.4908
   42CHL1  H23A 3094   3.816   1.312   8.328 -0.3916  0.6115  1.2308
   42CHL1  H23B 3095   3.871   1.149   8.300  2.6546 -1.1625  0.6314
   42CHL1   C24 3096   3.953   1.224   8.470  0.5128 -0.6247  0.4587
   42CHL1  H24A 3097   3.879   1.168   8.530 -0.5229  0.1383 -0.0873
   42CHL1  H24B 3098   4.043   1.161   8.487  0.7498  0.2207  2.6974
   42CHL1   C25 3099   3.993   1.355   8.547 -0.2621 -0.0203 -0.1330
   42CHL1   H25 3100   4.054   1.412   8.474 -1.2691  0.0559 -0.9366
   42CHL1   C26 3101   3.865   1.430   8.577  0.2967 -0.3276 -0.4637
   42CHL1  H26A 3102   3.829   1.456   8.475 -0.7504  1.1454  0.2472
   42CHL1  H26B 3103   3.794   1.364   8.632  0.6270 -1.7446 -1.6733
   42CHL1  H26C 3104   3.879   1.524   8.634 -1.3179 -0.4030  0.1180
   42CHL1   C27 3105   4.081   1.320   8.673  0.2027 -0.4407 -0.7277
   42CHL1  H27A 3106   4.023   1.253   8.739  0.7633  0.2003  0.4445
   42CHL1  H27B 3107   4.104   1.415   8.725 -1.6841 -0.4570  0.1849
   42CHL1  H27C 3108   4.182   1.284   8.643  0.8894  1.4067 -0.7042
   43CHL1    C3 3109   1.968   5.411   6.803 -0.1376 -0.1551  0.4102
   43CHL1    H3 3110   1.942   5.306   6.825  1.6757 -0.7427 -0.1559
   43CHL1    O3 3111   2.035   5.420   6.680 -0.3141  0.3254 -0.6568
   43CHL1   H3' 3112   2.080   5.505   6.686  0.3045  0.0068 -0.6781
   43CHL1    C4 3113   1.840   5.497   6.800  0.1716 -0.0582  0.0809
   43CHL1   H4A 3114   1.872   5.604   6.799 -0.0855  0.0371 -1.3248
   43CHL1   H4B 3115   1.774   5.470   6.714 -0.6653 -1.5512  1.1495
   43CHL1    C5 3116   1.776   5.485   6.936 -0.6785 -0.2827  0.4685
   43CHL1    C6 3117   1.654   5.437   6.958  0.1295 -0.3950 -0.6573
   43CHL1    H6 3118   1.590   5.418   6.870 -0.2518  1.6783 -0.8823
   43CHL1    C7 3119   1.580   5.428   7.086  0.0442  0.0231 -1.0830
   43CHL1   H7A 3120   1.478   5.470   7.089  0.4631  1.0298  1.7429
   43CHL1   H7B 3121   1.565   5.322   7.117  2.0021 -0.1304 -0.4981
   43CHL1    C8 3122   1.661   5.509   7.203 -0.2179  0.2740  0.0745
   43CHL1    H8 3123   1.637   5.615   7.178 -3.0611 -0.4836 -0.8000
   43CHL1   C14 3124   1.605   5.472   7.335 -0.1018 -0.5325  0.0529
   43CHL1   H14 3125   1.633   5.366   7.352 -4.6292 -1.7693  1.3472
   43CHL1   C15 3126   1.453   5.460   7.358  0.2907  0.4456 -0.0634
   43CHL1  H15A 3127   1.401   5.549   7.317  0.4987  1.0816  1.0144
   43CHL1  H15B 3128   1.414   5.367   7.312  0.1024  0.3277  0.3262
   43CHL1   C16 3129   1.443   5.458   7.511 -0.5610  0.5091 -0.1293
   43CHL1  H16A 3130   1.361   5.526   7.541 -1.2851  0.2695 -1.4890
   43CHL1  H16B 3131   1.411   5.357   7.544 -1.9024  1.3073  1.1015
   43CHL1   C17 3132   1.583   5.488   7.572  0.5786  0.2499  0.2329
   43CHL1   H17 3133   1.635   5.391   7.587  0.1872 -0.0142 -0.0775
   43CHL1   C13 3134   1.658   5.555   7.458  0.3036  0.2449 -0.3929
   43CHL1   C18 3135   1.612   5.697   7.446 -0.0361 -0.0607  1.0241
   43CHL1  H18A 3136   1.504   5.713   7.464 -0.3048 -1.5886  0.9157
   43CHL1  H18B 3137   1.659   5.758   7.526 -0.8923  0.6972  0.9651
   43CHL1  H18C 3138   1.636   5.743   7.348 -0.5749 -0.2575  0.7961
   43CHL1   C12 3139   1.813   5.544   7.457  0.1580  0.0782 -0.1201
   43CHL1  H12A 3140   1.847   5.624   7.526  0.2876  1.7619 -2.0321
   43CHL1  H12B 3141   1.840   5.444   7.496 -0.2243 -0.4106 -1.0677
   43CHL1   C11 3142   1.879   5.569   7.316 -0.2769  1.3347  0.4003
   43CHL1  H11A 3143   1.854   5.676   7.305  0.3201  1.5208  0.8093
   43CHL1  H11B 3144   1.990   5.561   7.308 -0.3530  0.5052  0.0732
   43CHL1    C9 3145   1.813   5.493   7.199 -0.3434  0.1457  0.3687
   43CHL1    H9 3146   1.839   5.386   7.218  1.6457  0.3370 -1.0569
   43CHL1   C10 3147   1.875   5.518   7.056 -0.8331 -0.1961 -0.2546
   43CHL1   C19 3148   1.902   5.676   7.053 -0.7248  0.3429 -0.0707
   43CHL1  H19A 3149   1.992   5.708   7.109  0.1844 -0.0865 -1.2349
   43CHL1  H19B 3150   1.922   5.717   6.952 -1.0595  2.3689  0.6434
   43CHL1  H19C 3151   1.826   5.743   7.098 -0.3201 -0.8134  2.4863
   43CHL1    C1 3152   2.008   5.436   7.046  0.6583  0.3270 -0.5137
   43CHL1   H1A 3153   2.079   5.472   7.124 -0.9201  2.4189  0.0640
   43CHL1   H1B 3154   1.978   5.332   7.072  0.7613  0.0739 -1.3753
   43CHL1    C2 3155   2.069   5.442   6.912  0.4734  0.0444  0.9616
   43CHL1   H2A 3156   2.156   5.374   6.901  2.5750  2.5183  1.2807
   43CHL1   H2B 3157   2.096   5.547   6.887 -1.6555  0.1868 -1.0754
   43CHL1   C20 3158   1.573   5.561   7.707 -0.2046 -0.0290  0.3955
   43CHL1   H20 3159   1.521   5.658   7.690 -1.1066 -0.2575  1.6660
   43CHL1   C21 3160   1.707   5.602   7.774 -1.0188 -0.5601  0.1027
   43CHL1  H21A 3161   1.784   5.522   7.781  1.8776  2.0776  0.3770
   43CHL1  H21B 3162   1.710   5.635   7.880  0.0311 -1.0470  0.2409
   43CHL1  H21C 3163   1.750   5.688   7.717 -2.9918 -0.8851 -2.0456
   43CHL1   C22 3164   1.486   5.475   7.801 -0.2552  0.0011 -0.2905
   43CHL1  H22A 3165   1.386   5.454   7.758  0.0486  0.9625 -1.5371
   43CHL1  H22B 3166   1.553   5.389   7.817 -1.8339 -0.8025  2.6434
   43CHL1   C23 3167   1.472   5.528   7.947  0.4009 -0.1541 -0.8676
   43CHL1  H23A 3168   1.571   5.546   7.995  0.0949 -0.3977 -0.1398
   43CHL1  H23B 3169   1.418   5.625   7.953  1.6983  0.5651 -0.0324
   43CHL1   C24 3170   1.398   5.440   8.041  0.6480 -0.0819  0.4791
   43CHL1  H24A 3171   1.306   5.407   7.987  0.2822 -0.3491  1.2447
   43CHL1  H24B 3172   1.453   5.349   8.072 -0.0271 -1.6968 -2.6940
   43CHL1   C25 3173   1.357   5.498   8.172 -0.2082 -0.4434  0.6016
   43CHL1   H25 3174   1.289   5.431   8.228 -1.0911  1.0947  1.4360
   43CHL1   C26 3175   1.480   5.528   8.258 -0.2409 -0.3311  0.2347
   43CHL1  H26A 3176   1.526   5.625   8.231  0.1424 -0.3463  0.8299
   43CHL1  H26B 3177   1.438   5.540   8.360 -1.4683 -1.6873 -0.0719
   43CHL1  H26C 3178   1.557   5.448   8.258  0.2064  0.0728 -1.0153
   43CHL1   C27 3179   1.266   5.621   8.151 -0.7157 -0.0682  0.2931
   43CHL1  H27A 3180   1.208   5.653   8.240 -1.7169  1.1422 -0.7671
   43CHL1  H27B 3181   1.325   5.710   8.122 -1.4107  0.7514  1.3081
   43CHL1  H27C 3182   1.195   5.599   8.069  1.1421 -0.0152 -1.3904
   44CHL1    C3 3183   2.393   4.077   6.773  0.4110  0.9019  0.9066
   44CHL1    H3 3184   2.294   4.068   6.823 -0.0202  3.1396  0.5214
   44CHL1    O3 3185   2.372   4.107   6.635 -0.7519  0.4634 -0.4122
   44CHL1   H3' 3186   2.291   4.064   6.608 -0.2126 -0.8693  0.0069
   44CHL1    C4 3187   2.465   4.196   6.842 -0.0122 -0.2574 -0.8004
   44CHL1   H4A 3188   2.563   4.215   6.793  1.6037  2.0783  2.9031
   44CHL1   H4B 3189   2.402   4.286   6.829  1.1810  1.0396  1.6995
   44CHL1    C5 3190   2.496   4.167   6.990  0.1202 -0.5297  0.3819
   44CHL1    C6 3191   2.452   4.251   7.088 -0.4442 -0.1445 -0.2896
   44CHL1    H6 3192   2.396   4.342   7.067  0.6274  0.8964  1.1258
   44CHL1    C7 3193   2.479   4.224   7.234  0.2212 -0.0036 -0.0122
   44CHL1   H7A 3194   2.511   4.319   7.283 -0.1157 -0.4433  1.0707
   44CHL1   H7B 3195   2.387   4.184   7.280  0.9895 -1.4533  0.3068
   44CHL1    C8 3196   2.599   4.133   7.255  0.6981  0.6619 -0.0463
   44CHL1    H8 3197   2.690   4.193   7.235  2.2320 -1.3299  0.5801
   44CHL1   C14 3198   2.612   4.089   7.401 -0.0025  0.0492 -1.3171
   44CHL1   H14 3199   2.513   4.045   7.423 -1.0862  1.7792 -2.4575
   44CHL1   C15 3200   2.632   4.199   7.509 -0.3627 -0.0636  0.1116
   44CHL1  H15A 3201   2.716   4.268   7.487 -0.0305  0.1714  1.9073
   44CHL1  H15B 3202   2.549   4.273   7.517  0.0546  0.6262 -1.5507
   44CHL1   C16 3203   2.664   4.119   7.630 -0.3578 -0.1781  0.2990
   44CHL1  H16A 3204   2.736   4.169   7.699 -0.1135 -2.0105  1.4143
   44CHL1  H16B 3205   2.572   4.117   7.691 -1.0445 -1.3320 -0.7412
   44CHL1   C17 3206   2.701   3.980   7.592 -0.0359 -0.5806  0.3945
   44CHL1   H17 3207   2.612   3.917   7.611 -0.4790  0.1619  0.7907
   44CHL1   C13 3208   2.718   3.979   7.431  0.0444 -0.0664  0.9786
   44CHL1   C18 3209   2.860   4.036   7.392 -0.0478 -0.2038 -0.1958
   44CHL1  H18A 3210   2.869   4.076   7.289  0.3263 -1.6916 -0.7728
   44CHL1  H18B 3211   2.888   4.112   7.468 -0.4085  0.7749 -1.0132
   44CHL1  H18C 3212   2.937   3.956   7.384 -2.0491 -2.0604 -2.3631
   44CHL1   C12 3213   2.675   3.855   7.355 -0.6155 -0.5002  0.0599
   44CHL1  H12A 3214   2.736   3.766   7.382  1.3038  0.7920  0.1820
   44CHL1  H12B 3215   2.575   3.841   7.402 -0.3634  3.5101  2.2266
   44CHL1   C11 3216   2.677   3.881   7.205  0.4380  0.6288  0.0586
   44CHL1  H11A 3217   2.784   3.894   7.178  0.8587  0.4760  1.5759
   44CHL1  H11B 3218   2.629   3.794   7.156 -1.5129  1.1130  1.0119
   44CHL1    C9 3219   2.589   4.007   7.170 -0.8467 -0.5515  0.0057
   44CHL1    H9 3220   2.491   3.967   7.205 -0.0451 -0.5048  2.5145
   44CHL1   C10 3221   2.572   4.037   7.018  0.5836 -0.3559  0.2293
   44CHL1   C19 3222   2.716   4.043   6.962  0.4365 -0.0950 -0.6525
   44CHL1  H19A 3223   2.769   4.134   6.995 -0.1184 -0.9677  3.0658
   44CHL1  H19B 3224   2.777   3.952   6.983 -1.6137 -1.2201  0.8046
   44CHL1  H19C 3225   2.723   4.077   6.856  2.6490  0.9039 -0.2478
   44CHL1    C1 3226   2.499   3.922   6.945 -0.3742  0.7445 -0.3480
   44CHL1   H1A 3227   2.545   3.822   6.962 -3.0191 -0.8386 -1.8328
   44CHL1   H1B 3228   2.397   3.911   6.990 -1.5014 -3.0233 -3.2988
   44CHL1    C2 3229   2.470   3.942   6.795 -0.7267 -0.2225  0.2275
   44CHL1   H2A 3230   2.423   3.856   6.743  0.7253 -0.8158 -0.1467
   44CHL1   H2B 3231   2.571   3.956   6.749 -0.3267 -0.6636  0.9489
   44CHL1   C20 3232   2.803   3.911   7.681 -0.6750  0.3641  0.2561
   44CHL1   H20 3233   2.902   3.957   7.660  0.6366 -1.4287  2.0443
   44CHL1   C21 3234   2.807   3.759   7.657  0.4999  0.7243 -0.2758
   44CHL1  H21A 3235   2.871   3.729   7.571  2.3158  1.0795  0.9150
   44CHL1  H21B 3236   2.707   3.726   7.621  0.6467  0.5581 -0.5350
   44CHL1  H21C 3237   2.843   3.692   7.738  0.9721  2.7085  1.2103
   44CHL1   C22 3238   2.784   3.936   7.835  0.4448 -0.2158 -0.3625
   44CHL1  H22A 3239   2.763   4.041   7.863  0.9223 -0.8193  2.5756
   44CHL1  H22B 3240   2.691   3.881   7.861 -0.0578  0.6708 -0.2314
   44CHL1   C23 3241   2.894   3.886   7.925  0.2941  0.6674 -0.1391
   44CHL1  H23A 3242   2.959   3.815   7.870 -1.6558 -1.4836  0.1931
   44CHL1  H23B 3243   2.959   3.962   7.974  1.5225 -1.1239  1.1147
   44CHL1   C24 3244   2.851   3.799   8.046 -0.1569 -0.1384 -0.3011
   44CHL1  H24A 3245   2.800   3.713   7.999  1.8616 -0.9021 -1.2329
   44CHL1  H24B 3246   2.940   3.769   8.105 -1.2719  1.5269  2.4099
   44CHL1   C25 3247   2.764   3.867   8.157 -0.0707 -0.0706 -0.0140
   44CHL1   H25 3248   2.679   3.920   8.108  1.4358  0.0882 -2.6105
   44CHL1   C26 3249   2.700   3.770   8.252 -0.3106 -0.4379  0.2257
   44CHL1  H26A 3250   2.643   3.819   8.332  0.6287  2.8399 -0.9695
   44CHL1  H26B 3251   2.623   3.710   8.198 -2.6182  1.7352  0.9535
   44CHL1  H26C 3252   2.772   3.698   8.298 -1.8353 -1.7289  0.6893
   44CHL1   C27 3253   2.847   3.983   8.235  0.4861  0.2535 -0.2994
   44CHL1  H27A 3254   2.794   4.038   8.315  3.0154  0.2505  1.5225
   44CHL1  H27B 3255   2.922   3.935   8.302 -0.0452  1.4768  1.2138
   44CHL1  H27C 3256   2.906   4.042   8.162  2.5867 -0.1600  0.9816
   45CHL1    C3 3257   4.300   2.208   6.896 -0.7769 -0.4808 -0.0314
   45CHL1    H3 3258   4.197   2.250   6.888  0.5028  2.6290 -2.2428
   45CHL1    O3 3259   4.348   2.211   6.765  0.9851  0.0563  0.2972
   45CHL1   H3' 3260   4.288   2.172   6.701  1.6715 -2.9152  1.3080
   45CHL1    C4 3261   4.388   2.310   6.975  0.2952 -0.3890 -0.1540
   45CHL1   H4A 3262   4.494   2.277   6.964  1.0378  1.8137 -0.2446
   45CHL1   H4B 3263   4.386   2.413   6.932 -2.0407 -0.1636  0.3552
   45CHL1    C5 3264   4.336   2.323   7.119  0.1114  0.1569 -0.5300
   45CHL1    C6 3265   4.294   2.437   7.172  0.4612 -0.0733  0.3485
   45CHL1    H6 3266   4.288   2.525   7.106  0.1344  2.3200  3.3441
   45CHL1    C7 3267   4.248   2.452   7.314  0.1842 -0.0284 -0.2030
   45CHL1   H7A 3268   4.300   2.539   7.358  0.2321 -0.1506 -0.0166
   45CHL1   H7B 3269   4.140   2.474   7.321  0.0214 -1.2793  3.1978
   45CHL1    C8 3270   4.294   2.341   7.411  0.5683  0.8722  0.7469
   45CHL1    H8 3271   4.405   2.350   7.420  1.2076 -1.9155 -2.2510
   45CHL1   C14 3272   4.236   2.347   7.551  0.4357  0.4180 -0.4654
   45CHL1   H14 3273   4.127   2.360   7.530  0.5269  1.0394 -0.5750
   45CHL1   C15 3274   4.268   2.467   7.640  0.2232  0.2260 -0.6622
   45CHL1  H15A 3275   4.374   2.490   7.612 -0.1716 -1.2417 -3.6901
   45CHL1  H15B 3276   4.214   2.560   7.611  1.4354  1.6376  1.2909
   45CHL1   C16 3277   4.238   2.424   7.784  0.3889 -0.2165  0.1357
   45CHL1  H16A 3278   4.328   2.436   7.848 -0.2190 -1.0978  1.1920
   45CHL1  H16B 3279   4.162   2.491   7.828  1.1671  0.5777  0.2932
   45CHL1   C17 3280   4.203   2.270   7.773  0.4737  0.0847 -0.8037
   45CHL1   H17 3281   4.094   2.255   7.761 -0.0714  0.7620  2.4326
   45CHL1   C13 3282   4.260   2.225   7.641  0.3423 -0.1948  0.0280
   45CHL1   C18 3283   4.417   2.210   7.658  0.2148  0.2135 -0.2088
   45CHL1  H18A 3284   4.431   2.105   7.691 -0.8602  0.8321  2.5056
   45CHL1  H18B 3285   4.473   2.205   7.561  0.9161  1.2399  0.1230
   45CHL1  H18C 3286   4.469   2.280   7.726  0.5533  2.5503 -2.6949
   45CHL1   C12 3287   4.190   2.103   7.566 -0.3489 -0.0976 -0.2569
   45CHL1  H12A 3288   4.195   2.016   7.634 -1.3103  1.6162  2.1393
   45CHL1  H12B 3289   4.085   2.138   7.548  0.2338  1.7950 -0.2400
   45CHL1   C11 3290   4.250   2.078   7.426  0.4221  1.0913  0.2588
   45CHL1  H11A 3291   4.356   2.047   7.436  0.6555  1.0648 -1.9469
   45CHL1  H11B 3292   4.188   2.001   7.375  0.5439  1.3316 -0.2560
   45CHL1    C9 3293   4.261   2.204   7.333 -0.8116  0.4469 -0.1550
   45CHL1    H9 3294   4.153   2.215   7.308 -1.4017 -1.4904  1.3154
   45CHL1   C10 3295   4.337   2.186   7.197 -0.1581  1.0262 -0.1974
   45CHL1   C19 3296   4.476   2.128   7.235  0.6172 -0.0533  0.3002
   45CHL1  H19A 3297   4.472   2.020   7.260  0.3094 -0.5374 -1.6891
   45CHL1  H19B 3298   4.534   2.129   7.140 -1.4790  3.1895 -1.1251
   45CHL1  H19C 3299   4.535   2.192   7.305  0.4241  1.3182 -0.7392
   45CHL1    C1 3300   4.249   2.086   7.113 -0.0381 -0.2975 -0.1173
   45CHL1   H1A 3301   4.239   1.983   7.153 -1.0617 -0.5637 -1.0054
   45CHL1   H1B 3302   4.147   2.132   7.112 -0.0300 -0.2796 -0.1353
   45CHL1    C2 3303   4.289   2.064   6.961  0.1983 -1.0634  0.4916
   45CHL1   H2A 3304   4.214   1.998   6.912 -0.4902 -0.5657  0.8662
   45CHL1   H2B 3305   4.392   2.023   6.954  1.7317  2.6597 -1.3175
   45CHL1   C20 3306   4.243   2.204   7.913 -0.1366  0.0695  0.1684
   45CHL1   H20 3307   4.351   2.228   7.921 -0.2946  0.5342  0.9919
   45CHL1   C21 3308   4.218   2.053   7.914  1.0081 -0.8198  0.5583
   45CHL1  H21A 3309   4.274   2.008   7.828  0.3646 -2.3123  0.8930
   45CHL1  H21B 3310   4.111   2.029   7.901  0.4291  0.6281  2.3222
   45CHL1  H21C 3311   4.246   2.014   8.014 -1.3612  0.0873  1.6265
   45CHL1   C22 3312   4.163   2.266   8.032 -0.3996 -0.5715 -0.1683
   45CHL1  H22A 3313   4.148   2.374   8.011  0.9975  0.0422  1.6944
   45CHL1  H22B 3314   4.065   2.218   8.048 -0.9448  0.2363 -0.9639
   45CHL1   C23 3315   4.254   2.262   8.150  0.2525  0.8241  0.3665
   45CHL1  H23A 3316   4.285   2.157   8.173 -0.1898  0.3250 -1.2148
   45CHL1  H23B 3317   4.344   2.323   8.128  1.1710 -0.4441  0.4645
   45CHL1   C24 3318   4.181   2.303   8.282  0.0976 -0.4798  0.0878
   45CHL1  H24A 3319   4.147   2.406   8.256  0.1538 -0.6870 -0.8209
   45CHL1  H24B 3320   4.086   2.246   8.284 -1.5458  1.9730 -2.0411
   45CHL1   C25 3321   4.280   2.303   8.399 -0.3628 -0.4017  0.1211
   45CHL1   H25 3322   4.355   2.376   8.361 -0.0418 -1.0967 -0.6270
   45CHL1   C26 3323   4.229   2.338   8.538 -0.7372  0.8652 -0.3182
   45CHL1  H26A 3324   4.301   2.360   8.621 -1.4887  0.9085  0.3378
   45CHL1  H26B 3325   4.137   2.400   8.545 -2.1245 -1.1899  0.3524
   45CHL1  H26C 3326   4.190   2.243   8.580  0.7163 -0.2807 -1.4583
   45CHL1   C27 3327   4.364   2.175   8.412  0.6507  0.2341  0.5488
   45CHL1  H27A 3328   4.416   2.164   8.509 -0.3767 -1.9111  0.9277
   45CHL1  H27B 3329   4.294   2.090   8.400  0.3449  0.4340  0.9028
   45CHL1  H27C 3330   4.444   2.155   8.338  1.4477 -1.3981  1.7948
   46CHL1    C3 3331   4.204   3.864   7.027  0.2576  0.3732 -0.3986
   46CHL1    H3 3332   4.313   3.842   7.018  0.4533  1.7679 -1.9298
   46CHL1    O3 3333   4.142   3.862   6.899  0.3500  0.1846  0.1569
   46CHL1   H3' 3334   4.178   3.942   6.858 -2.2015  2.2918  1.7154
   46CHL1    C4 3335   4.134   3.753   7.109  0.2961  0.1536  0.4806
   46CHL1   H4A 3336   4.024   3.768   7.101 -0.1372 -1.9819  1.7124
   46CHL1   H4B 3337   4.153   3.656   7.059  2.9437  1.1157 -0.5179
   46CHL1    C5 3338   4.168   3.754   7.260 -0.7572 -0.7727  0.8421
   46CHL1    C6 3339   4.231   3.648   7.319  0.2129  0.0257 -0.1476
   46CHL1    H6 3340   4.245   3.559   7.255  0.3206 -0.0882  0.0337
   46CHL1    C7 3341   4.274   3.636   7.461 -0.3693  0.2275 -0.2158
   46CHL1   H7A 3342   4.247   3.533   7.493 -3.1126  0.4046 -1.6859
   46CHL1   H7B 3343   4.386   3.637   7.462 -0.3303  0.4726 -1.7442
   46CHL1    C8 3344   4.210   3.756   7.540 -0.8820 -0.0428 -0.3974
   46CHL1    H8 3345   4.101   3.745   7.560 -0.4087 -2.2893  1.2808
   46CHL1   C14 3346   4.282   3.756   7.678  0.6926  0.0082  0.5248
   46CHL1   H14 3347   4.386   3.788   7.658  0.1588  0.1956 -2.4089
   46CHL1   C15 3348   4.284   3.634   7.767  0.0921  0.8321 -0.6254
   46CHL1  H15A 3349   4.182   3.589   7.761  0.4498  0.0601 -1.0459
   46CHL1  H15B 3350   4.361   3.559   7.740  0.6580  0.7862  0.9984
   46CHL1   C16 3351   4.311   3.684   7.909  0.0188  0.5237  0.1670
   46CHL1  H16A 3352   4.224   3.654   7.970 -0.5513  1.3673 -0.2062
   46CHL1  H16B 3353   4.410   3.658   7.953 -0.9014 -0.7921  1.5265
   46CHL1   C17 3354   4.305   3.840   7.892 -1.0472 -0.0192 -0.0003
   46CHL1   H17 3355   4.411   3.870   7.875 -1.0359 -0.1397 -0.1452
   46CHL1   C13 3356   4.231   3.872   7.763  0.5535  0.6780 -0.0295
   46CHL1   C18 3357   4.083   3.849   7.791  0.0215  0.2035 -0.7131
   46CHL1  H18A 3358   4.048   3.929   7.860 -1.6240  2.5697 -3.9909
   46CHL1  H18B 3359   4.012   3.857   7.706 -1.2121  1.3009  0.3858
   46CHL1  H18C 3360   4.056   3.753   7.840 -0.2335  0.3864 -0.4898
   46CHL1   C12 3361   4.261   4.003   7.694 -0.4369  0.1392 -0.1110
   46CHL1  H12A 3362   4.228   4.091   7.754  1.6768  0.5919  0.4699
   46CHL1  H12B 3363   4.372   3.996   7.696 -0.4196  0.0238  2.7359
   46CHL1   C11 3364   4.203   4.017   7.553  0.1139  0.3020  0.3235
   46CHL1  H11A 3365   4.092   4.027   7.554 -0.2776 -1.3294 -3.8937
   46CHL1  H11B 3366   4.254   4.105   7.508  0.8971  1.0148  2.4700
   46CHL1    C9 3367   4.232   3.894   7.464 -0.0009  0.4120  0.5967
   46CHL1    H9 3368   4.342   3.898   7.452 -0.1290  1.6619 -0.4822
   46CHL1   C10 3369   4.164   3.892   7.331  0.1532 -0.4111 -0.3069
   46CHL1   C19 3370   4.006   3.921   7.347 -0.2336  0.7168  0.2426
   46CHL1  H19A 3371   3.989   4.023   7.388  1.0823  0.8663  0.4704
   46CHL1  H19B 3372   3.947   3.908   7.254  0.4130  1.9111 -0.3549
   46CHL1  H19C 3373   3.968   3.844   7.418  1.3422 -1.0230 -0.7049
   46CHL1    C1 3374   4.227   4.003   7.243 -0.1228 -0.1053  0.4942
   46CHL1   H1A 3375   4.207   4.101   7.292 -1.0908 -0.4192  0.7489
   46CHL1   H1B 3376   4.338   4.011   7.240 -0.0750  1.1261  3.0210
   46CHL1    C2 3377   4.189   4.006   7.092  0.3405 -0.4277  0.4052
   46CHL1   H2A 3378   4.249   4.078   7.033 -0.5789  1.0690  1.2348
   46CHL1   H2B 3379   4.081   4.035   7.088  0.5573  0.3095 -0.9669
   46CHL1   C20 3380   4.268   3.912   8.029  0.1571 -0.5886  0.4393
   46CHL1   H20 3381   4.174   3.862   8.062  0.1744 -0.5929  0.4816
   46CHL1   C21 3382   4.245   4.066   8.020 -0.6678 -0.4198  0.0022
   46CHL1  H21A 3383   4.325   4.115   7.961  0.9378 -1.5243  1.1636
   46CHL1  H21B 3384   4.258   4.111   8.121 -2.8358 -0.4285  0.3392
   46CHL1  H21C 3385   4.143   4.082   7.979  0.6372  1.5871 -2.7222
   46CHL1   C22 3386   4.372   3.889   8.134  0.9630  0.0458  0.0618
   46CHL1  H22A 3387   4.398   3.781   8.135  0.0940 -0.2729 -2.4929
   46CHL1  H22B 3388   4.466   3.948   8.123  0.4651  0.3739 -4.0365
   46CHL1   C23 3389   4.322   3.926   8.269 -0.5369 -0.2003 -0.6826
   46CHL1  H23A 3390   4.348   4.030   8.298 -0.8428 -0.5002  0.7580
   46CHL1  H23B 3391   4.213   3.911   8.278 -0.3908 -1.2113 -0.4233
   46CHL1   C24 3392   4.397   3.848   8.378  0.4523  0.2359  1.0407
   46CHL1  H24A 3393   4.369   3.742   8.358  0.8237 -0.1172  2.3171
   46CHL1  H24B 3394   4.506   3.853   8.359  0.3365 -2.4886 -0.9805
   46CHL1   C25 3395   4.362   3.890   8.522  0.7851  0.4955 -0.2341
   46CHL1   H25 3396   4.388   3.997   8.536 -2.3281  1.2596  0.2031
   46CHL1   C26 3397   4.207   3.876   8.543 -0.1154 -0.1048  0.0424
   46CHL1  H26A 3398   4.146   3.936   8.472 -0.8780 -1.9075 -0.8660
   46CHL1  H26B 3399   4.187   3.769   8.525 -0.6255  0.3795 -2.8392
   46CHL1  H26C 3400   4.191   3.910   8.648 -0.4691 -0.5036  0.1177
   46CHL1   C27 3401   4.432   3.792   8.622  1.1726 -0.4121 -0.2158
   46CHL1  H27A 3402   4.542   3.790   8.605  0.9763  1.0270 -1.8935
   46CHL1  H27B 3403   4.399   3.797   8.728 -1.8246  0.6609 -1.0926
   46CHL1  H27C 3404   4.405   3.689   8.590  2.0765 -1.0396  0.9796
   47CHL1    C3 3405   2.119   3.701   6.705  0.4348  0.0354  0.2189
   47CHL1    H3 3406   2.128   3.796   6.762 -0.7321  1.1436 -1.3573
   47CHL1    O3 3407   2.099   3.738   6.570  0.2633 -0.3925 -0.4098
   47CHL1   H3' 3408   2.092   3.652   6.527  1.4328 -1.2063  0.9155
   47CHL1    C4 3409   2.240   3.609   6.744  0.1288 -0.0156  0.1451
   47CHL1   H4A 3410   2.233   3.526   6.671 -0.9672 -0.4001  0.6622
   47CHL1   H4B 3411   2.324   3.674   6.712  0.9111  0.5542  3.0398
   47CHL1    C5 3412   2.257   3.562   6.887  0.5841 -0.2442  0.1807
   47CHL1    C6 3413   2.362   3.591   6.967 -0.1160 -1.0301  0.8562
   47CHL1    H6 3414   2.442   3.659   6.935 -2.0385  1.8603  1.7626
   47CHL1    C7 3415   2.381   3.544   7.113 -0.5067 -0.3762  0.3621
   47CHL1   H7A 3416   2.477   3.488   7.112 -1.2005 -1.6210  1.2891
   47CHL1   H7B 3417   2.397   3.633   7.178  0.7223 -0.2008 -0.1425
   47CHL1    C8 3418   2.274   3.451   7.169 -0.6081  0.6708 -0.3929
   47CHL1    H8 3419   2.281   3.346   7.133 -1.5801  1.0697 -1.8482
   47CHL1   C14 3420   2.270   3.469   7.326 -0.0719  1.0102 -0.1338
   47CHL1   H14 3421   2.237   3.574   7.343 -2.4220 -0.1205  3.2277
   47CHL1   C15 3422   2.395   3.441   7.414  0.5440 -0.4435  0.9278
   47CHL1  H15A 3423   2.462   3.355   7.390 -0.0089 -0.9496  1.1842
   47CHL1  H15B 3424   2.455   3.534   7.405  0.4447 -0.3386  1.3685
   47CHL1   C16 3425   2.349   3.413   7.547  0.2094 -0.1314 -0.9733
   47CHL1  H16A 3426   2.372   3.305   7.562 -0.2595  0.0013  0.9161
   47CHL1  H16B 3427   2.410   3.466   7.622 -0.0538 -0.3745 -0.5833
   47CHL1   C17 3428   2.194   3.429   7.546 -0.1664 -0.0433  0.1027
   47CHL1   H17 3429   2.177   3.538   7.557  0.3936 -0.0597  1.3699
   47CHL1   C13 3430   2.151   3.395   7.403 -0.6865  0.4982  0.7509
   47CHL1   C18 3431   2.157   3.248   7.390  0.1117  0.0931  0.5266
   47CHL1  H18A 3432   2.145   3.218   7.283 -0.8589 -0.1223  0.6871
   47CHL1  H18B 3433   2.251   3.200   7.424  1.5992  1.7847 -0.9518
   47CHL1  H18C 3434   2.079   3.188   7.442  0.0944 -0.8711 -0.5529
   47CHL1   C12 3435   2.021   3.455   7.345  0.5847 -0.1456  1.0136
   47CHL1  H12A 3436   1.937   3.390   7.376 -1.8490  0.8777 -2.8079
   47CHL1  H12B 3437   2.002   3.562   7.369 -1.4187 -0.6694  1.9397
   47CHL1   C11 3438   2.013   3.434   7.184 -0.1340 -0.1129  0.4972
   47CHL1  H11A 3439   2.015   3.326   7.160  0.3791  0.0926 -0.4698
   47CHL1  H11B 3440   1.918   3.474   7.143  0.3133  1.3561  0.8225
   47CHL1    C9 3441   2.136   3.496   7.112 -0.7120  0.2317 -0.4171
   47CHL1    H9 3442   2.132   3.605   7.133 -0.1115  0.0482  0.7431
   47CHL1   C10 3443   2.135   3.494   6.955 -0.2250  0.5601 -0.0475
   47CHL1   C19 3444   2.123   3.347   6.897 -0.5637  0.1711 -0.7031
   47CHL1  H19A 3445   2.117   3.344   6.786 -2.2465  0.6311 -0.6536
   47CHL1  H19B 3446   2.211   3.288   6.930 -1.5389  0.2426  2.3812
   47CHL1  H19C 3447   2.034   3.300   6.945  0.4291 -0.5400  0.5030
   47CHL1    C1 3448   2.010   3.573   6.910  0.3217  0.2557 -0.2785
   47CHL1   H1A 3449   1.921   3.510   6.933 -0.1622  1.0167 -0.0511
   47CHL1   H1B 3450   2.008   3.666   6.970  0.3208 -0.1341  0.3295
   47CHL1    C2 3451   1.997   3.626   6.761  0.5882 -0.0673 -0.3078
   47CHL1   H2A 3452   1.902   3.682   6.747  0.5923  0.1733  0.5592
   47CHL1   H2B 3453   1.997   3.529   6.706  1.2237 -0.0196 -0.3929
   47CHL1   C20 3454   2.125   3.363   7.663 -0.3629 -1.1015 -0.1896
   47CHL1   H20 3455   2.154   3.256   7.666 -0.6630 -1.1645  0.9556
   47CHL1   C21 3456   1.973   3.367   7.658  0.3565  0.2891 -0.0336
   47CHL1  H21A 3457   1.934   3.350   7.761  0.5022  1.5053  0.2354
   47CHL1  H21B 3458   1.935   3.286   7.593  0.2978 -0.1011  0.4773
   47CHL1  H21C 3459   1.929   3.457   7.610 -1.6296 -0.8452 -0.4860
   47CHL1   C22 3460   2.176   3.422   7.796 -0.1572 -0.3724 -0.2467
   47CHL1  H22A 3461   2.286   3.427   7.790 -0.0663 -0.4363  1.1181
   47CHL1  H22B 3462   2.128   3.521   7.810 -0.2704 -0.5966  1.0840
   47CHL1   C23 3463   2.151   3.330   7.922  0.3849  0.5148  0.1048
   47CHL1  H23A 3464   2.044   3.306   7.939  0.7717 -0.3986  1.4127
   47CHL1  H23B 3465   2.197   3.230   7.905 -0.2800 -0.0325  1.3448
   47CHL1   C24 3466   2.212   3.381   8.051 -0.2595 -0.8597  0.3861
   47CHL1  H24A 3467   2.321   3.394   8.032 -0.6014  2.1440  0.0188
   47CHL1  H24B 3468   2.164   3.480   8.065 -0.2042 -0.6327 -0.9046
   47CHL1   C25 3469   2.179   3.297   8.176  0.5104  0.2813  0.2153
   47CHL1   H25 3470   2.236   3.337   8.263 -1.4775  4.0372 -0.0212
   47CHL1   C26 3471   2.036   3.310   8.215 -0.4050  0.2048  0.5289
   47CHL1  H26A 3472   2.007   3.418   8.214  1.5510  0.7619 -0.8319
   47CHL1  H26B 3473   1.978   3.264   8.132 -0.6712  0.5051  0.5441
   47CHL1  H26C 3474   2.000   3.260   8.307  0.0882 -0.0911  0.5594
   47CHL1   C27 3475   2.221   3.153   8.151 -0.2329  0.6433 -0.0741
   47CHL1  H27A 3476   2.190   3.097   8.242 -2.2644 -0.3902 -1.3372
   47CHL1  H27B 3477   2.171   3.104   8.065 -3.8621  3.4268  0.1503
   47CHL1  H27C 3478   2.330   3.151   8.132 -0.1046  0.4291  0.6465
   48CHL1    C3 3479   0.297   5.561   6.412 -0.1148 -0.1818  0.3929
   48CHL1    H3 3480   0.230   5.475   6.436 -1.4584  0.9295  0.7946
   48CHL1    O3 3481   0.345   5.555   6.273  0.6162  0.3008 -0.0672
   48CHL1   H3' 3482   0.431   5.598   6.284 -0.0718  1.3866  1.5376
   48CHL1    C4 3483   0.215   5.689   6.434  0.1197  0.2301  0.0537
   48CHL1   H4A 3484   0.279   5.774   6.403 -0.1221 -0.8144 -3.8775
   48CHL1   H4B 3485   0.135   5.684   6.357  0.1040 -2.1697  0.1579
   48CHL1    C5 3486   0.177   5.706   6.581  0.0502 -0.0919  0.4845
   48CHL1    C6 3487   0.050   5.717   6.627  0.7017 -0.1101  0.5338
   48CHL1    H6 3488  -0.029   5.713   6.550  1.1792  0.0395  0.0274
   48CHL1    C7 3489   0.022   5.763   6.765 -0.7403 -0.5454 -0.0444
   48CHL1   H7A 3490  -0.057   5.841   6.757 -2.2771 -2.1217 -1.1667
   48CHL1   H7B 3491  -0.021   5.677   6.821 -0.9050  0.6261  1.6947
   48CHL1    C8 3492   0.145   5.812   6.844 -0.4696 -0.3482 -0.4159
   48CHL1    H8 3493   0.162   5.918   6.812 -0.6462 -1.1522 -3.5239
   48CHL1   C14 3494   0.116   5.812   6.986  0.3181  0.1470  0.1689
   48CHL1   H14 3495   0.098   5.703   7.004  0.4614 -0.2810 -2.0137
   48CHL1   C15 3496  -0.020   5.872   7.034 -0.2148 -0.2539 -0.5551
   48CHL1  H15A 3497  -0.044   5.959   6.970 -1.0745 -0.4760 -0.5420
   48CHL1  H15B 3498  -0.094   5.791   7.019 -0.2845 -0.0096 -1.6020
   48CHL1   C16 3499   0.011   5.918   7.180 -0.1959 -0.1926  0.2111
   48CHL1  H16A 3500   0.016   6.029   7.176 -1.8436 -0.1322 -0.9892
   48CHL1  H16B 3501  -0.066   5.894   7.257  1.0009 -0.0148  1.5168
   48CHL1   C17 3502   0.147   5.856   7.222 -0.7755  0.6911  1.1612
   48CHL1   H17 3503   0.139   5.747   7.241 -3.0489  1.0713  2.7755
   48CHL1   C13 3504   0.224   5.853   7.079  0.3627 -0.7286  0.2803
   48CHL1   C18 3505   0.275   6.003   7.057  0.7955 -0.3048  0.3020
   48CHL1  H18A 3506   0.344   6.030   7.140 -1.3856 -0.4049  2.2417
   48CHL1  H18B 3507   0.322   6.017   6.957 -1.5434  0.7527 -0.7258
   48CHL1  H18C 3508   0.185   6.068   7.052 -0.3129 -1.8146  0.0373
   48CHL1   C12 3509   0.339   5.755   7.064 -0.2159 -0.3735 -0.2275
   48CHL1  H12A 3510   0.418   5.787   7.136 -0.9752 -0.4996  0.6917
   48CHL1  H12B 3511   0.311   5.653   7.096  3.3912 -0.7704  2.3736
   48CHL1   C11 3512   0.388   5.750   6.921  0.2834 -0.3692 -1.0747
   48CHL1  H11A 3513   0.451   5.839   6.899  1.5290 -0.6933  1.0010
   48CHL1  H11B 3514   0.464   5.670   6.923  2.2388  1.4189  1.1203
   48CHL1    C9 3515   0.268   5.714   6.825 -0.0623  0.1744  0.9190
   48CHL1    H9 3516   0.221   5.615   6.844 -1.7419  0.8734  0.5432
   48CHL1   C10 3517   0.302   5.715   6.673  0.3627  0.6007 -0.0535
   48CHL1   C19 3518   0.388   5.843   6.641 -0.0188 -0.3099  0.3277
   48CHL1  H19A 3519   0.480   5.832   6.701  0.0936 -1.4067 -0.0305
   48CHL1  H19B 3520   0.409   5.850   6.533  0.8991 -0.3340  0.5002
   48CHL1  H19C 3521   0.327   5.930   6.675  1.2097  0.9766 -0.6402
   48CHL1    C1 3522   0.390   5.578   6.653 -0.2895  0.5603  0.7197
   48CHL1   H1A 3523   0.481   5.572   6.718  0.7037 -0.9379 -0.7156
   48CHL1   H1B 3524   0.330   5.490   6.682 -0.7822  0.7377  0.2499
   48CHL1    C2 3525   0.425   5.556   6.502  0.1674 -0.3161 -0.1816
   48CHL1   H2A 3526   0.489   5.466   6.485  0.6159  0.4076 -2.8168
   48CHL1   H2B 3527   0.478   5.645   6.463 -0.2657 -0.4071 -1.0058
   48CHL1   C20 3528   0.212   5.900   7.352 -0.3531 -0.3587  0.6068
   48CHL1   H20 3529   0.231   6.008   7.334  2.1251 -1.0340 -1.4944
   48CHL1   C21 3530   0.352   5.833   7.368  0.1714  0.2748  0.1544
   48CHL1  H21A 3531   0.385   5.835   7.474 -0.7563  1.0637  0.4470
   48CHL1  H21B 3532   0.431   5.883   7.308 -0.0840 -0.2802 -0.6660
   48CHL1  H21C 3533   0.344   5.727   7.335 -1.5617  0.6495 -0.7915
   48CHL1   C22 3534   0.131   5.878   7.478  0.1761  0.3685  0.2777
   48CHL1  H22A 3535   0.028   5.915   7.460 -0.8619 -0.9200  3.0076
   48CHL1  H22B 3536   0.111   5.770   7.499  0.8312  0.4397  1.3657
   48CHL1   C23 3537   0.189   5.942   7.606  0.4247  0.1806 -0.0680
   48CHL1  H23A 3538   0.270   5.882   7.651  1.1964  1.2327 -0.0217
   48CHL1  H23B 3539   0.224   6.047   7.599  0.7413  0.1245  0.6218
   48CHL1   C24 3540   0.062   5.956   7.700 -0.4223  0.2342  0.2519
   48CHL1  H24A 3541  -0.022   6.015   7.658 -0.6620  1.1741  1.9871
   48CHL1  H24B 3542   0.017   5.858   7.726 -2.9958  1.4842  0.7465
   48CHL1   C25 3543   0.095   6.023   7.831  0.1805  0.1099  0.0465
   48CHL1   H25 3544   0.140   6.123   7.810 -1.3385  0.7722 -0.1564
   48CHL1   C26 3545  -0.030   6.042   7.922 -0.5669  1.1682 -0.2486
   48CHL1  H26A 3546  -0.005   6.087   8.020 -1.4412  0.9776  0.0673
   48CHL1  H26B 3547  -0.103   6.102   7.864  0.2441  0.4500 -2.0918
   48CHL1  H26C 3548  -0.084   5.948   7.945 -1.3230  0.7605 -3.2223
   48CHL1   C27 3549   0.206   5.947   7.914 -0.1318  0.1996 -0.6844
   48CHL1  H27A 3550   0.189   5.838   7.914  0.7299  0.0636 -0.7863
   48CHL1  H27B 3551   0.308   5.977   7.880  0.2450  1.1830  1.2031
   48CHL1  H27C 3552   0.193   5.979   8.019  0.9072 -1.3850 -0.0567
   49CHL1    C3 3553   5.875   6.794   6.747  0.0881  0.2764 -0.1296
   49CHL1    H3 3554   5.802   6.749   6.817 -2.2328 -0.1143 -2.6409
   49CHL1    O3 3555   5.819   6.782   6.619  0.1206  0.3780  0.0243
   49CHL1   H3' 3556   5.725   6.790   6.634 -0.0818  1.4663 -1.5756
   49CHL1    C4 3557   5.896   6.939   6.776 -0.2375 -0.0856  0.0807
   49CHL1   H4A 3558   5.969   6.975   6.699 -0.2998  0.8536  0.4432
   49CHL1   H4B 3559   5.808   6.998   6.744 -0.8864 -0.7993  0.5292
   49CHL1    C5 3560   5.937   6.971   6.919 -0.3220  0.9637  0.6417
   49CHL1    C6 3561   5.873   7.050   7.000  0.8918 -0.1558 -0.3647
   49CHL1    H6 3562   5.785   7.102   6.961  0.8742 -0.0691 -0.2081
   49CHL1    C7 3563   5.920   7.078   7.138 -0.3119  0.3798 -0.0825
   49CHL1   H7A 3564   5.926   7.188   7.153  0.0973  0.4386 -0.6138
   49CHL1   H7B 3565   5.848   7.047   7.216  0.4197  0.5620  0.6722
   49CHL1    C8 3566   6.064   7.032   7.174 -0.0223  0.1701  0.1313
   49CHL1    H8 3567   6.142   7.100   7.135 -1.1187  1.4744  0.1386
   49CHL1   C14 3568   6.077   7.021   7.321  0.7920  0.5382  0.1132
   49CHL1   H14 3569   6.002   6.952   7.367 -1.8107  2.1761 -1.4409
   49CHL1   C15 3570   6.064   7.155   7.405  0.1640 -0.6899 -0.3104
   49CHL1  H15A 3571   6.107   7.241   7.348 -0.7364 -0.6411 -0.9344
   49CHL1  H15B 3572   5.960   7.186   7.425  0.7381  0.2258  1.4454
   49CHL1   C16 3573   6.137   7.125   7.533  0.3068 -0.5014 -0.0130
   49CHL1  H16A 3574   6.216   7.204   7.531  0.4819 -0.6325  1.0835
   49CHL1  H16B 3575   6.074   7.137   7.624  0.6133 -0.0602  0.1494
   49CHL1   C17 3576   6.205   6.985   7.519 -0.1580 -0.2309 -0.1175
   49CHL1   H17 3577   6.130   6.914   7.560 -0.4941 -1.4156 -2.5595
   49CHL1   C13 3578   6.214   6.957   7.364  0.5249  0.0419 -0.3081
   49CHL1   C18 3579   6.332   7.044   7.312 -0.1883 -0.1939 -0.5363
   49CHL1  H18A 3580   6.432   7.017   7.351 -1.2882 -1.6309  1.4862
   49CHL1  H18B 3581   6.335   7.036   7.201  1.6235 -2.3162 -0.4162
   49CHL1  H18C 3582   6.320   7.151   7.337 -2.1438 -0.1041 -1.6383
   49CHL1   C12 3583   6.213   6.807   7.320  0.5961  0.0870  0.2027
   49CHL1  H12A 3584   6.310   6.758   7.341  0.6341  0.6705  1.4594
   49CHL1  H12B 3585   6.127   6.754   7.367 -0.3237  2.1219  0.8949
   49CHL1   C11 3586   6.193   6.804   7.168 -0.8648 -0.5770  0.6431
   49CHL1  H11A 3587   6.288   6.828   7.115 -1.1791 -0.0737  0.3017
   49CHL1  H11B 3588   6.171   6.698   7.143  0.6520 -1.0660  1.2347
   49CHL1    C9 3589   6.074   6.888   7.119 -0.2896 -0.4116 -0.8808
   49CHL1    H9 3590   5.983   6.834   7.153  0.4854 -1.0519  0.2335
   49CHL1   C10 3591   6.065   6.892   6.963  0.2528 -0.1962  0.9419
   49CHL1   C19 3592   6.186   6.950   6.886 -0.5105 -0.0530  0.0686
   49CHL1  H19A 3593   6.161   6.967   6.779  0.4725  1.1247  0.0006
   49CHL1  H19B 3594   6.204   7.046   6.939 -0.7797  0.0662 -0.0577
   49CHL1  H19C 3595   6.282   6.893   6.883 -0.5671 -0.1191 -1.6553
   49CHL1    C1 3596   6.054   6.746   6.917 -0.6162  0.7188  0.9506
   49CHL1   H1A 3597   6.150   6.691   6.929 -0.2831  1.2170  0.6209
   49CHL1   H1B 3598   5.980   6.682   6.968 -0.9161 -1.1179 -1.5971
   49CHL1    C2 3599   6.011   6.722   6.767  0.0597 -0.5535 -0.6268
   49CHL1   H2A 3600   6.007   6.613   6.745 -1.0498 -0.9783  1.3819
   49CHL1   H2B 3601   6.083   6.775   6.701  2.6677 -1.8269  0.9961
   49CHL1   C20 3602   6.329   6.975   7.606  0.3110 -0.0932 -0.4771
   49CHL1   H20 3603   6.402   7.035   7.547 -0.1075  0.3753 -0.5249
   49CHL1   C21 3604   6.376   6.832   7.623  0.1936 -0.6239 -0.1259
   49CHL1  H21A 3605   6.422   6.797   7.528 -1.1797 -2.6243 -0.1253
   49CHL1  H21B 3606   6.294   6.761   7.650  0.5344 -1.2046 -0.6176
   49CHL1  H21C 3607   6.461   6.829   7.695  0.0540  0.1473  0.0826
   49CHL1   C22 3608   6.314   7.036   7.747  0.0730 -0.2796  0.1305
   49CHL1  H22A 3609   6.206   7.025   7.768  0.2671  0.6397  1.8112
   49CHL1  H22B 3610   6.379   6.979   7.817  1.0653  1.2330  0.4869
   49CHL1   C23 3611   6.356   7.183   7.766 -0.1928 -0.2515 -0.0708
   49CHL1  H23A 3612   6.454   7.186   7.712 -1.3556  0.4490 -2.2747
   49CHL1  H23B 3613   6.285   7.251   7.714  0.3350 -0.9779 -1.8127
   49CHL1   C24 3614   6.374   7.217   7.913 -0.0833  0.1554  0.1954
   49CHL1  H24A 3615   6.273   7.201   7.957 -0.2465 -0.7395 -0.4764
   49CHL1  H24B 3616   6.450   7.152   7.961 -0.4500  0.9776  1.9589
   49CHL1   C25 3617   6.408   7.362   7.943  0.0263 -0.0942  0.0902
   49CHL1   H25 3618   6.340   7.433   7.890  0.0489 -1.6274 -2.1420
   49CHL1   C26 3619   6.397   7.391   8.093  0.0471  0.0551  0.2332
   49CHL1  H26A 3620   6.416   7.498   8.118 -1.5815  0.7054 -1.1314
   49CHL1  H26B 3621   6.291   7.380   8.123  0.1421  1.3697  1.1269
   49CHL1  H26C 3622   6.470   7.331   8.151 -1.8169 -1.2252  1.3503
   49CHL1   C27 3623   6.553   7.392   7.902  0.7118  0.7754  0.3261
   49CHL1  H27A 3624   6.617   7.314   7.948 -0.5165  0.3398  1.3901
   49CHL1  H27B 3625   6.558   7.375   7.792 -1.6692 -0.5452  0.3504
   49CHL1  H27C 3626   6.572   7.497   7.933  0.1294  0.6603  1.1116
   50CHL1    C3 3627   5.952   1.591   6.891  0.1051 -0.3523  0.6482
   50CHL1    H3 3628   5.857   1.641   6.920 -0.2054 -0.6784  0.2067
   50CHL1    O3 3629   5.972   1.597   6.746  0.2153  0.0370  0.3077
   50CHL1   H3' 3630   5.993   1.688   6.722  0.8778 -0.4982 -1.2195
   50CHL1    C4 3631   6.069   1.655   6.958  0.0623 -0.1038  0.1283
   50CHL1   H4A 3632   6.163   1.599   6.940 -0.0852 -0.1906 -0.3669
   50CHL1   H4B 3633   6.088   1.756   6.918 -0.7198 -0.3058 -0.7740
   50CHL1    C5 3634   6.053   1.661   7.110  0.3487  0.3326 -0.2010
   50CHL1    C6 3635   6.072   1.775   7.173  0.4530  0.6292  0.0811
   50CHL1    H6 3636   6.095   1.865   7.114  0.8760 -0.1866 -1.0195
   50CHL1    C7 3637   6.065   1.786   7.324 -0.1578 -0.2921 -0.2325
   50CHL1   H7A 3638   6.137   1.856   7.371 -1.1945  1.1739 -0.7494
   50CHL1   H7B 3639   5.963   1.825   7.344  0.3175  1.6885 -1.3961
   50CHL1    C8 3640   6.081   1.641   7.398  0.3963  0.0140  0.7462
   50CHL1    H8 3641   6.188   1.613   7.391  0.8138  1.3654  1.3408
   50CHL1   C14 3642   6.040   1.657   7.547  0.2437 -0.3693  0.4470
   50CHL1   H14 3643   5.938   1.700   7.532 -0.5579 -2.8277 -1.9107
   50CHL1   C15 3644   6.104   1.763   7.635  0.2550 -0.4217  0.3146
   50CHL1  H15A 3645   6.214   1.748   7.642  0.3559  0.4455  0.7272
   50CHL1  H15B 3646   6.078   1.869   7.618 -0.9023 -0.9376 -1.4015
   50CHL1   C16 3647   6.028   1.739   7.765 -0.4395  0.0608 -0.1997
   50CHL1  H16A 3648   6.092   1.757   7.853 -2.0763 -0.4420  1.1364
   50CHL1  H16B 3649   5.946   1.811   7.787 -0.3479 -0.3430  1.5993
   50CHL1   C17 3650   5.958   1.592   7.761 -0.4876  0.4415 -0.1710
   50CHL1   H17 3651   5.854   1.623   7.739 -0.3037  1.7957  0.7238
   50CHL1   C13 3652   6.016   1.529   7.631 -0.2663 -0.5248 -0.5659
   50CHL1   C18 3653   6.155   1.481   7.673 -0.1748 -1.0304 -0.6251
   50CHL1  H18A 3654   6.215   1.555   7.731  2.6218 -4.5265  1.4102
   50CHL1  H18B 3655   6.154   1.390   7.736  0.4887 -0.9385 -0.4744
   50CHL1  H18C 3656   6.214   1.457   7.581 -2.6915 -0.6522 -2.4332
   50CHL1   C12 3657   5.929   1.440   7.552  0.2314 -0.1089 -0.1575
   50CHL1  H12A 3658   5.921   1.342   7.602  1.6095 -0.3289 -0.3385
   50CHL1  H12B 3659   5.825   1.475   7.533  0.0529  0.2772  1.3871
   50CHL1   C11 3660   5.986   1.408   7.414 -0.3781 -0.0184  0.9511
   50CHL1  H11A 3661   6.086   1.358   7.418 -0.8760 -1.0338  0.9588
   50CHL1  H11B 3662   5.911   1.345   7.362 -0.0686  1.0731 -0.8996
   50CHL1    C9 3663   5.998   1.540   7.325  0.4566  1.1516 -0.0635
   50CHL1    H9 3664   5.892   1.575   7.320 -0.4616 -1.4524 -0.0411
   50CHL1   C10 3665   6.029   1.520   7.177  0.5147 -0.7428  0.1269
   50CHL1   C19 3666   6.144   1.437   7.156 -0.1426  0.5537 -0.7887
   50CHL1  H19A 3667   6.174   1.432   7.049  2.7344 -0.0816 -0.0284
   50CHL1  H19B 3668   6.232   1.483   7.205  0.8502  1.6321 -3.3746
   50CHL1  H19C 3669   6.125   1.335   7.196  0.0938  1.4628  1.8146
   50CHL1    C1 3670   5.908   1.445   7.099 -0.3970  0.2145 -0.1376
   50CHL1   H1A 3671   5.906   1.335   7.118 -0.2595  0.0253 -1.1568
   50CHL1   H1B 3672   5.812   1.494   7.126 -1.2032 -1.4637  0.1534
   50CHL1    C2 3673   5.919   1.451   6.946 -0.4527  0.4084 -0.6032
   50CHL1   H2A 3674   5.823   1.420   6.901 -0.2006 -0.6624 -0.4281
   50CHL1   H2B 3675   6.004   1.386   6.917 -1.0091 -0.5784 -0.0757
   50CHL1   C20 3676   5.964   1.516   7.890  0.4169  0.1563  1.1694
   50CHL1   H20 3677   6.072   1.496   7.909  0.3475 -0.3692  1.0325
   50CHL1   C21 3678   5.885   1.386   7.877 -0.5918  1.1459 -0.3958
   50CHL1  H21A 3679   5.784   1.401   7.833 -2.0045 -1.9548  1.4780
   50CHL1  H21B 3680   5.884   1.328   7.972 -5.3969  2.0782  0.3510
   50CHL1  H21C 3681   5.937   1.322   7.803  0.1981 -1.0189  1.9031
   50CHL1   C22 3682   5.923   1.602   8.011 -0.2758  0.2625  0.0423
   50CHL1  H22A 3683   5.982   1.696   8.008 -0.8241  0.5874 -2.3955
   50CHL1  H22B 3684   5.824   1.645   7.986 -1.4215 -2.2845 -0.0951
   50CHL1   C23 3685   5.932   1.537   8.143 -0.6102  0.0977  0.1943
   50CHL1  H23A 3686   5.867   1.447   8.154  2.0030 -1.6923  2.2059
   50CHL1  H23B 3687   6.035   1.505   8.168  0.1001  3.3869  2.0283
   50CHL1   C24 3688   5.878   1.637   8.252 -0.9093 -0.0036 -0.2316
   50CHL1  H24A 3689   5.926   1.736   8.236 -1.6908  0.1466 -1.9493
   50CHL1  H24B 3690   5.767   1.643   8.252 -0.8353  1.9218  0.5063
   50CHL1   C25 3691   5.906   1.594   8.401  0.0777 -1.2736  0.3397
   50CHL1   H25 3692   6.011   1.556   8.403  0.7046  0.2169 -1.1408
   50CHL1   C26 3693   5.907   1.718   8.488  0.7705 -0.3375 -0.2899
   50CHL1  H26A 3694   5.806   1.746   8.525 -0.0146 -3.3045  0.0983
   50CHL1  H26B 3695   5.961   1.698   8.583 -0.7574 -2.4970  0.1966
   50CHL1  H26C 3696   5.954   1.803   8.435  1.3959  0.0453  0.8520
   50CHL1   C27 3697   5.802   1.499   8.458 -0.0775  0.3009  0.3039
   50CHL1  H27A 3698   5.840   1.447   8.548 -0.0473 -1.4426 -0.6733
   50CHL1  H27B 3699   5.705   1.547   8.484 -0.0002 -0.0813  1.3296
   50CHL1  H27C 3700   5.788   1.417   8.385 -2.1663 -0.2403  1.2612
   51CHL1    C3 3701   5.530   0.677   6.849 -0.3701  0.0444 -0.0787
   51CHL1    H3 3702   5.435   0.733   6.852 -0.5360 -0.2302 -0.1637
   51CHL1    O3 3703   5.546   0.612   6.720 -0.1049  0.1157 -0.5157
   51CHL1   H3' 3704   5.635   0.578   6.710 -0.2071 -0.4024  0.2062
   51CHL1    C4 3705   5.660   0.750   6.886 -0.3641  0.2136 -0.3675
   51CHL1   H4A 3706   5.735   0.668   6.883  0.1346  0.6696 -0.4041
   51CHL1   H4B 3707   5.688   0.814   6.800 -1.5017 -2.1154 -2.6004
   51CHL1    C5 3708   5.650   0.810   7.023 -0.2583 -0.7826  0.0246
   51CHL1    C6 3709   5.666   0.940   7.044  0.7415 -0.7049  0.1236
   51CHL1    H6 3710   5.682   1.008   6.960 -1.1656  0.4090  0.5965
   51CHL1    C7 3711   5.675   0.995   7.180 -0.4253  0.2393 -0.2409
   51CHL1   H7A 3712   5.757   1.069   7.175 -0.9049  0.7096 -1.4312
   51CHL1   H7B 3713   5.580   1.043   7.211 -0.0428 -0.5261  2.3421
   51CHL1    C8 3714   5.706   0.895   7.285  0.7407 -0.1102  0.1025
   51CHL1    H8 3715   5.812   0.868   7.264  1.0951  0.5143  1.0074
   51CHL1   C14 3716   5.686   0.950   7.431  0.3154 -0.3232  0.3818
   51CHL1   H14 3717   5.582   0.986   7.442 -0.5674 -2.4952 -0.3391
   51CHL1   C15 3718   5.794   1.062   7.457  0.2544  0.3871 -0.2240
   51CHL1  H15A 3719   5.891   1.023   7.418 -0.1672  2.2220 -3.5403
   51CHL1  H15B 3720   5.771   1.155   7.400 -0.2909  0.3057 -0.1437
   51CHL1   C16 3721   5.789   1.071   7.611 -0.3938 -0.2402 -0.0992
   51CHL1  H16A 3722   5.896   1.059   7.638  0.5153  2.6992 -1.8620
   51CHL1  H16B 3723   5.774   1.169   7.661 -0.3559 -0.0631 -0.4297
   51CHL1   C17 3724   5.702   0.955   7.666 -0.4845  0.1104  0.0091
   51CHL1   H17 3725   5.597   0.992   7.674 -1.3646 -2.4423  1.2936
   51CHL1   C13 3726   5.706   0.849   7.548 -0.0790 -1.2400 -0.6105
   51CHL1   C18 3727   5.839   0.779   7.535  0.4253 -0.0405  0.5997
   51CHL1  H18A 3728   5.851   0.735   7.434  1.2022  0.0860  0.6356
   51CHL1  H18B 3729   5.924   0.848   7.551  0.8751 -1.1373  3.3833
   51CHL1  H18C 3730   5.846   0.691   7.602 -1.7555 -0.2492  0.6421
   51CHL1   C12 3731   5.585   0.753   7.531  0.1051  1.1723 -0.2697
   51CHL1  H12A 3732   5.583   0.672   7.607 -0.4197 -0.5954 -2.0820
   51CHL1  H12B 3733   5.487   0.803   7.544 -1.0305 -0.8269 -0.7267
   51CHL1   C11 3734   5.599   0.673   7.394  0.1910 -1.1269 -0.0559
   51CHL1  H11A 3735   5.690   0.610   7.399  1.4135  0.4544 -1.0186
   51CHL1  H11B 3736   5.508   0.611   7.381 -1.2659  1.2643 -2.5884
   51CHL1    C9 3737   5.611   0.770   7.271 -0.0770  0.3481  0.2839
   51CHL1    H9 3738   5.507   0.810   7.266 -0.6847 -0.8322  2.3320
   51CHL1   C10 3739   5.631   0.703   7.135  0.5940 -0.6021 -0.4290
   51CHL1   C19 3740   5.748   0.609   7.142 -0.1002 -0.4233  0.2974
   51CHL1  H19A 3741   5.844   0.653   7.176 -1.0328  1.0529  1.0869
   51CHL1  H19B 3742   5.723   0.528   7.213  1.7175 -0.4811  0.9165
   51CHL1  H19C 3743   5.755   0.555   7.045 -0.9982  2.9550 -1.8128
   51CHL1    C1 3744   5.506   0.610   7.101 -0.6448 -0.5252  0.3328
   51CHL1   H1A 3745   5.493   0.521   7.166 -0.7012 -0.3451  0.5706
   51CHL1   H1B 3746   5.416   0.674   7.109  0.3322  0.8548  0.7720
   51CHL1    C2 3747   5.508   0.561   6.953 -0.3280  0.0827  0.4158
   51CHL1   H2A 3748   5.408   0.515   6.941 -0.5956  0.7595 -0.0409
   51CHL1   H2B 3749   5.588   0.485   6.939 -0.6015 -0.7462  2.9018
   51CHL1   C20 3750   5.758   0.912   7.804 -0.2516  0.7043 -0.2710
   51CHL1   H20 3751   5.861   0.872   7.806 -0.1188  1.0237 -0.7059
   51CHL1   C21 3752   5.679   0.790   7.845 -0.7908  0.2944  0.0932
   51CHL1  H21A 3753   5.711   0.745   7.942 -0.7376  0.1069 -0.0107
   51CHL1  H21B 3754   5.697   0.714   7.766  0.8403  0.0400  0.6556
   51CHL1  H21C 3755   5.570   0.808   7.850 -0.9356 -0.4851 -0.1431
   51CHL1   C22 3756   5.742   1.010   7.917 -0.4254 -0.7459 -0.8311
   51CHL1  H22A 3757   5.762   1.115   7.885  0.6905 -0.3991  0.8452
   51CHL1  H22B 3758   5.637   1.007   7.954  0.0310  0.2411  0.6424
   51CHL1   C23 3759   5.832   0.977   8.038 -0.2301  0.3331  0.4335
   51CHL1  H23A 3760   5.786   1.042   8.116 -0.3919  0.2747  0.3868
   51CHL1  H23B 3761   5.812   0.872   8.069 -0.9389  0.7363  1.4191
   51CHL1   C24 3762   5.979   1.002   8.027  0.2522  0.0666  0.2460
   51CHL1  H24A 3763   6.037   0.919   7.980  1.8617  1.7640 -0.8901
   51CHL1  H24B 3764   5.995   1.090   7.962  1.2348 -0.4906 -0.2968
   51CHL1   C25 3765   6.050   1.029   8.166  0.3151 -0.4575 -0.5411
   51CHL1   H25 3766   5.993   1.105   8.224 -1.4037 -2.5355  0.6514
   51CHL1   C26 3767   6.052   0.897   8.253 -0.1397  0.0733  0.7836
   51CHL1  H26A 3768   6.088   0.811   8.194  0.0635  1.6825 -1.5684
   51CHL1  H26B 3769   6.125   0.913   8.335 -0.5927  1.9665  0.8845
   51CHL1  H26C 3770   5.949   0.871   8.286  0.1852 -1.3297  0.7363
   51CHL1   C27 3771   6.191   1.071   8.146  0.3689  0.4020  0.3430
   51CHL1  H27A 3772   6.251   0.980   8.126 -1.2785 -0.4093 -1.2520
   51CHL1  H27B 3773   6.216   1.157   8.079  1.6611  1.6928  2.3754
   51CHL1  H27C 3774   6.226   1.113   8.242 -0.6602 -3.1155  2.4208
   52CHL1    C3 3775   2.095   1.339   6.751 -0.7755 -0.4666  0.6657
   52CHL1    H3 3776   1.988   1.342   6.721 -0.3927 -0.1242 -0.7430
   52CHL1    O3 3777   2.172   1.358   6.643 -0.5187  0.5868  0.7178
   52CHL1   H3' 3778   2.259   1.349   6.681 -0.1518 -1.3711 -0.4063
   52CHL1    C4 3779   2.131   1.447   6.857  0.0858 -0.6667 -0.1696
   52CHL1   H4A 3780   2.241   1.456   6.862  0.2082 -1.5184 -1.1884
   52CHL1   H4B 3781   2.107   1.549   6.819  1.6413  1.0097  2.9199
   52CHL1    C5 3782   2.066   1.420   6.989  0.3557 -0.5837  0.4013
   52CHL1    C6 3783   1.999   1.519   7.050  0.4615  0.4103  0.1468
   52CHL1    H6 3784   2.003   1.620   7.006 -0.7292 -0.0215 -1.0520
   52CHL1    C7 3785   1.956   1.522   7.199 -0.0454  0.1743 -0.8464
   52CHL1   H7A 3786   1.997   1.607   7.256  1.6982 -1.4671  0.4510
   52CHL1   H7B 3787   1.845   1.517   7.204  0.0244 -0.4091  0.7338
   52CHL1    C8 3788   2.008   1.390   7.265 -0.1528 -0.0217  0.0818
   52CHL1    H8 3789   2.115   1.405   7.289 -0.0921 -0.0239 -0.1863
   52CHL1   C14 3790   1.935   1.356   7.392 -0.3150  0.0171 -0.2166
   52CHL1   H14 3791   1.830   1.332   7.364 -0.6746  0.3261  0.8121
   52CHL1   C15 3792   1.924   1.479   7.499 -0.2808 -0.1800 -0.2095
   52CHL1  H15A 3793   2.023   1.529   7.501 -0.5523  0.4226 -1.3776
   52CHL1  H15B 3794   1.851   1.555   7.466 -2.0956 -1.2189  1.2148
   52CHL1   C16 3795   1.893   1.401   7.629 -0.8147  0.1269  0.8689
   52CHL1  H16A 3796   1.969   1.431   7.705  0.4840 -2.1792  0.5688
   52CHL1  H16B 3797   1.796   1.433   7.674 -0.7518  0.0437  1.0667
   52CHL1   C17 3798   1.891   1.245   7.592 -0.6273  0.3359 -0.2983
   52CHL1   H17 3799   1.786   1.222   7.562 -1.4869  2.7377  0.6929
   52CHL1   C13 3800   1.983   1.234   7.474 -0.1719  0.7831 -0.3910
   52CHL1   C18 3801   2.125   1.240   7.528  0.1092 -0.8188  0.1779
   52CHL1  H18A 3802   2.154   1.142   7.570  0.2300 -0.9420 -0.1875
   52CHL1  H18B 3803   2.198   1.250   7.445 -0.2999  1.5989  0.0347
   52CHL1  H18C 3804   2.143   1.319   7.604 -1.4376 -0.8254  0.5839
   52CHL1   C12 3805   1.969   1.113   7.386  0.3746  0.0799  0.2142
   52CHL1  H12A 3806   2.008   1.027   7.444  1.0433 -0.4090 -0.9229
   52CHL1  H12B 3807   1.859   1.107   7.372  0.1884  2.4166  0.2569
   52CHL1   C11 3808   2.051   1.127   7.249 -0.4541 -0.3082 -0.2132
   52CHL1  H11A 3809   2.156   1.140   7.284 -1.0300  1.0776  1.1047
   52CHL1  H11B 3810   2.029   1.033   7.193  2.0911 -1.3641  0.3848
   52CHL1    C9 3811   2.013   1.259   7.178  0.5915  0.3946 -0.4248
   52CHL1    H9 3812   1.907   1.238   7.151  1.0725 -2.3854 -0.4363
   52CHL1   C10 3813   2.087   1.282   7.044 -0.0013  0.3798  0.5576
   52CHL1   C19 3814   2.235   1.266   7.073 -0.5941 -0.1329  0.0963
   52CHL1  H19A 3815   2.258   1.159   7.092  0.8153  0.2357  0.5717
   52CHL1  H19B 3816   2.301   1.296   6.989 -0.7102  0.4274  0.1997
   52CHL1  H19C 3817   2.272   1.326   7.159 -0.7794 -0.4168  0.3743
   52CHL1    C1 3818   2.045   1.173   6.937  0.5196 -0.1187  0.3441
   52CHL1   H1A 3819   2.078   1.076   6.979  0.5732 -0.0239  0.5196
   52CHL1   H1B 3820   1.936   1.168   6.914  0.4568  0.6159  0.4319
   52CHL1    C2 3821   2.122   1.193   6.805 -0.2490 -0.4770 -0.0755
   52CHL1   H2A 3822   2.083   1.134   6.719  0.0860  1.1803 -1.4098
   52CHL1   H2B 3823   2.229   1.162   6.811  0.0177  0.4744  0.2490
   52CHL1   C20 3824   1.912   1.152   7.722 -0.2921 -0.4327 -0.1839
   52CHL1   H20 3825   2.016   1.172   7.757 -0.4767  1.4049 -0.6032
   52CHL1   C21 3826   1.895   1.004   7.692 -0.3670  1.2624 -0.3736
   52CHL1  H21A 3827   1.930   0.951   7.783  1.2658 -2.4432 -2.8813
   52CHL1  H21B 3828   1.967   0.961   7.618 -0.4269  0.8066 -0.1749
   52CHL1  H21C 3829   1.791   0.988   7.656 -1.1684  2.4651  1.2956
   52CHL1   C22 3830   1.833   1.192   7.850  0.5605  0.6337 -0.6373
   52CHL1  H22A 3831   1.854   1.296   7.882  0.0674  0.0704  1.7023
   52CHL1  H22B 3832   1.725   1.196   7.826  0.3214  0.1193  0.3323
   52CHL1   C23 3833   1.859   1.107   7.979 -0.3199  0.0782  0.5454
   52CHL1  H23A 3834   1.808   1.009   7.967 -0.3559  0.2450 -0.8165
   52CHL1  H23B 3835   1.969   1.093   7.984  0.0878  2.0195 -1.3128
   52CHL1   C24 3836   1.811   1.164   8.116 -0.1467  0.0108 -0.8278
   52CHL1  H24A 3837   1.701   1.184   8.119 -0.3122 -0.9948  0.2410
   52CHL1  H24B 3838   1.831   1.082   8.187 -0.1650  0.4473 -0.3107
   52CHL1   C25 3839   1.874   1.293   8.164  0.2769  0.2103  0.2387
   52CHL1   H25 3840   1.838   1.374   8.097  0.1730  0.4727  0.6080
   52CHL1   C26 3841   1.830   1.332   8.308  0.0423 -0.0376  0.4466
   52CHL1  H26A 3842   1.876   1.266   8.384  0.2730 -0.6749 -0.2368
   52CHL1  H26B 3843   1.857   1.440   8.309 -2.2586  0.6445 -1.0903
   52CHL1  H26C 3844   1.719   1.322   8.317 -0.1104  1.1806  0.2080
   52CHL1   C27 3845   2.026   1.291   8.171 -1.7549 -0.0616  0.5469
   52CHL1  H27A 3846   2.068   1.272   8.070  0.7440 -0.5840  1.6103
   52CHL1  H27B 3847   2.064   1.393   8.198  0.5772 -0.5054 -0.8155
   52CHL1  H27C 3848   2.059   1.218   8.248  0.4794 -0.9885 -1.1856
   53CHL1    C3 3849   3.125   4.590   6.990  0.3912  0.0926 -0.2312
   53CHL1    H3 3850   3.170   4.680   7.036  1.5406 -1.3674  1.6620
   53CHL1    O3 3851   3.108   4.604   6.850  0.3905 -0.4315  0.2314
   53CHL1   H3' 3852   3.176   4.662   6.816 -1.3661  1.1313 -0.7886
   53CHL1    C4 3853   3.220   4.477   7.030 -0.7415 -0.0664  0.2209
   53CHL1   H4A 3854   3.189   4.381   6.982  4.7745 -0.7580 -2.8567
   53CHL1   H4B 3855   3.316   4.503   6.982 -1.7087  0.4197 -1.5131
   53CHL1    C5 3856   3.233   4.459   7.181 -0.1358  0.1398  0.1575
   53CHL1    C6 3857   3.356   4.459   7.244 -0.4145  0.6327  0.1516
   53CHL1    H6 3858   3.447   4.453   7.181 -0.5558 -0.0315 -0.0037
   53CHL1    C7 3859   3.376   4.454   7.390  0.2354 -0.3224  0.4403
   53CHL1   H7A 3860   3.464   4.390   7.415 -0.7989 -1.5418  1.0513
   53CHL1   H7B 3861   3.400   4.555   7.429 -1.2180  0.9043 -1.6545
   53CHL1    C8 3862   3.256   4.393   7.467 -0.1447 -0.3745  1.1567
   53CHL1    H8 3863   3.239   4.287   7.442 -2.7803 -0.4140  2.7012
   53CHL1   C14 3864   3.267   4.394   7.616 -0.3486 -0.2959 -0.8876
   53CHL1   H14 3865   3.281   4.502   7.642  1.0845 -0.6543 -0.0415
   53CHL1   C15 3866   3.388   4.315   7.673 -0.5590 -0.2888 -0.3730
   53CHL1  H15A 3867   3.418   4.228   7.611  1.1261  1.1400 -1.6617
   53CHL1  H15B 3868   3.476   4.383   7.669 -0.0400 -0.9705 -0.7354
   53CHL1   C16 3869   3.349   4.274   7.820  0.1529 -0.2751 -0.1111
   53CHL1  H16A 3870   3.344   4.163   7.824  0.4577 -0.3225  4.4429
   53CHL1  H16B 3871   3.409   4.314   7.905 -1.2948 -0.3671  1.0041
   53CHL1   C17 3872   3.206   4.330   7.829  0.4028 -0.2688  0.5631
   53CHL1   H17 3873   3.218   4.436   7.858 -1.5641  0.3941 -0.8356
   53CHL1   C13 3874   3.150   4.333   7.689 -0.0009  0.6007 -0.1520
   53CHL1   C18 3875   3.110   4.191   7.650  0.1885 -0.6466 -0.0755
   53CHL1  H18A 3876   3.023   4.153   7.709  0.7172 -2.1604 -0.2430
   53CHL1  H18B 3877   3.082   4.183   7.543 -0.4425 -0.4437  0.0651
   53CHL1  H18C 3878   3.188   4.114   7.661  1.7347  0.6296 -1.5621
   53CHL1   C12 3879   3.027   4.425   7.656 -0.5867  0.6034  0.6601
   53CHL1  H12A 3880   2.938   4.378   7.704 -0.1149 -2.3175 -1.0659
   53CHL1  H12B 3881   3.062   4.516   7.709  1.4528  0.4488 -0.3255
   53CHL1   C11 3882   3.007   4.448   7.504 -0.3510  0.4144  0.4584
   53CHL1  H11A 3883   2.943   4.363   7.472 -0.4266  0.3980  0.6502
   53CHL1  H11B 3884   2.946   4.539   7.487 -1.5933 -0.1745  1.5805
   53CHL1    C9 3885   3.132   4.465   7.420  0.2058  0.1984  0.0241
   53CHL1    H9 3886   3.164   4.571   7.433  0.0878  0.4804 -1.6775
   53CHL1   C10 3887   3.108   4.452   7.263  0.9678 -0.6767 -0.6224
   53CHL1   C19 3888   3.046   4.310   7.239 -0.3151  0.0274  0.0169
   53CHL1  H19A 3889   3.108   4.226   7.279  0.8842  0.3179 -1.1627
   53CHL1  H19B 3890   2.949   4.300   7.293  0.3495  2.0611  1.7264
   53CHL1  H19C 3891   3.019   4.293   7.132 -1.4157  0.7936  0.1575
   53CHL1    C1 3892   3.006   4.562   7.216 -0.0990 -0.2539  0.0310
   53CHL1   H1A 3893   2.904   4.543   7.256 -0.4769  0.5516 -0.5224
   53CHL1   H1B 3894   3.044   4.662   7.245 -1.9247  0.7289 -0.8162
   53CHL1    C2 3895   2.991   4.576   7.061 -0.5911 -0.0694  0.5571
   53CHL1   H2A 3896   2.925   4.663   7.041  0.2367  0.5207  0.3129
   53CHL1   H2B 3897   2.941   4.483   7.027  0.3355 -1.0057  1.6614
   53CHL1   C20 3898   3.132   4.274   7.947 -0.0276 -0.1359  0.1346
   53CHL1   H20 3899   3.105   4.167   7.932  0.3539 -0.3468  0.9093
   53CHL1   C21 3900   3.001   4.368   7.979 -0.0481 -0.2841  0.9687
   53CHL1  H21A 3901   3.031   4.474   7.964 -3.0171  0.4153 -0.6773
   53CHL1  H21B 3902   2.961   4.347   8.081 -0.0658  0.5769  1.1512
   53CHL1  H21C 3903   2.927   4.346   7.900  0.3878 -1.0143  0.7590
   53CHL1   C22 3904   3.214   4.276   8.082  0.2242 -0.0693 -0.8018
   53CHL1  H22A 3905   3.148   4.232   8.160 -0.3514 -0.2384 -1.3742
   53CHL1  H22B 3906   3.300   4.206   8.081  0.3245  0.0438 -0.3278
   53CHL1   C23 3907   3.264   4.408   8.133 -1.0464  0.7644 -0.2615
   53CHL1  H23A 3908   3.330   4.460   8.060 -1.9300  1.1422 -0.8030
   53CHL1  H23B 3909   3.175   4.471   8.153 -2.8668 -2.0820  1.2340
   53CHL1   C24 3910   3.339   4.398   8.264 -0.2307 -0.3803  0.6748
   53CHL1  H24A 3911   3.276   4.333   8.328 -0.8706 -0.1131  0.3317
   53CHL1  H24B 3912   3.412   4.322   8.229 -2.7282 -1.7771 -1.8322
   53CHL1   C25 3913   3.396   4.519   8.343  0.1903  0.9758 -0.0223
   53CHL1   H25 3914   3.305   4.581   8.356  0.0566  0.8167 -0.2152
   53CHL1   C26 3915   3.459   4.461   8.470  0.1642  0.5944  0.5607
   53CHL1  H26A 3916   3.547   4.405   8.433 -0.3380 -0.0919  0.3772
   53CHL1  H26B 3917   3.485   4.546   8.537  0.9678  0.8408 -0.0558
   53CHL1  H26C 3918   3.396   4.385   8.521  2.0502 -2.4406 -1.3019
   53CHL1   C27 3919   3.503   4.596   8.264  0.2168  0.3862  0.1478
   53CHL1  H27A 3920   3.463   4.658   8.181 -2.3001  0.8863  1.6355
   53CHL1  H27B 3921   3.554   4.664   8.335 -0.1379 -1.0549  1.8521
   53CHL1  H27C 3922   3.579   4.528   8.219  0.4165 -0.3141  1.5058
   54CHL1    C3 3923   3.605   6.166   6.863 -0.0878  0.1926  0.1232
   54CHL1    H3 3924   3.499   6.174   6.896 -0.1611 -2.4708  0.7946
   54CHL1    O3 3925   3.609   6.202   6.723 -0.0094  0.3664  0.5452
   54CHL1   H3' 3926   3.610   6.118   6.676 -0.7099  0.5551  0.1798
   54CHL1    C4 3927   3.685   6.277   6.933  0.0754  0.1772 -0.4111
   54CHL1   H4A 3928   3.789   6.265   6.898 -0.1367 -1.9555 -0.4176
   54CHL1   H4B 3929   3.639   6.376   6.909 -1.0380 -0.0716  0.5598
   54CHL1    C5 3930   3.671   6.265   7.081  0.4538 -0.2098 -0.0412
   54CHL1    C6 3931   3.639   6.365   7.163  0.2918  0.0314  0.0683
   54CHL1    H6 3932   3.620   6.467   7.128  2.0018 -0.0756 -1.2997
   54CHL1    C7 3933   3.655   6.368   7.313  0.1280 -0.1565  0.7832
   54CHL1   H7A 3934   3.717   6.453   7.347  0.6026 -0.5867  1.0184
   54CHL1   H7B 3935   3.555   6.377   7.359 -0.2203  0.1820 -0.0333
   54CHL1    C8 3936   3.721   6.239   7.359 -0.9730  0.4069  0.8867
   54CHL1    H8 3937   3.828   6.261   7.340 -0.8621 -1.2030 -0.6179
   54CHL1   C14 3938   3.684   6.217   7.503  0.0765  0.4784 -0.0348
   54CHL1   H14 3939   3.575   6.194   7.499  0.1066  0.2068  0.5474
   54CHL1   C15 3940   3.696   6.332   7.602 -0.5452 -0.4359 -0.1194
   54CHL1  H15A 3941   3.796   6.380   7.593 -0.0652 -0.7686  2.6955
   54CHL1  H15B 3942   3.611   6.403   7.596 -0.3014 -0.2229 -1.5486
   54CHL1   C16 3943   3.709   6.267   7.741 -0.0560 -0.1217  0.0706
   54CHL1  H16A 3944   3.789   6.319   7.797  0.0206  0.4868 -0.5850
   54CHL1  H16B 3945   3.617   6.291   7.799  0.7636 -0.5788  1.6069
   54CHL1   C17 3946   3.720   6.115   7.722 -0.1627 -0.2064 -0.7166
   54CHL1   H17 3947   3.615   6.083   7.738  0.0374 -0.2951  0.5387
   54CHL1   C13 3948   3.753   6.099   7.568  0.3042  0.3890 -0.6755
   54CHL1   C18 3949   3.910   6.112   7.555 -0.6750  0.4877 -0.6509
   54CHL1  H18A 3950   3.962   6.024   7.597 -0.8484  1.7241  2.3835
   54CHL1  H18B 3951   3.935   6.118   7.447 -0.7357 -0.8748 -0.7573
   54CHL1  H18C 3952   3.939   6.208   7.604 -1.1990 -0.8492  2.4917
   54CHL1   C12 3953   3.698   5.966   7.498  0.1326 -0.6015 -0.0523
   54CHL1  H12A 3954   3.765   5.884   7.532  2.2505 -0.2877 -3.1349
   54CHL1  H12B 3955   3.597   5.930   7.529 -0.1684 -1.5653 -2.0261
   54CHL1   C11 3956   3.728   5.979   7.347  0.3351 -0.1092 -0.5270
   54CHL1  H11A 3957   3.834   5.966   7.317 -0.4417 -0.8248 -3.2519
   54CHL1  H11B 3958   3.671   5.894   7.304 -1.5221 -0.1307  1.7720
   54CHL1    C9 3959   3.678   6.111   7.283  0.2710  0.4108 -0.1975
   54CHL1    H9 3960   3.567   6.112   7.287  0.1991 -1.2520 -1.0004
   54CHL1   C10 3961   3.711   6.123   7.132 -0.1764  0.1476 -0.5619
   54CHL1   C19 3962   3.865   6.109   7.116 -0.3396 -0.5562 -0.0382
   54CHL1  H19A 3963   3.927   6.176   7.180  0.3889  0.8627 -2.1062
   54CHL1  H19B 3964   3.891   6.003   7.135  1.7306  0.0075  0.6079
   54CHL1  H19C 3965   3.892   6.120   7.008  1.5288 -0.2316  0.4284
   54CHL1    C1 3966   3.644   6.011   7.047 -0.4522 -0.1993 -0.6170
   54CHL1   H1A 3967   3.687   5.913   7.078 -3.3041 -1.1934  0.5293
   54CHL1   H1B 3968   3.536   6.002   7.073 -0.3952  1.4389  0.2992
   54CHL1    C2 3969   3.660   6.027   6.894  0.8111 -0.0138  0.3367
   54CHL1   H2A 3970   3.604   5.945   6.844  0.6838  0.1915  0.1350
   54CHL1   H2B 3971   3.764   6.011   6.858 -0.4054 -1.0641 -3.1676
   54CHL1   C20 3972   3.809   6.049   7.826  0.6132  0.1574 -0.0649
   54CHL1   H20 3973   3.916   6.054   7.799  1.1386 -1.3081  1.5750
   54CHL1   C21 3974   3.783   5.891   7.825  0.1964  0.3459 -0.1998
   54CHL1  H21A 3975   3.836   5.844   7.739  0.4443  1.3382 -0.6000
   54CHL1  H21B 3976   3.674   5.880   7.805  0.0342  2.0374 -0.3173
   54CHL1  H21C 3977   3.813   5.844   7.921 -1.0499  3.6422  1.9671
   54CHL1   C22 3978   3.791   6.101   7.968  0.1760  0.0838  0.2201
   54CHL1  H22A 3979   3.852   6.041   8.040  0.2627  0.1434  0.1962
   54CHL1  H22B 3980   3.823   6.207   7.979  0.0463  0.2114 -0.5860
   54CHL1   C23 3981   3.644   6.093   8.014  0.0481 -0.2062 -0.1279
   54CHL1  H23A 3982   3.572   6.131   7.939  3.4316  0.2757 -3.4158
   54CHL1  H23B 3983   3.625   5.984   8.007  1.1812 -0.3507 -1.4346
   54CHL1   C24 3984   3.622   6.137   8.160 -0.0148 -0.3136 -0.2911
   54CHL1  H24A 3985   3.700   6.087   8.221 -0.9565 -0.5737  0.7397
   54CHL1  H24B 3986   3.627   6.248   8.168 -0.3444 -0.1971 -1.5384
   54CHL1   C25 3987   3.478   6.109   8.214  0.4623 -0.1158  0.3683
   54CHL1   H25 3988   3.406   6.162   8.148  0.3165 -1.8484 -0.9486
   54CHL1   C26 3989   3.427   5.968   8.189 -0.1164 -0.1848 -0.3398
   54CHL1  H26A 3990   3.323   5.953   8.226  0.5071  0.3122  1.7834
   54CHL1  H26B 3991   3.420   5.953   8.079  0.3765 -0.6387 -0.3126
   54CHL1  H26C 3992   3.489   5.894   8.243 -0.6317  0.3344  1.0050
   54CHL1   C27 3993   3.451   6.146   8.355 -0.2093  0.0018  0.0669
   54CHL1  H27A 3994   3.513   6.235   8.380  0.0137  0.1989 -1.1633
   54CHL1  H27B 3995   3.348   6.186   8.366 -0.0842  0.0793  1.0395
   54CHL1  H27C 3996   3.465   6.057   8.421  0.7413 -0.3886 -0.6434
   55CHL1    C3 3997   4.876   1.360   6.962 -0.2865  0.0302  0.3011
   55CHL1    H3 3998   4.895   1.469   6.958 -2.7714  0.4928 -0.4612
   55CHL1    O3 3999   4.874   1.328   6.826  0.3629  0.8145 -0.2228
   55CHL1   H3' 4000   4.797   1.372   6.789  0.2318 -0.3876 -1.4546
   55CHL1    C4 4001   4.984   1.299   7.052  0.2500  0.7524  0.4005
   55CHL1   H4A 4002   4.975   1.189   7.052 -1.9035  0.8836 -0.0981
   55CHL1   H4B 4003   5.078   1.316   6.995  0.4807 -0.6747  0.3216
   55CHL1    C5 4004   4.986   1.342   7.195 -0.5725  0.2597 -0.1050
   55CHL1    C6 4005   5.096   1.392   7.251 -0.5437  0.2731 -0.3708
   55CHL1    H6 4006   5.196   1.390   7.205 -0.6413 -0.3149 -0.5716
   55CHL1    C7 4007   5.100   1.426   7.397  0.3412 -0.0315 -1.3257
   55CHL1   H7A 4008   5.183   1.371   7.447 -2.0329 -2.8133 -0.2249
   55CHL1   H7B 4009   5.124   1.534   7.405 -0.1300  0.0541 -1.0658
   55CHL1    C8 4010   4.970   1.386   7.476  0.4338 -0.1543  0.6705
   55CHL1    H8 4011   4.970   1.276   7.491 -4.3111 -0.1124  2.7959
   55CHL1   C14 4012   4.957   1.460   7.607  0.8629  0.1745  0.0012
   55CHL1   H14 4013   4.934   1.567   7.588  2.5102  0.6916  0.7416
   55CHL1   C15 4014   5.082   1.476   7.691  0.5960  0.0835 -1.4170
   55CHL1  H15A 4015   5.121   1.375   7.716 -2.1894 -1.0194 -1.1759
   55CHL1  H15B 4016   5.158   1.550   7.657  1.2269  1.1980  2.0221
   55CHL1   C16 4017   5.030   1.530   7.830 -0.3279 -0.0654 -0.7470
   55CHL1  H16A 4018   5.075   1.470   7.912  1.2732  1.3553 -0.5324
   55CHL1  H16B 4019   5.059   1.637   7.842 -2.4201  0.7867 -2.6632
   55CHL1   C17 4020   4.873   1.514   7.818 -0.6699  0.0494 -0.5383
   55CHL1   H17 4021   4.821   1.611   7.797 -1.7008 -0.0272  1.4520
   55CHL1   C13 4022   4.845   1.417   7.702  0.4218  0.5729  0.5332
   55CHL1   C18 4023   4.864   1.270   7.735 -0.2145 -0.0561 -0.4361
   55CHL1  H18A 4024   4.858   1.194   7.655  0.5982 -2.1034  1.3164
   55CHL1  H18B 4025   4.951   1.258   7.803  0.0753  0.6436 -0.6685
   55CHL1  H18C 4026   4.779   1.252   7.804 -0.7656  4.6366  0.4822
   55CHL1   C12 4027   4.713   1.435   7.627 -0.3678 -0.1873  0.6026
   55CHL1  H12A 4028   4.638   1.374   7.682  1.1898 -2.4136  0.3845
   55CHL1  H12B 4029   4.687   1.543   7.632  0.7546  0.0447  2.9511
   55CHL1   C11 4030   4.716   1.376   7.486 -0.1386  0.2157  0.0464
   55CHL1  H11A 4031   4.722   1.268   7.512  3.3364  0.2465 -0.0737
   55CHL1  H11B 4032   4.626   1.394   7.425 -0.2968  0.1018  0.2441
   55CHL1    C9 4033   4.842   1.413   7.391  0.0881  0.0020 -0.3430
   55CHL1    H9 4034   4.829   1.520   7.365  0.4110 -0.1189 -1.0053
   55CHL1   C10 4035   4.852   1.332   7.262  0.2810 -0.9854 -0.0725
   55CHL1   C19 4036   4.817   1.181   7.285 -0.3086 -0.2836  0.1908
   55CHL1  H19A 4037   4.820   1.136   7.183 -0.1681 -0.3546  0.2263
   55CHL1  H19B 4038   4.898   1.130   7.342 -0.7353  1.1414  2.1746
   55CHL1  H19C 4039   4.720   1.154   7.330 -0.4891 -0.2742 -0.1931
   55CHL1    C1 4040   4.739   1.385   7.169  0.1749 -0.0286  0.7538
   55CHL1   H1A 4041   4.646   1.352   7.221 -0.5033 -0.0701 -0.4342
   55CHL1   H1B 4042   4.729   1.495   7.173 -0.0093 -0.0596  1.1349
   55CHL1    C2 4043   4.739   1.335   7.030  0.9403 -0.0961 -0.4856
   55CHL1   H2A 4044   4.663   1.380   6.962 -1.9149 -1.9793  1.2516
   55CHL1   H2B 4045   4.720   1.226   7.028 -0.1591  0.0440  0.8533
   55CHL1   C20 4046   4.819   1.472   7.955  0.0828  0.3483  0.9378
   55CHL1   H20 4047   4.869   1.373   7.961 -0.2151 -0.0167 -1.5788
   55CHL1   C21 4048   4.669   1.459   7.954  0.5173  0.0941 -0.3741
   55CHL1  H21A 4049   4.634   1.400   8.041  2.5856 -1.4719 -0.5373
   55CHL1  H21B 4050   4.624   1.400   7.871 -2.4627 -0.7940  1.7022
   55CHL1  H21C 4051   4.630   1.563   7.944 -0.1601 -0.1913 -0.8100
   55CHL1   C22 4052   4.873   1.555   8.074  0.2122 -0.5958  0.0676
   55CHL1  H22A 4053   4.984   1.544   8.080  0.1793 -0.1498  1.8883
   55CHL1  H22B 4054   4.860   1.662   8.048 -0.5424 -0.3397  1.4187
   55CHL1   C23 4055   4.814   1.535   8.219  0.7161 -0.2853  0.5758
   55CHL1  H23A 4056   4.707   1.564   8.223 -0.5705 -4.4362  0.8151
   55CHL1  H23B 4057   4.824   1.425   8.233  0.3197 -0.3111  0.6724
   55CHL1   C24 4058   4.896   1.616   8.321  0.3715  0.4340 -0.9679
   55CHL1  H24A 4059   5.002   1.594   8.299  0.5515  1.9947 -1.7906
   55CHL1  H24B 4060   4.886   1.726   8.308  0.7190  0.6282  0.2337
   55CHL1   C25 4061   4.864   1.578   8.461 -0.8806 -0.6243 -0.2379
   55CHL1   H25 4062   4.855   1.467   8.468 -1.2014 -0.6675 -1.2371
   55CHL1   C26 4063   4.970   1.624   8.565 -1.0098 -0.2969 -0.1735
   55CHL1  H26A 4064   5.071   1.617   8.519 -1.3840  1.0880 -1.2538
   55CHL1  H26B 4065   4.954   1.732   8.583 -1.4037 -0.6915  2.1175
   55CHL1  H26C 4066   4.950   1.578   8.664  0.0769  0.0930  0.2370
   55CHL1   C27 4067   4.728   1.642   8.493  0.4532  0.0808 -0.3172
   55CHL1  H27A 4068   4.741   1.752   8.482  3.4409 -0.3407 -1.9040
   55CHL1  H27B 4069   4.652   1.598   8.425  1.7640 -0.4797 -1.4583
   55CHL1  H27C 4070   4.702   1.613   8.597  0.0404 -0.7654 -0.6430
   56CHL1    C3 4071   2.926   0.439   6.755  0.3589 -0.9515  1.1147
   56CHL1    H3 4072   2.946   0.343   6.807  0.4755 -1.4161  0.2363
   56CHL1    O3 4073   2.950   0.419   6.615 -0.1522  0.9128 -0.2561
   56CHL1   H3' 4074   2.901   0.341   6.587  1.3882 -0.0131 -0.5222
   56CHL1    C4 4075   2.784   0.476   6.784  1.0534 -0.1493  0.7248
   56CHL1   H4A 4076   2.753   0.576   6.747 -0.8600  0.0884  2.7317
   56CHL1   H4B 4077   2.714   0.405   6.735  1.0698  0.0957  0.3405
   56CHL1    C5 4078   2.758   0.482   6.931 -0.2608 -0.0285  0.6587
   56CHL1    C6 4079   2.656   0.419   6.988 -0.3216  0.3451 -0.0201
   56CHL1    H6 4080   2.587   0.355   6.931  1.2272 -2.5965  1.2544
   56CHL1    C7 4081   2.619   0.432   7.132  0.1842 -0.5547  0.3715
   56CHL1   H7A 4082   2.510   0.453   7.137  0.1134 -0.7280 -0.3275
   56CHL1   H7B 4083   2.629   0.341   7.195  0.4622 -0.4909  0.4208
   56CHL1    C8 4084   2.706   0.547   7.218 -0.0729  1.0830 -0.1040
   56CHL1    H8 4085   2.661   0.648   7.206 -0.2014  0.8441 -1.9132
   56CHL1   C14 4086   2.701   0.510   7.370 -0.3603  0.1278 -0.4242
   56CHL1   H14 4087   2.752   0.412   7.386 -3.6303 -1.7234 -0.5000
   56CHL1   C15 4088   2.565   0.481   7.439 -0.3738  0.4026  0.9543
   56CHL1  H15A 4089   2.495   0.549   7.384  0.5438  0.9518  0.4458
   56CHL1  H15B 4090   2.529   0.378   7.419 -1.0868  0.9134 -0.5854
   56CHL1   C16 4091   2.589   0.523   7.581 -0.3619 -0.1222 -0.0601
   56CHL1  H16A 4092   2.545   0.616   7.621 -2.0008 -0.7703 -0.2695
   56CHL1  H16B 4093   2.560   0.442   7.651 -0.1449 -1.8579 -1.8719
   56CHL1   C17 4094   2.742   0.539   7.597  0.1112  0.3882 -0.3004
   56CHL1   H17 4095   2.782   0.436   7.606  1.7297  1.1034  0.9550
   56CHL1   C13 4096   2.783   0.599   7.456  0.1625 -0.9431  0.3359
   56CHL1   C18 4097   2.734   0.739   7.454 -0.4588 -0.5055  0.1992
   56CHL1  H18A 4098   2.624   0.747   7.455 -0.5833 -1.9671  0.1900
   56CHL1  H18B 4099   2.779   0.794   7.540 -1.3204 -0.3168  0.5327
   56CHL1  H18C 4100   2.769   0.796   7.365 -1.0541 -0.3609  0.0598
   56CHL1   C12 4101   2.935   0.589   7.410  0.7845  0.0459 -0.0917
   56CHL1  H12A 4102   3.008   0.643   7.474  0.2220  0.4462  0.2207
   56CHL1  H12B 4103   2.956   0.481   7.426  1.9740  0.0601 -1.3545
   56CHL1   C11 4104   2.953   0.621   7.260  0.0579 -0.4480  0.1668
   56CHL1  H11A 4105   2.937   0.729   7.240 -0.2539 -0.7222 -1.1269
   56CHL1  H11B 4106   3.055   0.598   7.221  0.1867  2.4082 -1.4613
   56CHL1    C9 4107   2.846   0.547   7.170  0.3254 -0.7475 -0.2670
   56CHL1    H9 4108   2.882   0.442   7.173 -0.6066 -1.0772 -0.4270
   56CHL1   C10 4109   2.856   0.575   7.013 -0.0804  0.6881  0.0077
   56CHL1   C19 4110   2.830   0.718   6.990  0.1183  0.1492  0.1131
   56CHL1  H19A 4111   2.918   0.778   7.023  0.6276 -1.7290  2.5572
   56CHL1  H19B 4112   2.817   0.742   6.883  0.4915 -2.3049 -0.5455
   56CHL1  H19C 4113   2.743   0.762   7.044 -1.0491  0.7873 -2.1885
   56CHL1    C1 4114   2.995   0.545   6.961 -0.6717 -0.6726 -0.5518
   56CHL1   H1A 4115   3.062   0.621   7.007 -0.9779 -0.9461  0.3714
   56CHL1   H1B 4116   3.028   0.448   7.004 -0.5483  0.5566  2.3332
   56CHL1    C2 4117   3.020   0.544   6.811 -0.2068 -0.5470  0.6669
   56CHL1   H2A 4118   3.126   0.537   6.777  1.0931 -0.1527  4.2158
   56CHL1   H2B 4119   3.004   0.648   6.775  1.6486 -0.1271  0.9363
   56CHL1   C20 4120   2.773   0.613   7.730  0.2285 -0.4023 -0.7096
   56CHL1   H20 4121   2.724   0.713   7.735 -2.1998 -1.5954  2.6062
   56CHL1   C21 4122   2.924   0.646   7.728 -0.1222 -0.2902  0.0489
   56CHL1  H21A 4123   2.970   0.679   7.824 -0.8378 -0.8555  0.6055
   56CHL1  H21B 4124   2.943   0.729   7.657  0.3817 -1.7226 -1.5461
   56CHL1  H21C 4125   2.975   0.553   7.696 -3.2199 -1.5560 -1.6050
   56CHL1   C22 4126   2.729   0.533   7.853  0.2692 -0.4085 -0.0378
   56CHL1  H22A 4127   2.620   0.520   7.863  0.3256  0.1701  1.9674
   56CHL1  H22B 4128   2.776   0.432   7.848  0.2253 -0.4352  0.0800
   56CHL1   C23 4129   2.785   0.578   7.989  0.1177  0.6178 -0.3254
   56CHL1  H23A 4130   2.895   0.597   7.989  0.5440 -1.5692 -1.1247
   56CHL1  H23B 4131   2.739   0.677   8.007 -1.1158 -0.0669  0.4592
   56CHL1   C24 4132   2.763   0.474   8.107 -0.7393 -0.0442  0.5883
   56CHL1  H24A 4133   2.655   0.453   8.122 -0.7900 -0.7282 -0.6482
   56CHL1  H24B 4134   2.785   0.373   8.066 -1.6913  0.5637 -1.5638
   56CHL1   C25 4135   2.839   0.515   8.239 -0.1988 -0.4984 -0.6614
   56CHL1   H25 4136   2.942   0.542   8.210 -0.7875  0.9022 -1.5490
   56CHL1   C26 4137   2.781   0.640   8.311 -0.5850  0.0981  0.3364
   56CHL1  H26A 4138   2.780   0.729   8.245 -2.8932  0.9583  1.4213
   56CHL1  H26B 4139   2.845   0.660   8.399 -2.4419  0.7781  1.6001
   56CHL1  H26C 4140   2.674   0.623   8.338 -0.8629  0.6558 -0.3634
   56CHL1   C27 4141   2.847   0.395   8.326 -0.2347  0.3296 -0.3688
   56CHL1  H27A 4142   2.745   0.370   8.363  0.2417  1.2885  1.7902
   56CHL1  H27B 4143   2.882   0.308   8.266 -0.6272  0.7745 -1.2563
   56CHL1  H27C 4144   2.912   0.409   8.415 -2.1715 -3.0506  1.8022
   57SAPC     N 4145   2.021   0.847  10.921  0.0687  0.1644 -0.3977
   57SAPC   C12 4146   2.053   0.756  10.804 -0.1241 -0.3890  0.1167
   57SAPC  H12A 4147   2.103   0.670  10.846  0.0556  0.3870  1.5456
   57SAPC  H12B 4148   2.126   0.801  10.738 -1.4842  0.0345 -1.1769
   57SAPC   C13 4149   2.138   0.856  11.011 -0.1154  0.3418  0.0212
   57SAPC  H13A 4150   2.226   0.887  10.956 -0.7732 -1.2442 -2.0526
   57SAPC  H13B 4151   2.127   0.925  11.093  0.8325  0.9751 -0.3707
   57SAPC  H13C 4152   2.157   0.759  11.057 -2.0187 -1.2057 -2.2324
   57SAPC   C14 4153   1.962   0.972  10.870 -0.1709 -0.5687 -0.1699
   57SAPC  H14A 4154   2.036   1.049  10.856  0.2183 -1.1040 -1.0993
   57SAPC  H14B 4155   1.908   0.952  10.779  0.9111 -0.3729 -0.8742
   57SAPC  H14C 4156   1.894   1.021  10.938  1.0840  0.3262  0.4813
   57SAPC   C15 4157   1.912   0.783  11.003 -0.5820 -0.1538  0.1247
   57SAPC  H15A 4158   1.947   0.689  11.044  2.5286  1.3680  1.2598
   57SAPC  H15B 4159   1.885   0.846  11.087 -3.1548  0.8372 -1.3120
   57SAPC  H15C 4160   1.818   0.767  10.951 -2.4752  1.9300  2.6710
   57SAPC   C11 4161   1.948   0.693  10.716  0.5459 -0.2513  0.4156
   57SAPC  H11A 4162   1.890   0.626  10.783  0.2487 -0.9946 -0.5581
   57SAPC  H11B 4163   1.994   0.619  10.647  0.4434 -1.1145  1.2595
   57SAPC     P 4164   1.718   0.805  10.660  0.0248 -0.1145 -0.0124
   57SAPC   O13 4165   1.668   0.721  10.778  0.3729  0.7825  0.0296
   57SAPC   O14 4166   1.682   0.950  10.657 -0.2233 -0.0974 -0.2473
   57SAPC   O12 4167   1.870   0.787  10.644 -0.6406 -0.0947  0.2308
   57SAPC   O11 4168   1.662   0.751  10.522  0.6445 -0.3275  0.6115
   57SAPC    C1 4169   1.739   0.701  10.409 -0.6198  0.1605  1.4898
   57SAPC    HA 4170   1.844   0.671  10.429 -0.5893 -1.4884 -0.7457
   57SAPC    HB 4171   1.692   0.610  10.367  5.0994 -1.6436 -2.2037
   57SAPC    C2 4172   1.755   0.807  10.299  0.6424 -0.4563 -0.3357
   57SAPC    HS 4173   1.802   0.890  10.356  0.4596 -0.6993  0.1761
   57SAPC   O21 4174   1.625   0.839  10.244  0.1927  0.2142 -0.2666
   57SAPC   C21 4175   1.565   0.952  10.280  0.5558  0.7913  0.3794
   57SAPC   O22 4176   1.590   1.021  10.373 -0.4013  0.0129  0.1386
   57SAPC   C22 4177   1.446   0.970  10.184 -0.1763  0.1425 -0.1511
   57SAPC   H2R 4178   1.415   0.871  10.146  1.7576 -0.3338 -0.5750
   57SAPC   H2S 4179   1.361   1.008  10.245  0.2624 -0.3099  0.7643
   57SAPC    C3 4180   1.861   0.768  10.184 -0.2677  0.1662  0.0581
   57SAPC    HX 4181   1.836   0.661  10.167  0.6660 -0.4513  2.2220
   57SAPC    HY 4182   1.962   0.774  10.228 -0.5677 -0.8281  0.9306
   57SAPC   O31 4183   1.840   0.844  10.067  0.5711 -0.2939  0.1484
   57SAPC   C31 4184   1.901   0.960  10.064  0.1254  0.5155 -0.5824
   57SAPC   O32 4185   1.964   1.008  10.158  0.4851 -0.0230 -0.0716
   57SAPC   C32 4186   1.894   1.023   9.928 -0.6609  0.2608  0.1261
   57SAPC   H2X 4187   1.994   1.072   9.925 -0.3320 -0.1582  2.4268
   57SAPC   H2Y 4188   1.814   1.099   9.915 -0.9449 -0.0004  0.3473
   57SAPC   C23 4189   1.475   1.078  10.073 -0.1722 -0.6386 -0.0882
   57SAPC   H3R 4190   1.573   1.059  10.024  0.3081  0.7828  0.2717
   57SAPC   H3S 4191   1.492   1.172  10.130  0.6746 -0.1186 -1.1482
   57SAPC   C24 4192   1.359   1.091   9.977  0.2547  0.5897 -0.1920
   57SAPC   H4R 4193   1.321   0.997   9.932 -1.7983  1.5225 -0.5269
   57SAPC   H4S 4194   1.400   1.165   9.904 -1.4396  0.6922 -1.0988
   57SAPC   C25 4195   1.240   1.166  10.038 -0.6428  0.2466  0.1895
   57SAPC   H5R 4196   1.275   1.240  10.111 -0.7360 -0.6385  1.1462
   57SAPC   C26 4197   1.110   1.156  10.019 -0.1351  0.8619  0.5284
   57SAPC   H6R 4198   1.039   1.212  10.083 -1.1708 -0.1981  0.3439
   57SAPC   C27 4199   1.043   1.059   9.922  0.1481 -0.1510  0.3743
   57SAPC   H7R 4200   0.973   0.989   9.973  0.5120 -2.4228 -1.9863
   57SAPC   H7S 4201   1.120   0.995   9.873 -1.4084 -2.3252  0.5962
   57SAPC   C28 4202   0.949   1.126   9.824  0.0366  0.2363 -0.3042
   57SAPC   H8R 4203   0.848   1.083   9.823  0.0502  0.1418  1.0437
   57SAPC   C29 4204   0.973   1.214   9.726 -1.1694 -0.1029 -0.3577
   57SAPC   H9R 4205   0.893   1.260   9.668 -0.9670 -1.5414 -1.8386
   57SAPC  C210 4206   1.112   1.254   9.700 -0.6563  0.5857 -0.5109
   57SAPC  H10R 4207   1.170   1.169   9.658 -1.6826  0.1049 -0.9969
   57SAPC  H10S 4208   1.148   1.295   9.797  0.2235  1.2553 -1.1030
   57SAPC  C211 4209   1.126   1.359   9.596  0.3214 -0.1332 -0.5789
   57SAPC  H11R 4210   1.130   1.462   9.636 -2.8477 -0.4382  0.8661
   57SAPC  C212 4211   1.116   1.347   9.465 -0.0284 -0.1108 -0.1555
   57SAPC  H12R 4212   1.110   1.440   9.407 -1.5406  0.4329  0.7881
   57SAPC  C213 4213   1.100   1.224   9.378 -0.1976  0.3995 -0.4148
   57SAPC  H13R 4214   1.094   1.126   9.430 -0.4493 -0.7433 -2.4701
   57SAPC  H13S 4215   1.185   1.202   9.310 -0.6879 -1.3362 -0.5315
   57SAPC  C214 4216   0.969   1.228   9.304 -0.0801 -0.3744 -0.0846
   57SAPC  H14R 4217   0.882   1.202   9.366  0.5370 -2.6303 -0.0624
   57SAPC  C215 4218   0.945   1.248   9.176  0.4564  0.5775 -0.0403
   57SAPC  H15R 4219   0.843   1.222   9.144  0.9357 -1.1763 -0.2185
   57SAPC  C216 4220   1.040   1.269   9.066 -0.2038 -0.3705  0.0422
   57SAPC  H16R 4221   0.990   1.217   8.982  1.5716 -0.8181 -0.7787
   57SAPC  H16S 4222   1.136   1.217   9.089 -1.8022 -2.9056  1.5878
   57SAPC  C217 4223   1.047   1.411   9.020  0.7325 -0.2836 -0.0919
   57SAPC  H17R 4224   1.092   1.479   9.094  2.4246 -2.1738  0.6999
   57SAPC  H17S 4225   0.945   1.447   8.991 -0.1864 -2.5961  0.0076
   57SAPC  C218 4226   1.134   1.414   8.892 -0.3324 -0.5811 -0.5037
   57SAPC  H18R 4227   1.068   1.366   8.817 -1.7981 -0.5619  0.7221
   57SAPC  H18S 4228   1.225   1.354   8.910 -1.3772 -2.9452 -2.5196
   57SAPC  C219 4229   1.167   1.558   8.842 -0.4961 -0.6931  0.0422
   57SAPC  H19R 4230   1.233   1.600   8.921  0.9879 -0.1255 -1.4329
   57SAPC  H19S 4231   1.071   1.614   8.837  0.0276  0.1568 -0.7266
   57SAPC  C220 4232   1.227   1.542   8.705  0.2581  0.2764  0.0075
   57SAPC  H20R 4233   1.326   1.491   8.712 -0.4611 -0.9191  4.1243
   57SAPC  H20S 4234   1.246   1.644   8.663  0.6405  0.8995  1.6397
   57SAPC  H20T 4235   1.148   1.495   8.643 -0.8337  0.9691  0.8366
   57SAPC   C33 4236   1.889   0.919   9.816  0.2932 -0.3406 -0.2560
   57SAPC   H3X 4237   1.877   0.973   9.720 -3.2306 -1.3425 -0.5163
   57SAPC   H3Y 4238   1.803   0.850   9.830  1.8658 -2.3102  0.2433
   57SAPC   C34 4239   2.023   0.836   9.804 -0.2875  0.5304  0.0279
   57SAPC   H4X 4240   2.026   0.783   9.902 -1.8278 -2.9864 -1.6126
   57SAPC   H4Y 4241   2.096   0.911   9.769 -1.8109  1.1013 -2.1201
   57SAPC   C35 4242   2.010   0.722   9.692 -0.7683 -0.5791 -1.1108
   57SAPC   H5X 4243   1.922   0.656   9.710 -1.2744  0.5601  1.0321
   57SAPC   H5Y 4244   2.103   0.661   9.687 -0.6861 -0.4008 -1.9009
   57SAPC   C36 4245   2.007   0.790   9.556 -0.0542 -0.1205 -0.0546
   57SAPC   H6X 4246   2.095   0.848   9.519 -0.7454  0.4089 -0.9012
   57SAPC   H6Y 4247   1.918   0.855   9.542  1.0216  1.4741  0.2067
   57SAPC   C37 4248   1.985   0.687   9.449 -0.3732  0.4764  0.1158
   57SAPC   H7X 4249   1.906   0.610   9.466 -0.4654  0.3673 -0.7622
   57SAPC   H7Y 4250   2.080   0.630   9.448  1.0420  2.7355  0.3306
   57SAPC   C38 4251   1.973   0.743   9.305  0.3358  0.2830 -0.6226
   57SAPC   H8X 4252   2.074   0.786   9.290  1.9120 -1.8512  2.7605
   57SAPC   H8Y 4253   1.884   0.809   9.297  1.2085  1.3039 -2.9087
   57SAPC   C39 4254   1.962   0.624   9.208 -0.1299  0.2622 -0.2197
   57SAPC   H9X 4255   1.864   0.579   9.236  0.9357 -0.9683  1.7851
   57SAPC   H9Y 4256   2.052   0.561   9.224  0.4642  0.3843 -2.6686
   57SAPC  C310 4257   1.946   0.677   9.061  0.0887  0.1883  0.4730
   57SAPC  H10X 4258   2.036   0.740   9.044  0.9290 -1.0582  0.0906
   57SAPC  H10Y 4259   1.849   0.730   9.058 -0.3114 -0.5665 -1.3065
   57SAPC  C311 4260   1.935   0.575   8.952  0.3944 -0.0640  0.3609
   57SAPC  H11X 4261   1.850   0.509   8.980  0.3537 -1.4686 -2.6281
   57SAPC  H11Y 4262   2.030   0.518   8.950  0.3640 -0.1299  0.6859
   57SAPC  C312 4263   1.911   0.653   8.822 -0.1512  0.8345  0.5947
   57SAPC  H12X 4264   1.982   0.732   8.794 -1.5716  1.5181 -1.2924
   57SAPC  H12Y 4265   1.816   0.708   8.837 -1.4290 -0.9634 -0.4030
   57SAPC  C313 4266   1.896   0.550   8.707  0.9107 -0.2577 -0.3141
   57SAPC  H13X 4267   1.857   0.615   8.625 -0.7429  1.9019  2.0377
   57SAPC  H13Y 4268   1.814   0.480   8.732 -0.3853  1.0325 -0.7557
   57SAPC  C314 4269   2.025   0.482   8.644  0.3769  0.1041 -1.3082
   57SAPC  H14X 4270   2.065   0.400   8.708 -2.8586 -0.0504  0.7430
   57SAPC  H14Y 4271   2.097   0.564   8.625  1.0728 -0.4612 -1.1438
   57SAPC  C315 4272   2.008   0.430   8.505  0.7729  0.3177 -0.2422
   57SAPC  H15X 4273   1.960   0.509   8.445 -0.1667  1.2237  1.6306
   57SAPC  H15Y 4274   1.955   0.333   8.491  2.8772 -0.8690 -0.5132
   57SAPC  C316 4275   2.144   0.413   8.437  0.9617 -0.3568  0.5164
   57SAPC  H16X 4276   2.205   0.346   8.501 -0.1606 -1.5104  0.4045
   57SAPC  H16Y 4277   2.188   0.513   8.412 -1.2047  0.7033  0.7631
   57SAPC  C317 4278   2.121   0.350   8.299  0.0653  0.2789 -0.3133
   57SAPC  H17X 4279   2.052   0.415   8.242  0.3561  0.1903 -0.7698
   57SAPC  H17Y 4280   2.064   0.255   8.309 -1.2357  1.0372 -0.2372
   57SAPC  C318 4281   2.246   0.328   8.219 -0.1738  0.7730 -0.7562
   57SAPC  H18X 4282   2.226   0.326   8.110 -2.4233  2.4269 -0.4428
   57SAPC  H18Y 4283   2.303   0.236   8.245 -1.1139  0.7398  1.4213
   57SAPC  H18Z 4284   2.312   0.416   8.233 -1.4759  1.6406  0.2467
   58SAPC     N 4285   3.223   0.412  10.614  0.2752 -0.2441  0.1877
   58SAPC   C12 4286   3.155   0.273  10.626 -0.1789 -0.4397 -0.7575
   58SAPC  H12A 4287   3.049   0.295  10.631  0.3108  1.9170  1.8725
   58SAPC  H12B 4288   3.172   0.238  10.727  0.0396  3.8000  0.9147
   58SAPC   C13 4289   3.211   0.453  10.471  0.9392 -0.5010 -1.0728
   58SAPC  H13A 4290   3.276   0.385  10.419  2.0803 -0.6252  0.4495
   58SAPC  H13B 4291   3.107   0.453  10.440  0.7976  1.7553 -0.7970
   58SAPC  H13C 4292   3.236   0.558  10.463  1.1312 -0.5336 -0.9010
   58SAPC   C14 4293   3.153   0.506  10.711  0.1679 -0.1624  0.5609
   58SAPC  H14A 4294   3.199   0.604  10.717 -1.4128  0.6464 -0.0618
   58SAPC  H14B 4295   3.054   0.528  10.675  0.4811  0.6013  0.1403
   58SAPC  H14C 4296   3.135   0.475  10.813 -0.7011 -0.5439  0.2980
   58SAPC   C15 4297   3.365   0.411  10.640  0.0192  0.3990  0.2554
   58SAPC  H15A 4298   3.400   0.423  10.741  1.9811 -1.2249 -0.1481
   58SAPC  H15B 4299   3.402   0.316  10.605 -0.3615  0.4049 -0.1708
   58SAPC  H15C 4300   3.416   0.493  10.591 -1.3366  1.6403  0.8547
   58SAPC   C11 4301   3.186   0.161  10.521  0.5636  0.0423 -0.1695
   58SAPC  H11A 4302   3.138   0.206  10.431 -0.0380 -0.8791 -0.3172
   58SAPC  H11B 4303   3.132   0.070  10.555  0.6159  0.3342  0.7408
   58SAPC     P 4304   3.388   0.042  10.605  0.1277 -0.0491 -0.0297
   58SAPC   O13 4305   3.524   0.081  10.640  0.4373 -0.2280  0.7064
   58SAPC   O14 4306   3.297   0.017  10.721 -0.6088  0.1611 -0.9120
   58SAPC   O12 4307   3.323   0.141  10.505  0.0376 -0.2331 -0.7199
   58SAPC   O11 4308   3.382  -0.097  10.526 -0.5332 -0.0462 -0.3952
   58SAPC    C1 4309   3.309  -0.111  10.402 -0.1819  0.5612  0.0337
   58SAPC    HA 4310   3.203  -0.099  10.431 -0.0534 -1.7641  1.6869
   58SAPC    HB 4311   3.336  -0.029  10.332  0.8143  0.9321  0.8214
   58SAPC    C2 4312   3.333  -0.252  10.340 -0.2542  0.2645 -0.7157
   58SAPC    HS 4313   3.314  -0.331  10.416 -0.7184  0.8110 -0.2521
   58SAPC   O21 4314   3.472  -0.257  10.286 -0.0515 -0.6657  0.7784
   58SAPC   C21 4315   3.535  -0.374  10.262  0.1508  0.1476 -0.0025
   58SAPC   O22 4316   3.484  -0.485  10.276 -0.2413  0.4677 -0.0047
   58SAPC   C22 4317   3.682  -0.348  10.216 -0.4059  0.1014  0.0990
   58SAPC   H2R 4318   3.689  -0.241  10.188  1.5452 -0.5021 -2.0003
   58SAPC   H2S 4319   3.740  -0.391  10.300  1.4356 -1.3708 -1.8339
   58SAPC    C3 4320   3.236  -0.278  10.230  0.1364 -0.0889  0.5411
   58SAPC    HX 4321   3.140  -0.305  10.278 -0.1634 -0.6351 -0.3639
   58SAPC    HY 4322   3.270  -0.362  10.167 -1.8846  0.1733 -0.9897
   58SAPC   O31 4323   3.221  -0.153  10.161 -0.6848  0.2763 -0.2871
   58SAPC   C31 4324   3.216  -0.156  10.028  0.7658 -0.4884 -0.7324
   58SAPC   O32 4325   3.241  -0.256   9.964 -0.0050 -0.4274  0.6194
   58SAPC   C32 4326   3.155  -0.031   9.984 -0.4161 -0.4728  0.1869
   58SAPC   H2X 4327   3.236   0.044   9.973  1.0818 -2.1115 -0.4279
   58SAPC   H2Y 4328   3.074   0.022  10.039 -1.3903  0.3822 -1.9332
   58SAPC   C23 4329   3.734  -0.436  10.103  0.1139  0.0231 -0.0076
   58SAPC   H3R 4330   3.720  -0.544  10.126  2.8437 -0.6622 -1.0504
   58SAPC   H3S 4331   3.840  -0.408  10.082 -0.4608  0.7116 -2.3555
   58SAPC   C24 4332   3.658  -0.414   9.976  0.8440  0.2293 -0.1712
   58SAPC   H4R 4333   3.643  -0.305   9.956 -0.6263  0.3468  1.2829
   58SAPC   H4S 4334   3.556  -0.454   9.994  0.1822  1.3214 -1.3489
   58SAPC   C25 4335   3.723  -0.484   9.863  0.2932  0.2051 -0.0240
   58SAPC   H5R 4336   3.773  -0.580   9.887 -2.3714 -1.4646 -0.7494
   58SAPC   C26 4337   3.705  -0.447   9.734  0.6586  0.2147 -0.8014
   58SAPC   H6R 4338   3.763  -0.499   9.656  1.2561 -1.3090  0.5901
   58SAPC   C27 4339   3.614  -0.332   9.690 -0.0838  0.8048  0.1803
   58SAPC   H7R 4340   3.652  -0.233   9.724  0.1750  1.0626 -0.8212
   58SAPC   H7S 4341   3.530  -0.347   9.761 -0.7771 -2.0672 -1.1232
   58SAPC   C28 4342   3.572  -0.317   9.546 -0.3510  0.4584  0.0036
   58SAPC   H8R 4343   3.646  -0.272   9.478  0.9559 -0.8725  0.4911
   58SAPC   C29 4344   3.448  -0.355   9.499  0.3066  0.2684 -0.1836
   58SAPC   H9R 4345   3.424  -0.333   9.394 -0.3421  0.4725  0.0026
   58SAPC  C210 4346   3.340  -0.421   9.589  0.2910 -0.2524 -0.2149
   58SAPC  H10R 4347   3.379  -0.452   9.688 -3.9710 -1.8705  1.1512
   58SAPC  H10S 4348   3.316  -0.519   9.541  0.9301  0.4093 -1.9964
   58SAPC  C211 4349   3.211  -0.348   9.610 -0.3236  0.1350 -0.2569
   58SAPC  H11R 4350   3.172  -0.341   9.713 -1.4380  0.1369 -0.6667
   58SAPC  C212 4351   3.123  -0.299   9.511 -0.5519  1.1079 -0.1859
   58SAPC  H12R 4352   3.031  -0.249   9.542 -1.6231 -0.0528 -1.3688
   58SAPC  C213 4353   3.143  -0.305   9.358  0.4943  0.0172 -0.0058
   58SAPC  H13R 4354   3.111  -0.407   9.326 -0.3485 -0.1411  1.2864
   58SAPC  H13S 4355   3.250  -0.292   9.330  0.3943  1.1436  0.0756
   58SAPC  C214 4356   3.055  -0.208   9.294 -1.1153 -0.1746 -0.3627
   58SAPC  H14R 4357   3.042  -0.115   9.351  1.1706 -0.8263  1.3426
   58SAPC  C215 4358   3.005  -0.210   9.164  0.2305  0.1079  0.7286
   58SAPC  H15R 4359   2.939  -0.136   9.116  1.0738 -0.5080 -1.4860
   58SAPC  C216 4360   3.038  -0.324   9.065 -0.0281 -0.2988 -0.1791
   58SAPC  H16R 4361   2.958  -0.400   9.064  3.2206 -4.0851  1.3729
   58SAPC  H16S 4362   3.133  -0.376   9.091 -0.2390 -0.4535  0.2705
   58SAPC  C217 4363   3.064  -0.274   8.919 -0.2306 -0.0571  0.3837
   58SAPC  H17R 4364   3.117  -0.347   8.854 -0.3217  1.9050 -2.0483
   58SAPC  H17S 4365   3.119  -0.178   8.921 -0.0118 -0.1814  0.3302
   58SAPC  C218 4366   2.943  -0.255   8.842  0.4028 -0.1288  0.2438
   58SAPC  H18R 4367   2.869  -0.175   8.863 -0.8722 -1.4013  0.8019
   58SAPC  H18S 4368   2.873  -0.341   8.856  1.4830 -1.0742 -0.0497
   58SAPC  C219 4369   2.983  -0.245   8.695 -0.2378  0.5652 -0.4266
   58SAPC  H19R 4370   3.017  -0.340   8.650  2.8437  0.7915  1.1574
   58SAPC  H19S 4371   3.065  -0.170   8.693  0.3477 -0.0731 -0.7070
   58SAPC  C220 4372   2.873  -0.176   8.612 -0.5279  0.7295 -0.2293
   58SAPC  H20R 4373   2.777  -0.232   8.604  0.3069 -1.3881  2.8681
   58SAPC  H20S 4374   2.906  -0.156   8.508 -1.3148  0.2598 -0.5787
   58SAPC  H20T 4375   2.856  -0.079   8.663  0.2340  2.2172 -2.6169
   58SAPC   C33 4376   3.104  -0.059   9.845 -0.2410  0.0157  0.4130
   58SAPC   H3X 4377   3.022  -0.134   9.848  0.3262 -0.7734 -1.9047
   58SAPC   H3Y 4378   3.174  -0.115   9.779  0.9334  0.8187  0.9360
   58SAPC   C34 4379   3.058   0.070   9.772  0.1015  0.0732  0.2265
   58SAPC   H4X 4380   3.133   0.152   9.779 -0.3644  0.4356  1.0861
   58SAPC   H4Y 4381   2.978   0.105   9.841  0.9079 -0.9068  1.7019
   58SAPC   C35 4382   2.997   0.053   9.633 -0.0110 -0.3377  0.2073
   58SAPC   H5X 4383   2.918  -0.023   9.647 -0.6567  0.1587 -0.6443
   58SAPC   H5Y 4384   3.076   0.025   9.560  1.7096  2.0792  0.9701
   58SAPC   C36 4385   2.915   0.176   9.583 -0.3333  0.4007  1.4344
   58SAPC   H6X 4386   2.990   0.249   9.546  0.4919 -0.9833  0.2364
   58SAPC   H6Y 4387   2.854   0.220   9.664 -1.8035 -1.8309  1.6197
   58SAPC   C37 4388   2.820   0.157   9.462  0.0588  0.5363 -0.6740
   58SAPC   H7X 4389   2.875   0.083   9.400 -0.3501  0.0918 -0.5185
   58SAPC   H7Y 4390   2.814   0.258   9.416 -1.6490  0.7477 -0.0546
   58SAPC   C38 4391   2.687   0.099   9.499  0.3882  0.5079  0.4218
   58SAPC   H8X 4392   2.639   0.157   9.581 -0.1225  0.4181  0.1903
   58SAPC   H8Y 4393   2.706  -0.003   9.538  2.5587  1.2215  1.3970
   58SAPC   C39 4394   2.596   0.080   9.375 -0.2249 -0.3481 -0.0257
   58SAPC   H9X 4395   2.568   0.179   9.333  0.9353  0.1781  0.4006
   58SAPC   H9Y 4396   2.501   0.030   9.404 -0.3117 -1.2346 -1.7521
   58SAPC  C310 4397   2.657  -0.008   9.269  0.2826  0.3802 -0.4510
   58SAPC  H10X 4398   2.695  -0.104   9.311 -1.2770 -0.8432 -1.7506
   58SAPC  H10Y 4399   2.749   0.044   9.232 -1.3247  2.4483 -1.7566
   58SAPC  C311 4400   2.573  -0.037   9.141 -0.0634 -0.1358  0.7924
   58SAPC  H11X 4401   2.544   0.055   9.087  1.0031  1.9049  3.4823
   58SAPC  H11Y 4402   2.486  -0.088   9.188 -1.7413  1.4439 -0.4483
   58SAPC  C312 4403   2.635  -0.128   9.037  0.2655  0.5925  0.4544
   58SAPC  H12X 4404   2.664  -0.224   9.085 -0.7529  0.4232  0.7425
   58SAPC  H12Y 4405   2.726  -0.077   8.998  0.7235 -1.2020 -0.9763
   58SAPC  C313 4406   2.527  -0.154   8.923 -0.2653 -0.1990  0.0749
   58SAPC  H13X 4407   2.494  -0.061   8.871 -3.7063 -2.0811 -1.4300
   58SAPC  H13Y 4408   2.433  -0.183   8.976 -0.0022 -1.1663  0.0247
   58SAPC  C314 4409   2.555  -0.274   8.838 -0.8772  0.1067 -0.1969
   58SAPC  H14X 4410   2.548  -0.364   8.903 -2.4937 -0.6419 -1.3261
   58SAPC  H14Y 4411   2.655  -0.267   8.790 -0.3575  0.2103  0.8894
   58SAPC  C315 4412   2.445  -0.290   8.735 -0.1417 -0.2567 -0.0034
   58SAPC  H15X 4413   2.432  -0.203   8.667 -1.5615  0.4071  1.0694
   58SAPC  H15Y 4414   2.351  -0.293   8.794 -1.2638 -2.7328 -1.7527
   58SAPC  C316 4415   2.444  -0.402   8.637 -0.1211  0.6282  0.1688
   58SAPC  H16X 4416   2.518  -0.389   8.555  0.5454 -1.8373  0.3012
   58SAPC  H16Y 4417   2.352  -0.391   8.575  0.0274 -2.4859 -0.7457
   58SAPC  C317 4418   2.469  -0.539   8.681  0.7459 -0.3292  0.1274
   58SAPC  H17X 4419   2.392  -0.561   8.758 -0.9820 -0.6059 -1.6009
   58SAPC  H17Y 4420   2.573  -0.557   8.718  1.5867  0.1092 -1.8859
   58SAPC  C318 4421   2.451  -0.655   8.579 -0.7524  0.1475  0.6781
   58SAPC  H18X 4422   2.508  -0.647   8.484 -0.8011  0.6100  0.6844
   58SAPC  H18Y 4423   2.341  -0.662   8.561 -0.6736  1.4140 -0.4872
   58SAPC  H18Z 4424   2.499  -0.749   8.613 -0.8327  0.5580  1.9585
   59SAPC     N 4425   4.791   1.449  11.019  0.1250  0.2502 -0.0684
   59SAPC   C12 4426   4.646   1.425  10.992  0.6092 -0.0138 -0.7383
   59SAPC  H12A 4427   4.611   1.500  10.923 -1.9924  1.7703  2.2125
   59SAPC  H12B 4428   4.587   1.446  11.081  1.8977  0.2091  0.0922
   59SAPC   C13 4429   4.821   1.590  11.037 -0.5681 -0.0611 -0.8817
   59SAPC  H13A 4430   4.754   1.629  11.112 -2.5621 -0.9281 -2.1217
   59SAPC  H13B 4431   4.923   1.598  11.073 -0.5170 -0.8012 -0.8443
   59SAPC  H13C 4432   4.800   1.646  10.947 -0.0712 -3.5358 -3.4030
   59SAPC   C14 4433   4.845   1.369  11.129  0.1812  0.2524 -0.2959
   59SAPC  H14A 4434   4.824   1.264  11.116  1.3840  0.1071 -1.1836
   59SAPC  H14B 4435   4.949   1.394  11.142  0.2100  1.5289 -2.5747
   59SAPC  H14C 4436   4.800   1.397  11.223 -1.2736 -2.3261 -0.1339
   59SAPC   C15 4437   4.868   1.406  10.902 -0.0383  0.4372 -0.2259
   59SAPC  H15A 4438   4.852   1.468  10.815 -1.7717  0.0397 -0.2387
   59SAPC  H15B 4439   4.972   1.418  10.927 -0.1298  0.9302 -0.0605
   59SAPC  H15C 4440   4.850   1.303  10.873  0.5305  0.2717  0.0089
   59SAPC   C11 4441   4.598   1.300  10.925 -0.0336  0.4011 -0.0984
   59SAPC  H11A 4442   4.640   1.280  10.824  0.5637  2.6976 -0.3532
   59SAPC  H11B 4443   4.489   1.318  10.914 -0.2766 -0.2747  1.0883
   59SAPC     P 4444   4.512   1.163  11.132 -0.0584  0.1005  0.6226
   59SAPC   O13 4445   4.588   1.095  11.244 -0.4054 -0.0220  0.3554
   59SAPC   O14 4446   4.424   1.274  11.166 -0.3644 -0.2032  0.4127
   59SAPC   O12 4447   4.617   1.186  11.011 -0.2089  0.4330 -0.0820
   59SAPC   O11 4448   4.417   1.054  11.077  0.2766  0.0144 -0.1632
   59SAPC    C1 4449   4.481   0.925  11.028  0.3518 -0.2999  0.6446
   59SAPC    HA 4450   4.586   0.943  10.995  0.0105  0.6259  0.0329
   59SAPC    HB 4451   4.472   0.845  11.105  1.1207 -0.5233  0.5141
   59SAPC    C2 4452   4.400   0.881  10.902 -0.4618  0.5624 -0.1128
   59SAPC    HS 4453   4.475   0.808  10.864  0.3903  1.9781 -1.2962
   59SAPC   O21 4454   4.369   0.985  10.809 -0.0975  0.1214 -0.6308
   59SAPC   C21 4455   4.465   1.038  10.744 -0.7036  0.0351 -0.3084
   59SAPC   O22 4456   4.587   1.006  10.756  0.3257  0.5330 -0.1004
   59SAPC   C22 4457   4.428   1.145  10.649  0.1003  0.3490  0.7165
   59SAPC   H2R 4458   4.326   1.133  10.607  0.7483  0.8303 -1.0903
   59SAPC   H2S 4459   4.427   1.243  10.701 -1.0204  1.0310 -0.5188
   59SAPC    C3 4460   4.271   0.804  10.939 -0.2828 -0.1629 -0.4052
   59SAPC    HX 4461   4.198   0.876  10.982 -0.7357 -0.2384 -1.0185
   59SAPC    HY 4462   4.305   0.736  11.020 -0.4696  0.9045  0.6040
   59SAPC   O31 4463   4.230   0.723  10.827  0.4213 -0.6718  0.8861
   59SAPC   C31 4464   4.122   0.757  10.762  0.8884  0.2238  0.3997
   59SAPC   O32 4465   4.046   0.845  10.798 -0.0142  0.4237 -0.1589
   59SAPC   C32 4466   4.114   0.667  10.644  0.2248 -0.0822  0.5771
   59SAPC   H2X 4467   4.047   0.580  10.659 -0.0419  0.0552  0.2007
   59SAPC   H2Y 4468   4.210   0.618  10.616  0.9838  1.3989  0.5023
   59SAPC   C23 4469   4.530   1.134  10.534 -0.7100  0.0964 -0.3713
   59SAPC   H3R 4470   4.537   1.029  10.498  0.1979  0.1110 -0.2608
   59SAPC   H3S 4471   4.629   1.171  10.568 -0.8066 -0.5300  0.6171
   59SAPC   C24 4472   4.499   1.217  10.404  0.0848  0.1255 -0.0833
   59SAPC   H4R 4473   4.411   1.173  10.353  1.2866 -1.4917 -0.8368
   59SAPC   H4S 4474   4.579   1.198  10.330  0.1443  0.4195 -0.0928
   59SAPC   C25 4475   4.467   1.361  10.441 -1.2349  0.0545 -0.2706
   59SAPC   H5R 4476   4.413   1.386  10.533  0.4249  3.1181  0.0026
   59SAPC   C26 4477   4.497   1.466  10.356  0.7540 -0.2542  0.2391
   59SAPC   H6R 4478   4.477   1.571  10.380  1.1817 -0.1175  0.0049
   59SAPC   C27 4479   4.565   1.456  10.221  0.3433  0.7431  0.3543
   59SAPC   H7R 4480   4.489   1.426  10.147 -0.1685 -2.2332  1.9118
   59SAPC   H7S 4481   4.637   1.372  10.209 -1.3990 -0.7878  0.0808
   59SAPC   C28 4482   4.628   1.580  10.175  0.1768  0.5110 -0.0927
   59SAPC   H8R 4483   4.658   1.643  10.260 -0.8105  0.3130  0.4172
   59SAPC   C29 4484   4.629   1.618  10.046  0.0931 -0.1044  0.2412
   59SAPC   H9R 4485   4.670   1.719  10.029 -0.9540  0.6201  1.7740
   59SAPC  C210 4486   4.574   1.556   9.922  0.2039 -0.5484  0.1951
   59SAPC  H10R 4487   4.534   1.643   9.867  2.0982  1.3585  1.6764
   59SAPC  H10S 4488   4.480   1.502   9.948 -2.8670  4.4561  0.7313
   59SAPC  C211 4489   4.680   1.482   9.838 -0.2153 -0.5557  0.1640
   59SAPC  H11R 4490   4.714   1.388   9.884 -0.8375 -0.7696  0.1951
   59SAPC  C212 4491   4.724   1.509   9.707  0.3711  0.4868  0.0395
   59SAPC  H12R 4492   4.797   1.442   9.660 -0.0805 -1.6771  2.2475
   59SAPC  C213 4493   4.682   1.616   9.610  0.0061  0.1365 -0.0678
   59SAPC  H13R 4494   4.719   1.711   9.653 -1.2683 -1.0351  4.1523
   59SAPC  H13S 4495   4.571   1.621   9.600  0.1675  0.3353 -1.9898
   59SAPC  C214 4496   4.741   1.605   9.472 -0.3791  0.6804 -0.4164
   59SAPC  H14R 4497   4.850   1.592   9.471 -0.5916 -2.1445 -3.1614
   59SAPC  C215 4498   4.676   1.606   9.352  0.2165 -0.4594 -0.4399
   59SAPC  H15R 4499   4.739   1.611   9.262  0.5044  0.3211 -0.2090
   59SAPC  C216 4500   4.527   1.612   9.333 -0.7831 -0.3087 -0.0356
   59SAPC  H16R 4501   4.476   1.677   9.408 -1.1723  0.7929 -1.2238
   59SAPC  H16S 4502   4.483   1.511   9.347 -0.3089 -0.6019 -0.6572
   59SAPC  C217 4503   4.497   1.658   9.192 -0.3456  0.8445  0.0013
   59SAPC  H17R 4504   4.570   1.739   9.169  1.0823  0.0155  1.4325
   59SAPC  H17S 4505   4.394   1.697   9.206 -1.1760 -1.4629  0.6536
   59SAPC  C218 4506   4.501   1.547   9.090  0.5716  0.9130 -0.0199
   59SAPC  H18R 4507   4.417   1.476   9.103 -1.2843  1.9256 -4.4262
   59SAPC  H18S 4508   4.596   1.490   9.094  0.0887  0.0842 -0.1661
   59SAPC  C219 4509   4.492   1.601   8.939 -0.0910  0.2190 -0.1336
   59SAPC  H19R 4510   4.587   1.650   8.908  0.0458  0.4889  0.6949
   59SAPC  H19S 4511   4.407   1.671   8.926 -0.8964 -0.8395 -0.7293
   59SAPC  C220 4512   4.482   1.495   8.827  0.0226 -0.1291  0.6262
   59SAPC  H20R 4513   4.378   1.458   8.816 -0.4712  1.3624 -0.0925
   59SAPC  H20S 4514   4.549   1.409   8.848  0.9970  0.8263  1.5526
   59SAPC  H20T 4515   4.522   1.538   8.732 -0.6128  1.8400  1.1884
   59SAPC   C33 4516   4.061   0.746  10.515  0.4155 -0.0823 -0.4681
   59SAPC   H3X 4517   4.142   0.818  10.488 -0.4054  1.8839  1.8841
   59SAPC   H3Y 4518   3.972   0.798  10.556 -1.1687 -3.5215  0.8098
   59SAPC   C34 4519   4.012   0.650  10.408 -0.4255  0.5302  0.2343
   59SAPC   H4X 4520   3.909   0.616  10.430  0.3336 -1.3230  1.0870
   59SAPC   H4Y 4521   4.076   0.560  10.397 -0.7053  0.2032  1.2064
   59SAPC   C35 4522   4.037   0.720  10.269 -0.1120 -0.5867 -0.7716
   59SAPC   H5X 4523   4.137   0.767  10.256 -0.1909  0.2120  1.1514
   59SAPC   H5Y 4524   3.953   0.791  10.250  0.6217 -0.3246 -3.3432
   59SAPC   C36 4525   4.030   0.610  10.164  0.1821 -0.0440 -0.4124
   59SAPC   H6X 4526   3.930   0.570  10.191 -0.0069  0.5896 -0.1530
   59SAPC   H6Y 4527   4.100   0.526  10.188  1.3924  1.1529  0.3796
   59SAPC   C37 4528   4.034   0.664  10.020 -0.0896 -1.2803  0.5903
   59SAPC   H7X 4529   4.136   0.688   9.984 -0.5732 -1.1872 -0.7871
   59SAPC   H7Y 4530   3.975   0.758  10.013 -0.3657 -1.4896  0.0426
   59SAPC   C38 4531   3.968   0.574   9.911 -0.6543  0.3279 -0.2796
   59SAPC   H8X 4532   3.868   0.621   9.928  0.8676  2.7009  3.5453
   59SAPC   H8Y 4533   3.968   0.465   9.929  0.6992  0.3602  0.0476
   59SAPC   C39 4534   4.006   0.606   9.767 -0.7222  0.5807  0.7314
   59SAPC   H9X 4535   4.102   0.554   9.743 -0.6683  0.4294  1.2596
   59SAPC   H9Y 4536   4.010   0.716   9.755 -1.2232  0.7805  2.2712
   59SAPC  C310 4537   3.904   0.550   9.665 -1.1637 -0.3171  1.0761
   59SAPC  H10X 4538   3.809   0.605   9.683 -0.7819  0.7678 -0.0940
   59SAPC  H10Y 4539   3.886   0.443   9.689  0.0004 -1.8992 -3.8593
   59SAPC  C311 4540   3.944   0.540   9.516 -0.7772 -0.2772 -0.4318
   59SAPC  H11X 4541   4.018   0.457   9.516  1.6246  1.7557 -0.5543
   59SAPC  H11Y 4542   3.987   0.637   9.483  0.2990 -0.7380 -0.4022
   59SAPC  C312 4543   3.819   0.492   9.437 -0.0156  0.0954  0.5736
   59SAPC  H12X 4544   3.728   0.532   9.486  0.6645 -0.2897  2.2352
   59SAPC  H12Y 4545   3.810   0.383   9.454  0.7145  0.0901  0.9881
   59SAPC  C313 4546   3.836   0.516   9.287  0.5992 -0.2777 -0.2183
   59SAPC  H13X 4547   3.937   0.479   9.261  0.8449  0.8941 -1.0043
   59SAPC  H13Y 4548   3.844   0.626   9.271  2.6004 -0.8578 -4.7004
   59SAPC  C314 4549   3.725   0.452   9.212  0.6857  0.4870  0.8508
   59SAPC  H14X 4550   3.626   0.450   9.262 -0.3260  0.5063 -1.0391
   59SAPC  H14Y 4551   3.759   0.346   9.207  0.9329  0.5051  1.8582
   59SAPC  C315 4552   3.706   0.512   9.074  0.3195 -0.2058  0.3555
   59SAPC  H15X 4553   3.703   0.623   9.070 -0.7654 -0.2401 -0.3260
   59SAPC  H15Y 4554   3.603   0.489   9.039  0.9052  0.0295 -1.6587
   59SAPC  C316 4555   3.812   0.474   8.962 -0.1189  0.2901 -0.2250
   59SAPC  H16X 4556   3.778   0.375   8.924 -0.0436 -0.5247  1.7045
   59SAPC  H16Y 4557   3.912   0.462   9.010  0.8835  4.4825 -0.8554
   59SAPC  C317 4558   3.818   0.586   8.855 -0.5297 -0.1393  0.5512
   59SAPC  H17X 4559   3.848   0.682   8.903  1.6656 -0.0056 -0.9357
   59SAPC  H17Y 4560   3.718   0.607   8.811 -0.9244  1.5064  2.1243
   59SAPC  C318 4561   3.916   0.561   8.744  0.1737  0.3826 -0.1691
   59SAPC  H18X 4562   3.912   0.629   8.657 -0.4241 -0.2466 -0.6404
   59SAPC  H18Y 4563   3.885   0.466   8.695 -0.9365  1.6688 -2.0877
   59SAPC  H18Z 4564   4.021   0.552   8.779  1.3644  1.7468 -3.0401
   60SAPC     N 4565   6.059   0.124  10.764  0.1355  0.5117 -0.0307
   60SAPC   C12 4566   6.075   0.144  10.615  0.5300 -0.3757 -0.4395
   60SAPC  H12A 4567   5.991   0.128  10.550  0.8757 -1.3894 -0.6576
   60SAPC  H12B 4568   6.136   0.064  10.575 -0.7923 -2.4108  1.4785
   60SAPC   C13 4569   6.015  -0.018  10.795 -0.3621 -0.2248  0.9532
   60SAPC  H13A 4570   5.985  -0.036  10.897 -2.0775 -0.7264  0.3843
   60SAPC  H13B 4571   5.923  -0.033  10.741 -0.7523  1.2831  1.1649
   60SAPC  H13C 4572   6.096  -0.089  10.780 -1.5534 -1.1946 -1.4462
   60SAPC   C14 4573   6.185   0.154  10.838 -0.0192 -0.5945 -0.5578
   60SAPC  H14A 4574   6.211   0.258  10.823  0.9722 -0.9754 -1.6020
   60SAPC  H14B 4575   6.172   0.137  10.944 -0.3951 -0.7621 -0.6264
   60SAPC  H14C 4576   6.267   0.093  10.802 -1.4262 -3.4074  0.6693
   60SAPC   C15 4577   5.943   0.212  10.813  0.0200 -1.0731  0.0665
   60SAPC  H15A 4578   5.842   0.194  10.778 -0.8540  1.1411  1.2543
   60SAPC  H15B 4579   5.930   0.219  10.920 -1.6978  2.8869 -0.2168
   60SAPC  H15C 4580   5.961   0.314  10.782 -1.0923 -0.8159  0.2188
   60SAPC   C11 4581   6.145   0.284  10.571  0.6259  0.1271  0.9535
   60SAPC  H11A 4582   6.164   0.287  10.462  3.3831  2.6051  1.3987
   60SAPC  H11B 4583   6.251   0.280  10.603  1.1654 -1.2003 -0.8835
   60SAPC     P 4584   6.160   0.522  10.661 -0.4564  0.3712  0.0205
   60SAPC   O13 4585   6.220   0.484  10.791  0.5661  0.1593 -0.2585
   60SAPC   O14 4586   6.256   0.553  10.551  0.2772  0.2372  0.3361
   60SAPC   O12 4587   6.071   0.402  10.613 -0.0741 -0.1067 -0.4484
   60SAPC   O11 4588   6.055   0.631  10.687  0.0503  0.4893 -0.2508
   60SAPC    C1 4589   5.910   0.625  10.709  0.1480 -0.4022  0.2544
   60SAPC    HA 4590   5.871   0.525  10.738 -2.9456 -0.0174 -2.0125
   60SAPC    HB 4591   5.884   0.701  10.785  1.4117  1.5629 -1.1700
   60SAPC    C2 4592   5.829   0.662  10.580 -0.4046  1.0223  0.3025
   60SAPC    HS 4593   5.722   0.658  10.608 -0.8072  0.1791 -1.2677
   60SAPC   O21 4594   5.856   0.570  10.470  1.0377  0.3182  0.0415
   60SAPC   C21 4595   5.801   0.454  10.483 -0.4286 -0.0812  0.0888
   60SAPC   O22 4596   5.735   0.416  10.576 -0.2395 -0.4561 -0.9856
   60SAPC   C22 4597   5.836   0.378  10.353 -1.0732  0.1141  0.9385
   60SAPC   H2R 4598   5.805   0.437  10.264 -1.1934 -0.7990  0.3624
   60SAPC   H2S 4599   5.945   0.358  10.355 -1.2020 -0.5373  1.7982
   60SAPC    C3 4600   5.869   0.799  10.525  0.0279 -0.4350  0.1840
   60SAPC    HX 4601   5.969   0.786  10.478 -0.8299 -1.8286 -1.3347
   60SAPC    HY 4602   5.883   0.881  10.599  3.6560 -0.8502  0.1492
   60SAPC   O31 4603   5.770   0.834  10.420 -0.4974 -0.0041 -0.0260
   60SAPC   C31 4604   5.663   0.898  10.462 -0.6433 -0.5738 -0.3562
   60SAPC   O32 4605   5.643   0.959  10.567 -0.3905 -0.4778  0.3189
   60SAPC   C32 4606   5.565   0.912  10.340 -0.1384 -0.2836 -0.4458
   60SAPC   H2X 4607   5.484   0.982  10.371  1.0818  1.0857 -0.2570
   60SAPC   H2Y 4608   5.515   0.815  10.318 -0.8398 -0.2389  0.8385
   60SAPC   C23 4609   5.772   0.235  10.351 -0.0415  0.1749  0.1614
   60SAPC   H3R 4610   5.678   0.246  10.293  1.0895 -1.5660 -2.1918
   60SAPC   H3S 4611   5.751   0.190  10.450  2.3256 -1.9033 -0.1855
   60SAPC   C24 4612   5.860   0.126  10.284 -0.2367 -0.5141 -0.2446
   60SAPC   H4R 4613   5.957   0.123  10.339  0.5986  1.0282 -1.5618
   60SAPC   H4S 4614   5.875   0.162  10.180 -2.8202  0.6094 -0.2916
   60SAPC   C25 4615   5.775   0.003  10.274  0.2175 -0.1418  0.5044
   60SAPC   H5R 4616   5.744  -0.038  10.371  0.1149  0.9861  0.9696
   60SAPC   C26 4617   5.740  -0.070  10.162 -0.2108  0.1087  0.2500
   60SAPC   H6R 4618   5.676  -0.155  10.189 -2.2370  1.4502 -0.1015
   60SAPC   C27 4619   5.784  -0.047  10.019  0.2248 -0.0132 -0.3589
   60SAPC   H7R 4620   5.895  -0.053  10.016  0.1192 -2.0043 -2.6550
   60SAPC   H7S 4621   5.749   0.054   9.987 -2.9549 -1.4649 -1.8226
   60SAPC   C28 4622   5.720  -0.141   9.920  0.0980  0.0025 -0.2237
   60SAPC   H8R 4623   5.672  -0.230   9.963  0.3711  0.0284  0.1407
   60SAPC   C29 4624   5.745  -0.133   9.790 -0.5631  1.3947 -0.2929
   60SAPC   H9R 4625   5.680  -0.181   9.715  0.9266  0.4278 -1.0114
   60SAPC  C210 4626   5.829  -0.022   9.724  0.3811 -0.8482 -0.4090
   60SAPC  H10R 4627   5.912  -0.062   9.663  0.5270 -0.9182 -0.1627
   60SAPC  H10S 4628   5.885   0.033   9.803  1.0241  0.0173 -1.4366
   60SAPC  C211 4629   5.738   0.066   9.638  0.1348 -1.1685  0.2482
   60SAPC  H11R 4630   5.710   0.157   9.694  0.1192 -0.0600 -1.5027
   60SAPC  C212 4631   5.683   0.045   9.519  0.5346 -0.0059 -0.0414
   60SAPC  H12R 4632   5.630   0.123   9.461  0.1735  0.9649  1.5375
   60SAPC  C213 4633   5.705  -0.078   9.444  0.0893  0.3827 -0.7125
   60SAPC  H13R 4634   5.788  -0.142   9.480 -2.0676 -1.8141  0.7330
   60SAPC  H13S 4635   5.727  -0.061   9.337 -2.3218 -2.5194 -1.8226
   60SAPC  C214 4636   5.586  -0.170   9.436  0.3608 -0.6778 -0.0922
   60SAPC  H14R 4637   5.540  -0.187   9.535  1.6446  1.0875  0.8644
   60SAPC  C215 4638   5.528  -0.230   9.326 -0.3482  0.0742  0.0199
   60SAPC  H15R 4639   5.439  -0.293   9.337 -1.2855  1.2663 -0.4662
   60SAPC  C216 4640   5.576  -0.223   9.177 -0.0752  0.2471  0.0507
   60SAPC  H16R 4641   5.601  -0.327   9.146  1.5712  0.6435 -0.0121
   60SAPC  H16S 4642   5.668  -0.162   9.174 -0.3421  0.6590  0.1075
   60SAPC  C217 4643   5.472  -0.169   9.084 -0.6007 -0.0456  0.1166
   60SAPC  H17R 4644   5.421  -0.087   9.138  0.1975 -0.5293  1.6927
   60SAPC  H17S 4645   5.395  -0.242   9.051 -0.5167 -0.3462  0.5692
   60SAPC  C218 4646   5.524  -0.108   8.951  0.2731  0.5204  0.2701
   60SAPC  H18R 4647   5.569  -0.187   8.887 -1.0532 -0.8548  0.9661
   60SAPC  H18S 4648   5.611  -0.039   8.961 -0.7864  1.7303  1.4888
   60SAPC  C219 4649   5.405  -0.037   8.869  1.0996 -0.1749 -0.0259
   60SAPC  H19R 4650   5.387   0.050   8.935 -0.6184 -2.1378  2.2372
   60SAPC  H19S 4651   5.322  -0.108   8.849  0.1480  0.4264  1.6442
   60SAPC  C220 4652   5.452   0.004   8.730  0.1794  0.4643  0.8915
   60SAPC  H20R 4653   5.364   0.021   8.665  0.5166 -0.1297  0.2641
   60SAPC  H20S 4654   5.505  -0.071   8.667  0.5559  0.7933  0.8097
   60SAPC  H20T 4655   5.508   0.098   8.712 -3.5000  2.6539 -0.1129
   60SAPC   C33 4656   5.630   0.958  10.206  0.5815  0.5721 -0.1019
   60SAPC   H3X 4657   5.697   0.876  10.173 -0.3415 -0.2460  0.0148
   60SAPC   H3Y 4658   5.700   1.039  10.235  3.3408 -2.6725  3.3835
   60SAPC   C34 4659   5.533   1.000  10.094 -0.4794 -0.0995 -0.4954
   60SAPC   H4X 4660   5.470   1.081  10.136 -1.4884 -1.3903  0.5781
   60SAPC   H4Y 4661   5.466   0.915  10.069 -0.0501 -0.9398  1.0726
   60SAPC   C35 4662   5.601   1.048   9.966  0.2732 -0.7439  0.2666
   60SAPC   H5X 4663   5.546   1.004   9.880 -0.6333 -0.5421  0.7301
   60SAPC   H5Y 4664   5.705   1.008   9.959  0.6825  0.5490 -1.7693
   60SAPC   C36 4665   5.599   1.200   9.952 -0.6922 -0.4181 -0.5107
   60SAPC   H6X 4666   5.662   1.254  10.025 -0.5960 -1.4506  0.1939
   60SAPC   H6Y 4667   5.496   1.244   9.949 -0.0530  1.1154 -2.3089
   60SAPC   C37 4668   5.660   1.233   9.813 -0.5030  0.1265 -0.8337
   60SAPC   H7X 4669   5.608   1.173   9.735 -0.8093 -2.0705  0.9713
   60SAPC   H7Y 4670   5.770   1.214   9.806  0.5977  4.2534  1.7599
   60SAPC   C38 4671   5.623   1.377   9.775  0.2842  0.3301 -0.2745
   60SAPC   H8X 4672   5.659   1.450   9.850  0.0571  0.5034 -0.3337
   60SAPC   H8Y 4673   5.512   1.380   9.785  0.2887 -0.5767  0.1491
   60SAPC   C39 4674   5.650   1.415   9.628  0.2876  0.0850 -0.2191
   60SAPC   H9X 4675   5.758   1.428   9.606 -0.1605  1.3127 -1.8161
   60SAPC   H9Y 4676   5.600   1.513   9.614  1.6121  1.0047  1.1545
   60SAPC  C310 4677   5.597   1.323   9.519  1.0646 -0.2388  0.1084
   60SAPC  H10X 4678   5.491   1.298   9.543  1.9370 -2.5753  1.9576
   60SAPC  H10Y 4679   5.656   1.230   9.538 -0.2154 -0.5907  2.8465
   60SAPC  C311 4680   5.601   1.397   9.384  0.1524  0.6985 -0.2072
   60SAPC  H11X 4681   5.703   1.433   9.359  0.6693  0.1723  1.0733
   60SAPC  H11Y 4682   5.532   1.484   9.393  0.5654  1.0500 -0.3609
   60SAPC  C312 4683   5.561   1.305   9.270 -0.0594 -0.0563  0.3477
   60SAPC  H12X 4684   5.460   1.258   9.271 -0.3304  0.4067 -1.2722
   60SAPC  H12Y 4685   5.644   1.231   9.260  1.5028  1.7153 -0.3171
   60SAPC  C313 4686   5.556   1.381   9.132 -0.4623 -0.0601 -0.2323
   60SAPC  H13X 4687   5.659   1.418   9.111  0.0800  0.5674  3.0132
   60SAPC  H13Y 4688   5.496   1.472   9.151 -0.2098  0.9541 -3.5702
   60SAPC  C314 4689   5.492   1.300   9.016  0.0207  0.5268  0.6521
   60SAPC  H14X 4690   5.404   1.256   9.067 -1.0241  1.7970  0.0001
   60SAPC  H14Y 4691   5.566   1.226   8.980 -3.1348 -3.3024  1.3992
   60SAPC  C315 4692   5.441   1.380   8.897  0.4240  0.9948  0.4148
   60SAPC  H15X 4693   5.514   1.450   8.851  0.3313  2.1718  1.9621
   60SAPC  H15Y 4694   5.363   1.445   8.942  0.8648  1.4693  0.5070
   60SAPC  C316 4695   5.360   1.288   8.799  0.5634 -0.5438 -0.0911
   60SAPC  H16X 4696   5.271   1.252   8.856 -0.5308 -0.1215 -1.4852
   60SAPC  H16Y 4697   5.431   1.207   8.770  0.8366 -0.4844  0.3966
   60SAPC  C317 4698   5.322   1.361   8.667  0.5311 -0.4658  0.1949
   60SAPC  H17X 4699   5.364   1.462   8.688 -0.7845  0.3074 -0.7831
   60SAPC  H17Y 4700   5.212   1.375   8.658  0.4564 -1.2153 -0.0633
   60SAPC  C318 4701   5.382   1.306   8.538 -0.3907 -0.0766 -0.7908
   60SAPC  H18X 4702   5.492   1.297   8.551 -0.7195 -1.2181  1.8350
   60SAPC  H18Y 4703   5.350   1.364   8.449 -2.7754 -0.8791 -0.5393
   60SAPC  H18Z 4704   5.349   1.200   8.531  0.4937 -0.4697  0.5705
   61SAPC     N 4705   6.750   5.276  10.967  0.0414  0.4726  0.2126
   61SAPC   C12 4706   6.779   5.346  10.837 -0.5786 -0.1776 -0.3517
   61SAPC  H12A 4707   6.823   5.270  10.774  2.1118  0.8465  0.1346
   61SAPC  H12B 4708   6.856   5.420  10.854 -0.1872 -0.6056 -0.2389
   61SAPC   C13 4709   6.642   5.179  10.941 -0.4227  0.3902 -0.7369
   61SAPC  H13A 4710   6.614   5.133  11.035  0.3687  0.3589 -0.5109
   61SAPC  H13B 4711   6.551   5.222  10.901 -0.5798  0.6710 -0.0930
   61SAPC  H13C 4712   6.685   5.107  10.873  0.7727  0.4961 -0.1243
   61SAPC   C14 4713   6.873   5.198  11.006  0.2925  0.2994  0.4143
   61SAPC  H14A 4714   6.965   5.254  11.010  2.2416 -2.6042 -0.0613
   61SAPC  H14B 4715   6.859   5.165  11.108 -0.7949  2.1945  0.9247
   61SAPC  H14C 4716   6.891   5.112  10.943 -0.2633 -0.3282  1.0989
   61SAPC   C15 4717   6.718   5.377  11.074  0.0082  0.0747  0.1502
   61SAPC  H15A 4718   6.800   5.448  11.083 -0.1332  0.1210  1.2325
   61SAPC  H15B 4719   6.634   5.441  11.051  1.5378  2.0376 -0.2785
   61SAPC  H15C 4720   6.714   5.318  11.164  1.6633 -0.4851 -0.0995
   61SAPC   C11 4721   6.669   5.415  10.748 -0.5596  0.1247  1.0746
   61SAPC  H11A 4722   6.600   5.339  10.706  0.2785 -0.6439  1.0659
   61SAPC  H11B 4723   6.723   5.456  10.660 -2.0301  0.5654  0.3431
   61SAPC     P 4724   6.668   5.665  10.813 -0.5226 -0.0112  0.0797
   61SAPC   O13 4725   6.564   5.767  10.849 -0.4334  0.1770  0.2020
   61SAPC   O14 4726   6.790   5.649  10.899  0.1673 -0.5039  0.1262
   61SAPC   O12 4727   6.591   5.523  10.804 -0.1624  0.0859 -0.4058
   61SAPC   O11 4728   6.712   5.684  10.660  0.6969 -0.2826 -0.4150
   61SAPC    C1 4729   6.606   5.684  10.564 -0.1996  0.6906  0.5595
   61SAPC    HA 4730   6.522   5.616  10.587 -1.6418  2.1052 -0.3330
   61SAPC    HB 4731   6.563   5.786  10.568  1.8353  1.5692  1.8574
   61SAPC    C2 4732   6.658   5.674  10.417  0.1992  0.1001  0.2982
   61SAPC    HS 4733   6.571   5.710  10.358  0.7758  2.1667  0.6277
   61SAPC   O21 4734   6.688   5.534  10.392  0.3523 -0.1369 -0.3463
   61SAPC   C21 4735   6.580   5.450  10.382 -0.8424  0.0635 -0.3547
   61SAPC   O22 4736   6.466   5.483  10.380  0.5152  0.0272 -0.1635
   61SAPC   C22 4737   6.621   5.307  10.373 -0.7164  0.5928 -0.3454
   61SAPC   H2R 4738   6.558   5.246  10.442  0.1096 -0.7400 -0.7397
   61SAPC   H2S 4739   6.587   5.286  10.270 -0.5083 -0.3902 -0.2252
   61SAPC    C3 4740   6.779   5.764  10.386 -0.4158 -0.1199 -0.1012
   61SAPC    HX 4741   6.868   5.728  10.442 -0.2037 -0.9557 -0.9370
   61SAPC    HY 4742   6.764   5.863  10.432 -1.4988  0.0022 -0.6807
   61SAPC   O31 4743   6.819   5.777  10.253 -0.6507 -0.4700  0.7221
   61SAPC   C31 4744   6.755   5.873  10.177  0.7685  0.1676 -0.7250
   61SAPC   O32 4745   6.657   5.937  10.213  0.6414  0.0253  0.0895
   61SAPC   C32 4746   6.836   5.907  10.054  0.8027  0.1737 -0.3468
   61SAPC   H2X 4747   6.903   5.822  10.030 -0.8820 -1.2405 -0.3012
   61SAPC   H2Y 4748   6.894   5.997  10.083 -1.1187  1.3392  0.0431
   61SAPC   C23 4749   6.774   5.269  10.393  1.2093  0.4539  0.3184
   61SAPC   H3R 4750   6.775   5.158  10.400  0.7019  0.5305  2.2416
   61SAPC   H3S 4751   6.814   5.308  10.489  2.0736 -0.6818  0.4455
   61SAPC   C24 4752   6.866   5.319  10.282 -0.0604  0.1864  0.3834
   61SAPC   H4R 4753   6.970   5.288  10.307  0.1553  1.6907  1.5033
   61SAPC   H4S 4754   6.858   5.429  10.289  0.1200  0.1810  0.7475
   61SAPC   C25 4755   6.821   5.265  10.147  0.9552 -0.2960  0.5991
   61SAPC   H5R 4756   6.814   5.156  10.138  0.6371 -0.2579  0.3858
   61SAPC   C26 4757   6.787   5.336  10.038 -0.5790  0.0164 -0.9277
   61SAPC   H6R 4758   6.751   5.280   9.950 -0.9272 -0.5615 -0.4238
   61SAPC   C27 4759   6.793   5.486  10.019 -0.2677  0.3744 -0.4955
   61SAPC   H7R 4760   6.851   5.505   9.927  1.8836  0.3128  0.7759
   61SAPC   H7S 4761   6.860   5.518  10.102 -0.8534 -2.0689  1.0250
   61SAPC   C28 4762   6.669   5.557  10.043  0.5779 -0.4741  0.4570
   61SAPC   H8R 4763   6.666   5.603  10.143 -0.1907  2.3161 -0.7680
   61SAPC   C29 4764   6.559   5.571   9.962 -0.0288  0.3526 -0.1714
   61SAPC   H9R 4765   6.475   5.629  10.002 -0.3354  0.3822 -0.8515
   61SAPC  C210 4766   6.529   5.521   9.824 -0.4428  1.5467  0.4678
   61SAPC  H10R 4767   6.458   5.436   9.821  1.8106 -0.4269 -1.1937
   61SAPC  H10S 4768   6.614   5.464   9.780 -3.5344 -0.7279 -3.1050
   61SAPC  C211 4769   6.487   5.630   9.735 -0.0922  0.2096  0.2849
   61SAPC  H11R 4770   6.403   5.686   9.778 -0.0344 -0.2083  0.9642
   61SAPC  C212 4771   6.526   5.657   9.606 -0.3076 -0.2707 -0.6518
   61SAPC  H12R 4772   6.479   5.744   9.559 -0.2072  0.8140  1.1630
   61SAPC  C213 4773   6.628   5.574   9.525  0.2615 -0.2038 -0.2724
   61SAPC  H13R 4774   6.584   5.527   9.435 -1.8215 -0.6004  0.8613
   61SAPC  H13S 4775   6.680   5.494   9.581  1.8478  1.7855  1.2853
   61SAPC  C214 4776   6.738   5.669   9.485  0.8236  0.0347 -0.2519
   61SAPC  H14R 4777   6.820   5.681   9.558 -0.2779 -0.8985  1.2095
   61SAPC  C215 4778   6.747   5.734   9.364  0.4873  0.6769 -0.1989
   61SAPC  H15R 4779   6.831   5.804   9.357  1.0146  0.2676  1.5521
   61SAPC  C216 4780   6.644   5.717   9.255  0.5690 -0.3577 -0.1208
   61SAPC  H16R 4781   6.608   5.820   9.232 -0.6040 -0.6369  0.3537
   61SAPC  H16S 4782   6.553   5.659   9.284  0.4405 -0.2259 -0.2578
   61SAPC  C217 4783   6.715   5.659   9.129  0.2319  0.6564 -0.5628
   61SAPC  H17R 4784   6.755   5.559   9.155  0.5094  0.4867 -1.6026
   61SAPC  H17S 4785   6.795   5.733   9.106 -1.1403  1.5437 -2.8719
   61SAPC  C218 4786   6.627   5.636   9.013 -0.2237 -0.1206 -0.7626
   61SAPC  H18R 4787   6.584   5.734   8.984  0.9385  1.3442  2.0469
   61SAPC  H18S 4788   6.543   5.571   9.044  0.9836 -0.8711  1.1558
   61SAPC  C219 4789   6.698   5.572   8.886  0.0481 -0.0070 -0.1742
   61SAPC  H19R 4790   6.746   5.479   8.922  0.2709 -0.2840 -1.1654
   61SAPC  H19S 4791   6.781   5.641   8.860 -1.0340  1.0414 -0.9783
   61SAPC  C220 4792   6.596   5.563   8.776  0.3322 -0.9144 -0.5210
   61SAPC  H20R 4793   6.641   5.514   8.686  1.9432 -0.5471  0.0586
   61SAPC  H20S 4794   6.571   5.668   8.749  1.2679 -0.1745  1.3657
   61SAPC  H20T 4795   6.507   5.509   8.814 -1.6408  1.1499 -1.9795
   61SAPC   C33 4796   6.746   5.948   9.937  0.2795 -0.2035 -0.0321
   61SAPC   H3X 4797   6.732   6.058   9.927  0.9638  0.1670  2.4412
   61SAPC   H3Y 4798   6.649   5.895   9.945  0.3510 -0.3388 -0.0596
   61SAPC   C34 4799   6.797   5.892   9.802  0.0434  0.2158 -0.2341
   61SAPC   H4X 4800   6.722   5.918   9.724  0.9136 -0.1382 -1.2121
   61SAPC   H4Y 4801   6.804   5.781   9.798 -1.5069  0.0961 -0.1154
   61SAPC   C35 4802   6.938   5.946   9.768  0.2291  0.1502 -0.4684
   61SAPC   H5X 4803   6.971   5.897   9.674 -0.2857 -0.8393 -0.1455
   61SAPC   H5Y 4804   7.014   5.926   9.846  1.1051  1.2808 -1.0102
   61SAPC   C36 4805   6.942   6.094   9.727  0.3646 -0.4311 -0.3491
   61SAPC   H6X 4806   7.045   6.125   9.701  0.5933 -0.3975  0.5501
   61SAPC   H6Y 4807   6.919   6.149   9.821  1.3066 -1.2543  0.3839
   61SAPC   C37 4808   6.827   6.128   9.629 -0.3535 -0.1769 -0.2321
   61SAPC   H7X 4809   6.816   6.237   9.642  2.0471  0.2168 -0.9170
   61SAPC   H7Y 4810   6.727   6.093   9.662 -0.3008 -1.0905 -0.9958
   61SAPC   C38 4811   6.839   6.086   9.487  0.0345  1.0339 -0.3863
   61SAPC   H8X 4812   6.747   6.110   9.429  0.2307 -0.6083 -1.4240
   61SAPC   H8Y 4813   6.859   5.977   9.486  0.8703  1.1832 -1.3695
   61SAPC   C39 4814   6.952   6.172   9.422  0.3365  0.6430 -0.0664
   61SAPC   H9X 4815   7.041   6.149   9.484  0.3422 -0.4514 -0.4560
   61SAPC   H9Y 4816   6.925   6.278   9.441 -1.3291  0.3952 -0.8763
   61SAPC  C310 4817   6.977   6.149   9.275 -0.4910  0.1631 -0.0706
   61SAPC  H10X 4818   7.004   6.043   9.255  0.1122  0.0641  1.2039
   61SAPC  H10Y 4819   7.071   6.201   9.249  0.0703 -1.4114 -1.3904
   61SAPC  C311 4820   6.868   6.206   9.180 -0.3954  0.0679 -1.3640
   61SAPC  H11X 4821   6.872   6.317   9.171 -1.2370  0.2495  0.1748
   61SAPC  H11Y 4822   6.772   6.163   9.216 -1.0669  0.6351 -2.4236
   61SAPC  C312 4823   6.880   6.159   9.032 -0.1731 -0.0501  0.5182
   61SAPC  H12X 4824   6.978   6.190   8.989  0.2439 -0.9803  0.7750
   61SAPC  H12Y 4825   6.801   6.212   8.976 -0.2291  1.4831  1.9531
   61SAPC  C313 4826   6.869   6.007   9.006 -0.4213 -1.1154  0.5215
   61SAPC  H13X 4827   6.768   5.977   9.039 -0.6160 -0.6035  0.4052
   61SAPC  H13Y 4828   6.957   5.968   9.061 -1.1446 -1.2420  1.5969
   61SAPC  C314 4829   6.891   5.963   8.858  0.3790 -0.2649  0.6367
   61SAPC  H14X 4830   6.882   5.852   8.858 -1.5652 -0.1505  1.9024
   61SAPC  H14Y 4831   6.994   5.994   8.831 -0.2519  0.8666 -0.5398
   61SAPC  C315 4832   6.786   6.020   8.761 -0.5135  0.0676  0.1466
   61SAPC  H15X 4833   6.775   6.128   8.785  4.4807  0.5688  1.2216
   61SAPC  H15Y 4834   6.692   5.961   8.757 -1.0657  0.9603 -0.6082
   61SAPC  C316 4835   6.845   6.042   8.616 -0.1488  0.3524 -0.0733
   61SAPC  H16X 4836   6.766   6.090   8.554  0.9094 -0.2449 -1.9736
   61SAPC  H16Y 4837   6.872   5.941   8.578  1.1531  0.3448  0.7896
   61SAPC  C317 4838   6.968   6.140   8.608 -0.6174  0.7575 -0.2100
   61SAPC  H17X 4839   7.059   6.082   8.632 -0.9146  0.3737 -0.0039
   61SAPC  H17Y 4840   6.965   6.217   8.687 -0.3875 -1.9635  2.6316
   61SAPC  C318 4841   6.977   6.207   8.468 -0.3556 -0.0447 -0.0318
   61SAPC  H18X 4842   7.069   6.269   8.478  0.3960 -1.4402  3.1567
   61SAPC  H18Y 4843   6.900   6.286   8.451 -0.3710 -0.1267 -0.3543
   61SAPC  H18Z 4844   6.980   6.137   8.382 -0.9469  1.3903 -1.2615
   62SAPC     N 4845   6.169   4.997  10.705  0.3393 -0.4113 -0.0421
   62SAPC   C12 4846   6.299   4.937  10.753 -0.0804  0.8085 -0.0119
   62SAPC  H12A 4847   6.310   4.833  10.726  2.5548  0.3793  2.2777
   62SAPC  H12B 4848   6.288   4.937  10.860 -1.5376  1.3887 -0.1308
   62SAPC   C13 4849   6.156   4.980  10.559 -0.7367 -0.5516  1.0108
   62SAPC  H13A 4850   6.085   5.046  10.511  1.5823  0.2343 -1.6122
   62SAPC  H13B 4851   6.249   5.005  10.511 -1.8965  0.5473 -0.7554
   62SAPC  H13C 4852   6.145   4.876  10.534  0.8966 -0.4447 -0.2707
   62SAPC   C14 4853   6.047   4.936  10.763 -0.0176  0.1914  0.4446
   62SAPC  H14A 4854   6.055   4.831  10.738 -1.4427 -0.3749  2.1619
   62SAPC  H14B 4855   6.052   4.950  10.870  1.2895  1.3210  0.2757
   62SAPC  H14C 4856   5.958   4.977  10.717  1.3228  2.2640 -0.4631
   62SAPC   C15 4857   6.165   5.148  10.733 -1.5655  0.3471 -0.3018
   62SAPC  H15A 4858   6.089   5.195  10.673 -0.6126  2.7786  0.3025
   62SAPC  H15B 4859   6.157   5.177  10.837 -2.0820 -1.4725  0.2214
   62SAPC  H15C 4860   6.257   5.192  10.697 -0.2747 -1.8813  0.0717
   62SAPC   C11 4861   6.440   5.000  10.698  0.3441  0.2318  0.4302
   62SAPC  H11A 4862   6.522   4.953  10.757 -0.5397 -1.2133  0.5719
   62SAPC  H11B 4863   6.441   5.108  10.723 -0.4008  0.7132 -1.4853
   62SAPC     P 4864   6.514   4.857  10.499 -0.4069  0.0287  0.1925
   62SAPC   O13 4865   6.660   4.847  10.528 -0.1739 -0.2275 -0.1943
   62SAPC   O14 4866   6.434   4.753  10.568 -0.6433 -0.2020  0.6303
   62SAPC   O12 4867   6.460   4.994  10.557  0.3715 -0.7910 -0.0153
   62SAPC   O11 4868   6.482   4.864  10.348  0.7994  0.1733 -0.1224
   62SAPC    C1 4869   6.516   4.981  10.256 -0.5556  0.8940  0.6666
   62SAPC    HA 4870   6.531   5.072  10.318 -0.0198  0.8692  0.5767
   62SAPC    HB 4871   6.610   4.975  10.198 -0.2769  1.8470  0.9931
   62SAPC    C2 4872   6.387   4.996  10.167 -0.4408  0.4391  0.6321
   62SAPC    HS 4873   6.299   4.980  10.234  0.2619 -2.0900  1.0658
   62SAPC   O21 4874   6.377   4.889  10.060 -0.2522  0.5534  0.0473
   62SAPC   C21 4875   6.245   4.876  10.019 -0.4484  0.6975 -0.2552
   62SAPC   O22 4876   6.153   4.936  10.058  0.1301 -0.4680  0.0714
   62SAPC   C22 4877   6.230   4.742   9.935  0.0399 -1.3986  0.0022
   62SAPC   H2R 4878   6.322   4.683   9.954  0.4082 -0.9302 -0.3034
   62SAPC   H2S 4879   6.140   4.701   9.985 -1.6956  0.4721 -1.4143
   62SAPC    C3 4880   6.380   5.142  10.109 -0.4857  0.4388 -0.3666
   62SAPC    HX 4881   6.390   5.205  10.199 -0.6555  1.4638 -1.0431
   62SAPC    HY 4882   6.280   5.165  10.067  0.2459  2.2378 -1.1990
   62SAPC   O31 4883   6.486   5.170  10.011  0.6213 -0.2672 -0.0339
   62SAPC   C31 4884   6.449   5.130   9.886 -0.2060  0.0507  0.5973
   62SAPC   O32 4885   6.346   5.078   9.850 -0.6620 -0.0553 -0.1989
   62SAPC   C32 4886   6.571   5.146   9.790  0.0806  0.1698 -0.1864
   62SAPC   H2X 4887   6.660   5.093   9.831  0.8065  0.5121 -1.2822
   62SAPC   H2Y 4888   6.611   5.250   9.801  2.6895 -0.5477 -2.1265
   62SAPC   C23 4889   6.202   4.757   9.777  0.7017  0.4053  0.1295
   62SAPC   H3R 4890   6.278   4.825   9.733 -0.5065  0.8331 -1.4169
   62SAPC   H3S 4891   6.102   4.804   9.764 -0.7577 -1.0227  4.3032
   62SAPC   C24 4892   6.219   4.622   9.707  0.2711 -0.2861  0.0211
   62SAPC   H4R 4893   6.319   4.577   9.726 -0.0854 -1.3112 -0.4564
   62SAPC   H4S 4894   6.206   4.638   9.598  0.8249 -0.5830 -0.0931
   62SAPC   C25 4895   6.104   4.537   9.751 -0.6270 -0.1481  0.1468
   62SAPC   H5R 4896   6.121   4.502   9.854 -0.3499 -1.1389 -0.2303
   62SAPC   C26 4897   5.997   4.486   9.680 -0.0937  0.7106  0.0924
   62SAPC   H6R 4898   5.924   4.429   9.740 -0.2823  1.2981  0.4316
   62SAPC   C27 4899   5.949   4.516   9.535  0.1622 -1.4260  0.3621
   62SAPC   H7R 4900   5.931   4.420   9.483 -1.3953 -0.5579 -0.7640
   62SAPC   H7S 4901   6.035   4.564   9.484  0.2951 -1.5766  0.4402
   62SAPC   C28 4902   5.814   4.590   9.525  0.4560  0.2937  0.6414
   62SAPC   H8R 4903   5.751   4.583   9.616  0.3035 -1.2125  0.4357
   62SAPC   C29 4904   5.769   4.663   9.422 -0.4735 -0.6944  0.4919
   62SAPC   H9R 4905   5.667   4.701   9.415  0.0365  0.7995  0.8604
   62SAPC  C210 4906   5.842   4.692   9.292 -0.2702  0.5950  0.7314
   62SAPC  H10R 4907   5.951   4.677   9.311 -0.1062 -0.3682 -0.7966
   62SAPC  H10S 4908   5.833   4.802   9.277  0.0610  0.7787  1.7484
   62SAPC  C211 4909   5.810   4.631   9.158  0.0634  0.4310  0.7490
   62SAPC  H11R 4910   5.709   4.613   9.117  1.0338  0.2334 -1.7873
   62SAPC  C212 4911   5.907   4.586   9.077  0.5413  0.0649 -0.6235
   62SAPC  H12R 4912   5.877   4.538   8.983  1.9435  1.0399 -1.6001
   62SAPC  C213 4913   6.055   4.586   9.091 -0.2600  1.0579  0.3700
   62SAPC  H13R 4914   6.096   4.679   9.134  2.7751  0.6476 -1.3509
   62SAPC  H13S 4915   6.095   4.574   8.988  1.3338 -1.8807  1.2082
   62SAPC  C214 4916   6.106   4.463   9.159  0.3845 -0.2185  0.1348
   62SAPC  H14R 4917   6.047   4.434   9.248  1.1979  1.0856  1.1429
   62SAPC  C215 4918   6.207   4.391   9.112  0.0253 -0.4503  0.8605
   62SAPC  H15R 4919   6.216   4.297   9.169 -1.0226  0.6706  3.0103
   62SAPC  C216 4920   6.290   4.402   8.990 -0.1760  0.3948  0.4302
   62SAPC  H16R 4921   6.376   4.331   8.988 -0.5826 -0.3901  3.8759
   62SAPC  H16S 4922   6.328   4.506   8.990 -1.6540  1.0358  2.9823
   62SAPC  C217 4923   6.211   4.371   8.855  0.0206  0.2901  0.8281
   62SAPC  H17R 4924   6.248   4.441   8.777 -2.0666 -0.8081 -1.2890
   62SAPC  H17S 4925   6.107   4.405   8.877  0.1102  1.8822 -0.9803
   62SAPC  C218 4926   6.215   4.224   8.817  0.3531 -0.2759  0.4467
   62SAPC  H18R 4927   6.169   4.153   8.888  0.4224 -1.1613 -0.3655
   62SAPC  H18S 4928   6.319   4.188   8.802 -0.4345 -1.8381 -1.8086
   62SAPC  C219 4929   6.148   4.205   8.683  0.1816  0.6354 -0.1725
   62SAPC  H19R 4930   6.198   4.272   8.609 -0.4979  0.2733 -0.9719
   62SAPC  H19S 4931   6.043   4.239   8.697  0.1675  0.3225  0.5068
   62SAPC  C220 4932   6.154   4.062   8.633 -0.7358  0.3503 -1.0725
   62SAPC  H20R 4933   6.251   4.012   8.651  0.4606  2.1249 -2.3013
   62SAPC  H20S 4934   6.142   4.061   8.522  0.7653  3.1469 -1.3404
   62SAPC  H20T 4935   6.071   4.010   8.687 -1.1325  1.8885 -0.1473
   62SAPC   C33 4936   6.547   5.126   9.646  0.1298 -0.0220 -0.6622
   62SAPC   H3X 4937   6.468   5.199   9.618  0.0091  0.8818  1.8267
   62SAPC   H3Y 4938   6.514   5.024   9.617 -0.6912 -0.2441  0.9287
   62SAPC   C34 4939   6.661   5.175   9.564 -0.3383 -0.6242  0.2403
   62SAPC   H4X 4940   6.753   5.113   9.573 -0.4793 -0.8640  0.0709
   62SAPC   H4Y 4941   6.680   5.281   9.590  0.5909 -1.2676  2.3586
   62SAPC   C35 4942   6.625   5.166   9.419 -0.7141  0.4386 -0.2754
   62SAPC   H5X 4943   6.531   5.218   9.391 -0.2535  2.1007  1.1212
   62SAPC   H5Y 4944   6.616   5.059   9.390  0.5012 -0.1407  1.3486
   62SAPC   C36 4945   6.739   5.229   9.329  0.1168  0.5325 -0.5084
   62SAPC   H6X 4946   6.833   5.185   9.368 -2.2071 -1.1361  4.0281
   62SAPC   H6Y 4947   6.754   5.335   9.357 -2.3431  1.3275 -1.8763
   62SAPC   C37 4948   6.714   5.219   9.179 -1.0519  0.4416 -0.5776
   62SAPC   H7X 4949   6.645   5.299   9.146 -0.9658  0.6420 -0.2786
   62SAPC   H7Y 4950   6.664   5.122   9.160 -1.4409  0.3148  0.9379
   62SAPC   C38 4951   6.844   5.234   9.099  0.3930  0.3051 -0.8755
   62SAPC   H8X 4952   6.924   5.199   9.168 -0.8027  0.3140  0.5635
   62SAPC   H8Y 4953   6.855   5.337   9.057  2.2169 -0.0413 -1.3256
   62SAPC   C39 4954   6.853   5.140   8.978 -0.1076 -0.2369 -0.1892
   62SAPC   H9X 4955   6.752   5.117   8.939 -0.2094  1.1920 -0.8143
   62SAPC   H9Y 4956   6.898   5.040   8.996 -1.8737 -1.4691 -2.1289
   62SAPC  C310 4957   6.932   5.202   8.858  0.2133 -0.6301 -0.4606
   62SAPC  H10X 4958   7.034   5.239   8.879  0.7821 -1.6550 -1.3139
   62SAPC  H10Y 4959   6.878   5.292   8.823  0.0375  0.3653  2.1128
   62SAPC  C311 4960   6.933   5.110   8.739  0.2138  1.1285  0.1473
   62SAPC  H11X 4961   6.834   5.067   8.715  0.4396  0.6654  0.0118
   62SAPC  H11Y 4962   6.996   5.022   8.766  0.8236  1.7010  0.6123
   62SAPC  C312 4963   6.983   5.178   8.611  0.4953 -0.4251  0.5844
   62SAPC  H12X 4964   6.965   5.126   8.514  2.4344  0.1439 -0.1448
   62SAPC  H12Y 4965   7.094   5.178   8.614  0.4947  0.8420  3.0756
   62SAPC  C313 4966   6.935   5.326   8.588 -0.0299  0.4721 -0.1880
   62SAPC  H13X 4967   6.993   5.386   8.662  2.0781  0.0560 -1.4046
   62SAPC  H13Y 4968   6.827   5.310   8.607  0.4043 -0.5068  1.7703
   62SAPC  C314 4969   6.962   5.379   8.448 -0.5407 -0.0777  0.3537
   62SAPC  H14X 4970   6.942   5.299   8.373 -2.7822  2.0199 -1.4473
   62SAPC  H14Y 4971   7.067   5.413   8.434  0.1354 -2.3179 -0.4475
   62SAPC  C315 4972   6.864   5.493   8.410 -0.4421  0.0102 -0.7298
   62SAPC  H15X 4973   6.894   5.593   8.447  1.3323 -0.4426 -0.8404
   62SAPC  H15Y 4974   6.758   5.476   8.440 -0.0288 -0.8671  0.2844
   62SAPC  C316 4975   6.864   5.517   8.256 -0.0639  0.9151 -0.2466
   62SAPC  H16X 4976   6.781   5.590   8.244 -0.9943  0.7193  3.6103
   62SAPC  H16Y 4977   6.827   5.424   8.208  0.8470 -0.5853  1.8063
   62SAPC  C317 4978   6.990   5.557   8.172  0.5531  0.0128 -1.1495
   62SAPC  H17X 4979   6.964   5.576   8.065  0.4217 -1.0163 -1.3138
   62SAPC  H17Y 4980   7.055   5.468   8.170  0.1652 -0.2936 -3.8722
   62SAPC  C318 4981   7.067   5.675   8.238 -0.4003 -0.4581  0.4927
   62SAPC  H18X 4982   7.090   5.642   8.342 -0.0848 -2.1278 -0.0885
   62SAPC  H18Y 4983   7.005   5.767   8.245  0.8184  0.2872  2.4327
   62SAPC  H18Z 4984   7.161   5.708   8.188 -0.8611  1.8038  1.0048
   63SAPC     N 4985   6.220   3.640   6.003 -0.3165 -0.0568 -0.1988
   63SAPC   C12 4986   6.219   3.615   6.155 -0.1668  0.4402 -0.3409
   63SAPC  H12A 4987   6.321   3.631   6.187 -0.3327 -0.5545  0.7480
   63SAPC  H12B 4988   6.203   3.511   6.179  0.8673  0.3756  0.1106
   63SAPC   C13 4989   6.247   3.783   5.973  0.5320  0.5125 -0.5593
   63SAPC  H13A 4990   6.165   3.843   6.011 -0.0803  0.7983 -2.2570
   63SAPC  H13B 4991   6.341   3.817   6.015  1.7328  0.3538 -2.9726
   63SAPC  H13C 4992   6.252   3.805   5.868  1.6177  2.3957 -0.1654
   63SAPC   C14 4993   6.333   3.559   5.943 -0.0196 -0.1724  0.0240
   63SAPC  H14A 4994   6.428   3.600   5.976 -0.0471  0.1918 -0.3548
   63SAPC  H14B 4995   6.326   3.460   5.985 -0.6979  0.6791  2.0366
   63SAPC  H14C 4996   6.326   3.567   5.836 -0.2973 -0.9803 -0.0284
   63SAPC   C15 4997   6.091   3.591   5.950 -0.0578  0.4298 -0.8229
   63SAPC  H15A 4998   6.084   3.484   5.943 -0.7694  0.2332  1.8461
   63SAPC  H15B 4999   6.013   3.629   6.015  0.7228  1.5722 -0.5183
   63SAPC  H15C 5000   6.091   3.627   5.848  0.6577  0.9251 -0.6577
   63SAPC   C11 5001   6.114   3.685   6.246 -0.1732 -0.2690  0.1324
   63SAPC  H11A 5002   6.122   3.795   6.229  0.3317 -0.3203  0.0414
   63SAPC  H11B 5003   6.139   3.663   6.351 -1.6402  0.3624  0.6398
   63SAPC     P 5004   5.935   3.496   6.264 -0.1570 -0.3345  0.0166
   63SAPC   O13 5005   5.811   3.456   6.194  0.1003 -0.1610 -0.5965
   63SAPC   O14 5006   6.054   3.408   6.252  0.0620 -0.1255  0.2937
   63SAPC   O12 5007   5.981   3.643   6.218  0.5629  0.2864  0.4468
   63SAPC   O11 5008   5.899   3.515   6.421 -0.2482  0.3004  0.2984
   63SAPC    C1 5009   5.806   3.614   6.463  0.9415  0.1106 -0.1204
   63SAPC    HA 5010   5.747   3.651   6.377 -0.9284 -0.9075  0.6525
   63SAPC    HB 5011   5.730   3.569   6.531  0.8916  2.1316  1.2289
   63SAPC    C2 5012   5.874   3.728   6.543  0.7663 -0.2112 -0.3645
   63SAPC    HS 5013   5.943   3.794   6.487 -0.7333  1.4967 -0.2836
   63SAPC   O21 5014   5.946   3.667   6.656  0.3903  0.2620 -0.2253
   63SAPC   C21 5015   6.057   3.725   6.693  0.2287  0.5085  0.4065
   63SAPC   O22 5016   6.098   3.834   6.659 -0.1067 -0.5476  0.3659
   63SAPC   C22 5017   6.119   3.637   6.799  0.3066 -0.4323 -0.3936
   63SAPC   H2R 5018   6.054   3.564   6.852  0.2149 -0.7020 -0.8725
   63SAPC   H2S 5019   6.198   3.583   6.742  0.3998 -1.9207  1.0728
   63SAPC    C3 5020   5.751   3.809   6.600  0.0948 -0.8670 -0.1703
   63SAPC    HX 5021   5.687   3.732   6.647  2.2573 -1.1277  2.6376
   63SAPC    HY 5022   5.703   3.853   6.510  1.3404 -0.2077 -0.5339
   63SAPC   O31 5023   5.785   3.909   6.704 -0.2204  0.2340 -0.1334
   63SAPC   C31 5024   5.847   4.020   6.662 -0.4905 -0.0614 -0.4692
   63SAPC   O32 5025   5.859   4.060   6.548  0.2766 -0.2524 -0.2323
   63SAPC   C32 5026   5.914   4.095   6.779 -0.3059  0.5440 -0.5437
   63SAPC   H2X 5027   6.025   4.097   6.771 -0.1643  1.7162  1.1623
   63SAPC   H2Y 5028   5.879   4.044   6.872  0.8405  0.7530  0.0186
   63SAPC   C23 5029   6.185   3.719   6.913 -0.1577 -0.1252 -0.2141
   63SAPC   H3R 5030   6.162   3.664   7.007  2.0869  0.1881  0.5775
   63SAPC   H3S 5031   6.137   3.818   6.929  0.6133  0.3953 -1.0467
   63SAPC   C24 5032   6.339   3.726   6.898  0.0965 -0.0307  0.7161
   63SAPC   H4R 5033   6.376   3.812   6.958  0.3849  0.9720 -0.8152
   63SAPC   H4S 5034   6.364   3.760   6.795 -0.6982 -0.6914  0.2992
   63SAPC   C25 5035   6.410   3.599   6.928 -0.0845 -0.3749  0.0566
   63SAPC   H5R 5036   6.399   3.519   6.854  0.2233  0.9479 -1.4676
   63SAPC   C26 5037   6.478   3.569   7.043  0.1700 -0.3598  0.4111
   63SAPC   H6R 5038   6.510   3.466   7.059  2.4783  0.2997  0.4291
   63SAPC   C27 5039   6.500   3.663   7.162 -0.3430  0.1353  0.3344
   63SAPC   H7R 5040   6.517   3.766   7.123 -1.1228 -0.3834 -1.4980
   63SAPC   H7S 5041   6.592   3.635   7.217 -0.0201  0.2065 -0.1669
   63SAPC   C28 5042   6.373   3.659   7.257 -0.9355  0.2091  0.9193
   63SAPC   H8R 5043   6.282   3.621   7.209 -1.2105  1.2280  0.5921
   63SAPC   C29 5044   6.368   3.710   7.383 -0.7984 -0.2064  0.7586
   63SAPC   H9R 5045   6.273   3.708   7.439 -0.5009  2.3764  1.4840
   63SAPC  C210 5046   6.477   3.776   7.463 -0.2789 -0.1635 -0.5561
   63SAPC  H10R 5047   6.571   3.816   7.418  0.5361 -0.6347  0.6637
   63SAPC  H10S 5048   6.525   3.687   7.510 -2.1228 -1.5724 -1.2407
   63SAPC  C211 5049   6.424   3.879   7.556 -0.0136 -0.5937  0.1738
   63SAPC  H11R 5050   6.411   3.976   7.505  0.9355 -0.9521 -0.7876
   63SAPC  C212 5051   6.381   3.863   7.688  0.5061  0.5099  0.5476
   63SAPC  H12R 5052   6.355   3.951   7.749 -3.3296  0.4511 -0.7786
   63SAPC  C213 5053   6.379   3.730   7.767 -0.3765  0.3535  0.3675
   63SAPC  H13R 5054   6.458   3.738   7.844 -0.3222 -1.0704  0.4869
   63SAPC  H13S 5055   6.394   3.643   7.700 -2.1154 -0.8529  1.4589
   63SAPC  C214 5056   6.254   3.696   7.841 -0.7368 -0.4435  0.6858
   63SAPC  H14R 5057   6.164   3.757   7.826 -0.7420 -0.3623  1.0357
   63SAPC  C215 5058   6.226   3.575   7.899 -0.3582  0.4577  0.0970
   63SAPC  H15R 5059   6.127   3.563   7.945 -0.8873  2.8716 -0.2721
   63SAPC  C216 5060   6.319   3.459   7.909 -0.1656  0.2754  0.2342
   63SAPC  H16R 5061   6.303   3.424   8.013 -1.3279  0.6198  0.1935
   63SAPC  H16S 5062   6.424   3.494   7.919 -1.3852  4.3765  0.7406
   63SAPC  C217 5063   6.289   3.354   7.807  0.2140  0.0505 -0.6186
   63SAPC  H17R 5064   6.182   3.324   7.811  0.0175 -0.5910 -5.0283
   63SAPC  H17S 5065   6.352   3.268   7.839  0.8337  0.8305  0.3047
   63SAPC  C218 5066   6.323   3.403   7.660 -0.6173 -0.4248 -0.3258
   63SAPC  H18R 5067   6.428   3.440   7.654 -1.2977  1.5279 -0.9070
   63SAPC  H18S 5068   6.252   3.481   7.626 -2.2399 -1.2680  0.9799
   63SAPC  C219 5069   6.312   3.282   7.557  1.1608 -0.2558  0.0932
   63SAPC  H19R 5070   6.394   3.211   7.582  1.0613 -1.0256 -1.6100
   63SAPC  H19S 5071   6.328   3.311   7.451 -0.1074  1.2375  0.2688
   63SAPC  C220 5072   6.177   3.213   7.559 -0.5757 -0.4719  0.6110
   63SAPC  H20R 5073   6.103   3.268   7.497  0.0180 -1.3717 -0.9619
   63SAPC  H20S 5074   6.134   3.184   7.657 -0.7274 -0.0352  0.6740
   63SAPC  H20T 5075   6.187   3.110   7.517 -0.8292 -0.3858  0.3406
   63SAPC   C33 5076   5.883   4.246   6.778 -0.3852  0.0211 -0.0988
   63SAPC   H3X 5077   5.774   4.258   6.762 -1.1346 -3.1958  1.6552
   63SAPC   H3Y 5078   5.935   4.295   6.692 -0.1420 -0.5298 -0.2711
   63SAPC   C34 5079   5.935   4.314   6.902 -0.0640 -0.3620 -0.1121
   63SAPC   H4X 5080   5.911   4.261   6.996  0.5761  0.2744  0.4197
   63SAPC   H4Y 5081   5.895   4.418   6.903 -2.8834 -1.3867  0.3242
   63SAPC   C35 5082   6.091   4.325   6.901  0.3199  0.5308 -0.0991
   63SAPC   H5X 5083   6.133   4.328   6.798  1.2671  0.1716  0.2644
   63SAPC   H5Y 5084   6.139   4.235   6.946  2.1160  1.2594 -0.4543
   63SAPC   C36 5085   6.136   4.443   6.987  0.0207  0.2998 -0.0978
   63SAPC   H6X 5086   6.057   4.520   6.980  0.1234  0.2627 -2.2195
   63SAPC   H6Y 5087   6.230   4.484   6.944  0.2654 -0.3793 -0.2165
   63SAPC   C37 5088   6.148   4.394   7.130  0.3460  0.2788  0.4644
   63SAPC   H7X 5089   6.224   4.314   7.138 -0.4914 -0.5388  0.4990
   63SAPC   H7Y 5090   6.055   4.333   7.139 -0.3382  1.1427 -0.5174
   63SAPC   C38 5091   6.160   4.501   7.232  0.8406  0.1988  0.3365
   63SAPC   H8X 5092   6.100   4.591   7.206  0.5341 -0.4840 -1.4956
   63SAPC   H8Y 5093   6.266   4.532   7.244  0.8957  0.8177 -1.4990
   63SAPC   C39 5094   6.126   4.451   7.369  0.5463  0.1000  0.1908
   63SAPC   H9X 5095   6.173   4.353   7.390  3.1627  0.8497 -1.6671
   63SAPC   H9Y 5096   6.016   4.433   7.371  0.4229  0.7665 -0.3419
   63SAPC  C310 5097   6.148   4.555   7.477  0.0585  0.1812  0.2055
   63SAPC  H10X 5098   6.066   4.630   7.478 -0.4533 -0.3472  2.0284
   63SAPC  H10Y 5099   6.247   4.599   7.455  2.2273 -3.3127  1.9780
   63SAPC  C311 5100   6.165   4.503   7.618 -0.4296 -0.1902 -0.5658
   63SAPC  H11X 5101   6.192   4.395   7.614  4.3959  0.5951  2.2578
   63SAPC  H11Y 5102   6.063   4.512   7.662 -1.1863 -0.7669 -2.1282
   63SAPC  C312 5103   6.269   4.577   7.705 -0.2101  0.6485 -0.7550
   63SAPC  H12X 5104   6.251   4.686   7.694 -1.1706  0.8471  2.0116
   63SAPC  H12Y 5105   6.364   4.540   7.661 -0.3765 -3.2833  1.7661
   63SAPC  C313 5106   6.274   4.534   7.849 -0.7161  0.0867  0.4221
   63SAPC  H13X 5107   6.339   4.444   7.841 -1.7302 -0.4650 -4.8384
   63SAPC  H13Y 5108   6.175   4.503   7.888  0.2976 -2.3745  1.2356
   63SAPC  C314 5109   6.335   4.634   7.952  0.6356 -0.0679 -0.0362
   63SAPC  H14X 5110   6.261   4.711   7.919  1.5155 -0.4668 -3.2371
   63SAPC  H14Y 5111   6.439   4.660   7.923  0.5372 -1.5374 -1.8936
   63SAPC  C315 5112   6.322   4.591   8.093 -0.1002  0.3796  0.0651
   63SAPC  H15X 5113   6.390   4.516   8.140 -2.7977 -0.6667  2.5271
   63SAPC  H15Y 5114   6.221   4.546   8.101  0.6310 -1.2830  0.3715
   63SAPC  C316 5115   6.326   4.714   8.195  0.1508 -0.7069  0.1978
   63SAPC  H16X 5116   6.287   4.811   8.159 -1.4333 -1.2343  0.4155
   63SAPC  H16Y 5117   6.435   4.727   8.211 -0.1936  1.6715  0.9059
   63SAPC  C317 5118   6.264   4.692   8.337 -0.6013 -0.2619  0.1777
   63SAPC  H17X 5119   6.155   4.702   8.319 -0.2482  1.8184 -1.2569
   63SAPC  H17Y 5120   6.300   4.772   8.405 -1.8315 -0.0059  0.5500
   63SAPC  C318 5121   6.298   4.554   8.394 -0.9492 -0.1474 -0.3881
   63SAPC  H18X 5122   6.407   4.538   8.384 -1.2489 -2.5219 -0.6005
   63SAPC  H18Y 5123   6.239   4.479   8.336  0.5620 -0.6664 -1.3100
   63SAPC  H18Z 5124   6.277   4.538   8.502 -0.3108 -1.7397 -0.4622
   64SAPC     N 5125   1.855   4.402   5.822  0.0190  0.3206  0.4831
   64SAPC   C12 5126   1.738   4.475   5.758  0.1511 -0.3975  0.5562
   64SAPC  H12A 5127   1.652   4.420   5.793 -0.0173  0.9240  2.3496
   64SAPC  H12B 5128   1.742   4.455   5.651 -2.6799 -1.2621  0.5133
   64SAPC   C13 5129   1.987   4.466   5.798  0.4645  0.0018  0.7307
   64SAPC  H13A 5130   2.003   4.497   5.696  0.5498 -0.9006  0.4594
   64SAPC  H13B 5131   2.016   4.538   5.873 -1.6693  2.4829 -0.6666
   64SAPC  H13C 5132   2.069   4.400   5.821  1.2964  1.3409  1.7514
   64SAPC   C14 5133   1.843   4.393   5.966  0.1437 -0.0252  0.2888
   64SAPC  H14A 5134   1.851   4.495   6.002  1.8841 -0.7409  2.0991
   64SAPC  H14B 5135   1.745   4.364   6.002 -1.0633  1.2373 -1.7266
   64SAPC  H14C 5136   1.932   4.349   6.008  0.2564 -3.0535 -2.7228
   64SAPC   C15 5137   1.849   4.260   5.759 -0.5856 -0.5646  0.2723
   64SAPC  H15A 5138   1.934   4.203   5.792  0.7065  1.1360  0.0333
   64SAPC  H15B 5139   1.755   4.211   5.777 -1.2478  0.1870 -0.9648
   64SAPC  H15C 5140   1.850   4.259   5.651  2.1356 -0.9845  0.2274
   64SAPC   C11 5141   1.719   4.631   5.783  1.1658 -0.1571  0.1904
   64SAPC  H11A 5142   1.664   4.678   5.698  1.3040 -1.7767 -0.8464
   64SAPC  H11B 5143   1.818   4.682   5.780  0.2035  1.8389  0.2757
   64SAPC     P 5144   1.516   4.596   5.948 -0.2188 -0.0288  0.2883
   64SAPC   O13 5145   1.414   4.651   5.856  0.1020  0.5132 -0.5854
   64SAPC   O14 5146   1.518   4.449   5.960 -0.5191 -0.2635 -0.2202
   64SAPC   O12 5147   1.661   4.652   5.914  0.8464  0.0913  0.2896
   64SAPC   O11 5148   1.490   4.668   6.086 -0.3034 -0.5068  0.4882
   64SAPC    C1 5149   1.516   4.599   6.204 -0.0571 -0.4026 -0.3702
   64SAPC    HA 5150   1.529   4.489   6.192 -2.7402 -0.6616 -1.3980
   64SAPC    HB 5151   1.618   4.631   6.236 -0.8138  0.1027  1.6884
   64SAPC    C2 5152   1.401   4.624   6.309 -0.2442 -0.2567  0.4089
   64SAPC    HS 5153   1.425   4.725   6.349  0.7207  0.3166 -1.5133
   64SAPC   O21 5154   1.411   4.527   6.419  0.2902 -0.3081  0.5193
   64SAPC   C21 5155   1.507   4.560   6.502  0.2810  0.0543  0.7499
   64SAPC   O22 5156   1.581   4.655   6.493 -0.2035  0.3924 -0.4947
   64SAPC   C22 5157   1.501   4.460   6.616 -0.0185  0.2383  0.2027
   64SAPC   H2R 5158   1.411   4.476   6.679 -1.2138 -1.3171 -1.0252
   64SAPC   H2S 5159   1.503   4.356   6.576  2.9556  0.3123 -0.0408
   64SAPC    C3 5160   1.264   4.615   6.234  0.6668  0.1005 -0.1684
   64SAPC    HX 5161   1.259   4.511   6.194 -1.8557  0.6769 -1.5546
   64SAPC    HY 5162   1.265   4.687   6.149 -1.4158 -1.3018 -1.4631
   64SAPC   O31 5163   1.143   4.641   6.316  0.1620 -0.5851  0.4473
   64SAPC   C31 5164   1.103   4.534   6.397 -0.2614 -0.3333  0.2233
   64SAPC   O32 5165   1.148   4.426   6.379 -0.1433  0.1163 -0.4006
   64SAPC   C32 5166   0.998   4.569   6.501  0.1510  0.3034 -0.4837
   64SAPC   H2X 5167   0.923   4.489   6.517 -0.9522  1.6119  1.2410
   64SAPC   H2Y 5168   0.931   4.645   6.457 -1.4755 -0.6062  0.3474
   64SAPC   C23 5169   1.630   4.467   6.705 -0.2294 -0.6857 -0.1823
   64SAPC   H3R 5170   1.722   4.451   6.645 -0.2941 -2.3586  0.1273
   64SAPC   H3S 5171   1.641   4.377   6.770  1.6192 -1.1396 -1.0427
   64SAPC   C24 5172   1.648   4.592   6.800 -0.1985 -0.8533 -0.2507
   64SAPC   H4R 5173   1.629   4.679   6.734 -0.0221 -0.3256  0.3835
   64SAPC   H4S 5174   1.753   4.578   6.832 -0.4692 -1.3263  0.4743
   64SAPC   C25 5175   1.551   4.610   6.916  0.1586 -0.0985  0.5408
   64SAPC   H5R 5176   1.464   4.676   6.906  1.5631  2.1849  2.2237
   64SAPC   C26 5177   1.559   4.547   7.033 -0.8680 -0.6088 -0.3357
   64SAPC   H6R 5178   1.473   4.570   7.098 -1.5188  1.2908 -1.7740
   64SAPC   C27 5179   1.669   4.451   7.077  0.3104 -0.1596 -0.1172
   64SAPC   H7R 5180   1.760   4.481   7.021 -0.7962  0.9929 -1.3684
   64SAPC   H7S 5181   1.641   4.346   7.055  2.8600 -1.2006  1.2226
   64SAPC   C28 5182   1.693   4.460   7.225 -0.2847  0.0796  0.0239
   64SAPC   H8R 5183   1.734   4.559   7.251 -0.2308 -0.3608  1.7631
   64SAPC   C29 5184   1.667   4.377   7.325  0.2440 -0.4504  0.3200
   64SAPC   H9R 5185   1.674   4.410   7.429 -0.6035  1.9453 -0.3117
   64SAPC  C210 5186   1.609   4.238   7.315 -0.4457  0.2799  0.2940
   64SAPC  H10R 5187   1.627   4.199   7.212  1.4806  1.9768 -0.0794
   64SAPC  H10S 5188   1.498   4.243   7.316 -0.4735 -0.0375 -0.3674
   64SAPC  C211 5189   1.669   4.135   7.399  0.4263 -0.8757 -0.1258
   64SAPC  H11R 5190   1.744   4.072   7.349 -0.7710 -0.8340 -2.0774
   64SAPC  C212 5191   1.663   4.127   7.535  0.3146 -0.6148  1.1117
   64SAPC  H12R 5192   1.721   4.046   7.583  1.8467 -0.1845  0.0537
   64SAPC  C213 5193   1.590   4.217   7.632 -0.1077  0.3747  0.0499
   64SAPC  H13R 5194   1.487   4.179   7.652  0.6126 -1.3452  0.6281
   64SAPC  H13S 5195   1.562   4.318   7.594 -1.0970  0.3408  0.6532
   64SAPC  C214 5196   1.672   4.225   7.762 -0.4281 -0.5689  0.5932
   64SAPC  H14R 5197   1.765   4.282   7.749 -1.3006  1.0469  1.1696
   64SAPC  C215 5198   1.646   4.170   7.882 -0.2772  0.3678 -0.3563
   64SAPC  H15R 5199   1.709   4.187   7.970  0.1518  0.4981 -0.6861
   64SAPC  C216 5200   1.521   4.094   7.923 -0.3519  0.0581 -0.2033
   64SAPC  H16R 5201   1.554   3.992   7.953  0.4283  0.2841 -0.2790
   64SAPC  H16S 5202   1.459   4.069   7.835 -2.3320 -0.8608  1.3617
   64SAPC  C217 5203   1.438   4.165   8.028 -0.3560 -0.2250 -0.3432
   64SAPC  H17R 5204   1.353   4.096   8.046 -1.8552  1.3518 -1.1384
   64SAPC  H17S 5205   1.406   4.257   7.975  2.1098  0.5629 -0.5899
   64SAPC  C218 5206   1.502   4.193   8.163  0.3377  0.2715  0.0748
   64SAPC  H18R 5207   1.419   4.216   8.232  1.9113  2.2262  1.4434
   64SAPC  H18S 5208   1.574   4.275   8.139  0.2527 -0.0156 -1.2510
   64SAPC  C219 5209   1.569   4.071   8.224 -0.1627  0.0918  0.6176
   64SAPC  H19R 5210   1.668   4.068   8.174 -0.2144  1.1449  0.4353
   64SAPC  H19S 5211   1.511   3.978   8.204  0.2913  0.4633 -3.2129
   64SAPC  C220 5212   1.576   4.082   8.370 -0.7004 -0.2061 -0.1687
   64SAPC  H20R 5213   1.615   3.989   8.417  2.0697  0.5217 -0.8196
   64SAPC  H20S 5214   1.482   4.123   8.413 -0.1328  0.5691  0.3694
   64SAPC  H20T 5215   1.658   4.157   8.384  2.1937 -3.3601  1.2681
   64SAPC   C33 5216   1.059   4.625   6.631  0.3333  0.2173 -0.0019
   64SAPC   H3X 5217   1.089   4.551   6.709  1.2185  1.9689  1.4044
   64SAPC   H3Y 5218   0.980   4.678   6.689 -2.3680 -3.8367  0.4449
   64SAPC   C34 5219   1.167   4.730   6.609 -0.3792  0.3026  0.4414
   64SAPC   H4X 5220   1.122   4.820   6.563 -2.0684 -0.6851  0.0876
   64SAPC   H4Y 5221   1.245   4.701   6.534  0.5691  2.3424  0.5874
   64SAPC   C35 5222   1.238   4.773   6.739  0.2426 -0.5924 -0.1023
   64SAPC   H5X 5223   1.313   4.851   6.714  0.0183  0.0534  1.1304
   64SAPC   H5Y 5224   1.281   4.678   6.777  1.1931  0.8126  2.5833
   64SAPC   C36 5225   1.134   4.819   6.849 -0.0166  0.0222  0.5681
   64SAPC   H6X 5226   1.066   4.736   6.878  0.8008 -1.0639 -0.5164
   64SAPC   H6Y 5227   1.068   4.896   6.804  1.1858  1.0990  0.5798
   64SAPC   C37 5228   1.200   4.882   6.971  0.5245 -0.3539 -0.1113
   64SAPC   H7X 5229   1.277   4.956   6.941 -1.8089  1.8643 -1.0355
   64SAPC   H7Y 5230   1.241   4.791   7.020  0.0664 -1.0049 -0.9043
   64SAPC   C38 5231   1.096   4.951   7.064 -0.5287  0.5134  0.0723
   64SAPC   H8X 5232   1.023   4.874   7.097 -0.7483  1.3700  1.7196
   64SAPC   H8Y 5233   1.043   5.042   7.027  1.1833  1.0233 -1.2354
   64SAPC   C39 5234   1.169   5.016   7.189 -0.3601  0.2452 -0.1777
   64SAPC   H9X 5235   1.217   5.108   7.150 -1.1144  1.0700  0.7732
   64SAPC   H9Y 5236   1.245   4.944   7.226 -1.1157  1.1226  3.5196
   64SAPC  C310 5237   1.068   5.052   7.297 -0.1744 -0.5861 -0.6651
   64SAPC  H10X 5238   1.037   4.961   7.352 -1.3294 -0.2416 -0.7250
   64SAPC  H10Y 5239   0.975   5.102   7.261  0.6303  2.1798  0.7856
   64SAPC  C311 5240   1.136   5.123   7.411 -0.0144 -0.8258  0.1046
   64SAPC  H11X 5241   1.192   5.211   7.374 -1.8125 -0.1009 -1.0055
   64SAPC  H11Y 5242   1.206   5.064   7.475  0.3462  1.0882  1.5752
   64SAPC  C312 5243   1.038   5.159   7.528 -0.5411 -0.2345  0.2036
   64SAPC  H12X 5244   0.971   5.079   7.565  0.4159 -0.0610  2.4539
   64SAPC  H12Y 5245   0.981   5.243   7.482  1.6629  0.2243 -1.9150
   64SAPC  C313 5246   1.109   5.217   7.646 -0.1127  0.2879 -0.9875
   64SAPC  H13X 5247   1.040   5.270   7.714  0.7471  0.0302  0.1284
   64SAPC  H13Y 5248   1.190   5.290   7.623  0.4563 -0.8085 -2.7150
   64SAPC  C314 5249   1.173   5.107   7.729 -0.7021  0.1821  0.4756
   64SAPC  H14X 5250   1.254   5.049   7.681 -1.4500 -1.0401  0.6546
   64SAPC  H14Y 5251   1.093   5.030   7.730  0.6996 -1.3242 -0.4063
   64SAPC  C315 5252   1.194   5.157   7.867  0.3332 -1.0690  0.3496
   64SAPC  H15X 5253   1.113   5.225   7.901  2.9580  2.4403  0.1445
   64SAPC  H15Y 5254   1.287   5.217   7.881  0.1743 -0.0791 -2.3708
   64SAPC  C316 5255   1.197   5.035   7.964 -0.5022 -0.6647 -0.0860
   64SAPC  H16X 5256   1.288   4.972   7.951  0.3952  0.2379  1.5607
   64SAPC  H16Y 5257   1.112   4.967   7.940  0.9398 -2.2801 -0.8484
   64SAPC  C317 5258   1.198   5.072   8.117 -0.0249  0.5611  0.1160
   64SAPC  H17X 5259   1.300   5.108   8.142  0.3852 -0.8952  0.5920
   64SAPC  H17Y 5260   1.171   4.981   8.175 -0.9535 -0.1821 -1.4106
   64SAPC  C318 5261   1.098   5.180   8.165  0.6074  1.0007  0.5060
   64SAPC  H18X 5262   1.116   5.272   8.106  1.8413 -0.5734 -1.6920
   64SAPC  H18Y 5263   1.120   5.216   8.268  0.4211  2.8195 -0.0511
   64SAPC  H18Z 5264   0.992   5.146   8.162  0.8603  0.2541 -0.4999
   65SAPC     N 5265   1.122   6.696   5.941  0.3534  0.7490  0.0732
   65SAPC   C12 5266   1.220   6.704   6.054 -0.2077 -0.1683 -0.6564
   65SAPC  H12A 5267   1.195   6.634   6.131  0.8339  1.6980  1.5017
   65SAPC  H12B 5268   1.220   6.807   6.087  0.8700 -0.4786  0.3532
   65SAPC   C13 5269   1.159   6.803   5.848  0.4704 -0.5066  0.0789
   65SAPC  H13A 5270   1.128   6.794   5.745  1.2597 -1.9649 -0.0523
   65SAPC  H13B 5271   1.112   6.895   5.880 -2.2371 -2.2862  1.6112
   65SAPC  H13C 5272   1.267   6.803   5.846  0.7124 -0.4853  4.2184
   65SAPC   C14 5273   1.132   6.563   5.870 -0.3606  0.0534 -0.2137
   65SAPC  H14A 5274   1.101   6.479   5.929 -0.3503 -0.5836 -1.0911
   65SAPC  H14B 5275   1.065   6.564   5.785 -0.8744  0.6342  0.1872
   65SAPC  H14C 5276   1.235   6.538   5.850  0.6055  3.0560  0.4865
   65SAPC   C15 5277   0.990   6.732   5.998 -0.2207  0.1727 -0.3070
   65SAPC  H15A 5278   0.960   6.657   6.070  1.7996  1.3143  1.8600
   65SAPC  H15B 5279   0.997   6.822   6.057  1.4413 -0.3449  0.3450
   65SAPC  H15C 5280   0.919   6.742   5.917  1.0301 -0.3765 -1.5324
   65SAPC   C11 5281   1.370   6.664   6.032  0.5164  0.1981  0.6761
   65SAPC  H11A 5282   1.424   6.698   6.123  2.9613 -0.7038 -0.3804
   65SAPC  H11B 5283   1.409   6.705   5.937 -0.9991  1.3520  0.5090
   65SAPC     P 5284   1.339   6.423   6.134  0.2693 -0.0780 -0.2072
   65SAPC   O13 5285   1.223   6.331   6.099  0.7921 -0.5610  0.5155
   65SAPC   O14 5286   1.467   6.357   6.171 -0.2798  0.4023  0.3429
   65SAPC   O12 5287   1.371   6.524   6.019 -0.3208  0.2833  0.2553
   65SAPC   O11 5288   1.285   6.515   6.259 -0.4910  0.0909  0.1621
   65SAPC    C1 5289   1.209   6.445   6.355  0.3280 -0.2165  0.0253
   65SAPC    HA 5290   1.111   6.494   6.338 -0.1309 -1.2120 -0.2877
   65SAPC    HB 5291   1.192   6.338   6.329 -0.0295  0.1076 -1.1538
   65SAPC    C2 5292   1.248   6.465   6.497  0.1228 -0.1147 -0.1441
   65SAPC    HS 5293   1.196   6.393   6.565  2.0183  0.0306  1.5481
   65SAPC   O21 5294   1.235   6.603   6.536  0.2392  0.3073  0.4524
   65SAPC   C21 5295   1.185   6.631   6.647  0.4897 -0.3703 -0.8564
   65SAPC   O22 5296   1.115   6.560   6.714 -0.0739  0.0057  0.0154
   65SAPC   C22 5297   1.240   6.767   6.689  0.6504 -0.7397  0.3037
   65SAPC   H2R 5298   1.349   6.777   6.671  0.1429 -0.5373 -3.3985
   65SAPC   H2S 5299   1.193   6.840   6.621 -0.5326 -1.4169  0.3725
   65SAPC    C3 5300   1.404   6.441   6.515  0.0374  0.0521 -0.2125
   65SAPC    HX 5301   1.467   6.513   6.459  1.0044 -0.9744 -0.4832
   65SAPC    HY 5302   1.410   6.337   6.475 -1.2095  0.2544 -0.9534
   65SAPC   O31 5303   1.434   6.442   6.655  0.4619 -0.2852 -0.8530
   65SAPC   C31 5304   1.550   6.390   6.690 -0.4345  0.4126  0.1742
   65SAPC   O32 5305   1.625   6.337   6.610 -0.3226  0.3164 -0.0401
   65SAPC   C32 5306   1.576   6.409   6.841  0.3096  0.5483  0.8255
   65SAPC   H2X 5307   1.556   6.317   6.900  0.9604 -0.1481 -0.0123
   65SAPC   H2Y 5308   1.502   6.490   6.859  1.1967  1.3051  1.1448
   65SAPC   C23 5309   1.197   6.789   6.840  0.2844 -1.2273 -0.3560
   65SAPC   H3R 5310   1.087   6.794   6.857 -0.0018 -1.3505 -1.9394
   65SAPC   H3S 5311   1.217   6.897   6.859  1.3823 -1.4886  0.0277
   65SAPC   C24 5312   1.269   6.710   6.949 -0.7894 -0.4749  0.6023
   65SAPC   H4R 5313   1.247   6.602   6.932  1.0136 -0.5812 -1.3394
   65SAPC   H4S 5314   1.213   6.727   7.043  2.0240 -0.2279  2.3270
   65SAPC   C25 5315   1.412   6.738   6.972  0.5158 -0.0359  0.6402
   65SAPC   H5R 5316   1.446   6.810   6.897  1.9257  2.0015  3.0728
   65SAPC   C26 5317   1.499   6.720   7.074  0.8145 -0.4157  0.2923
   65SAPC   H6R 5318   1.601   6.753   7.051  0.0170  0.5652 -2.1196
   65SAPC   C27 5319   1.481   6.650   7.207 -0.4789  0.0105 -0.7231
   65SAPC   H7R 5320   1.426   6.723   7.270 -0.9932  0.5034 -1.7181
   65SAPC   H7S 5321   1.581   6.638   7.253  0.0254 -1.5955 -2.1342
   65SAPC   C28 5322   1.394   6.526   7.203  0.6745 -0.8271 -0.8471
   65SAPC   H8R 5323   1.340   6.506   7.110 -0.2482  1.9540 -1.0107
   65SAPC   C29 5324   1.374   6.434   7.303  0.0367 -0.4123 -0.3372
   65SAPC   H9R 5325   1.302   6.353   7.284 -1.0608  0.2359  0.9716
   65SAPC  C210 5326   1.431   6.420   7.442  0.1217 -0.3057 -0.7313
   65SAPC  H10R 5327   1.537   6.399   7.421  1.1368  2.0883  1.4274
   65SAPC  H10S 5328   1.399   6.322   7.485 -0.4777 -0.0311 -0.5345
   65SAPC  C211 5329   1.397   6.532   7.537 -0.3047 -0.3798  0.2512
   65SAPC  H11R 5330   1.319   6.600   7.501  0.4811  0.3561 -0.0779
   65SAPC  C212 5331   1.465   6.566   7.650 -0.3382  0.5329 -0.2127
   65SAPC  H12R 5332   1.436   6.648   7.718  1.8728  0.1694  1.2976
   65SAPC  C213 5333   1.573   6.485   7.720 -0.6286  0.0388 -0.2363
   65SAPC  H13R 5334   1.594   6.398   7.653  0.5077  1.0331 -1.2202
   65SAPC  H13S 5335   1.538   6.433   7.812  0.2678 -1.7381 -0.8464
   65SAPC  C214 5336   1.708   6.547   7.759 -0.0719 -0.3648  0.5930
   65SAPC  H14R 5337   1.728   6.534   7.866  1.1543 -3.2831  0.0939
   65SAPC  C215 5338   1.788   6.619   7.674 -0.5299  0.1284 -0.2383
   65SAPC  H15R 5339   1.878   6.667   7.716 -1.7869  0.4373  2.3505
   65SAPC  C216 5340   1.772   6.661   7.529  0.3037 -0.6931 -0.3011
   65SAPC  H16R 5341   1.678   6.617   7.490 -0.2472  0.7323 -0.6411
   65SAPC  H16S 5342   1.855   6.615   7.471  0.3889 -1.8335  0.6905
   65SAPC  C217 5343   1.767   6.817   7.518  0.8323 -0.0913  0.0460
   65SAPC  H17R 5344   1.871   6.856   7.514  0.0872  1.9349 -0.4922
   65SAPC  H17S 5345   1.729   6.874   7.605  2.8186  3.6804 -1.3210
   65SAPC  C218 5346   1.693   6.869   7.401  0.0834 -0.0464  0.2059
   65SAPC  H18R 5347   1.583   6.858   7.412 -0.3526  2.4277 -0.9723
   65SAPC  H18S 5348   1.735   6.822   7.309 -1.1038 -2.7928  0.9577
   65SAPC  C219 5349   1.726   7.021   7.372  0.3366  0.8288 -0.2194
   65SAPC  H19R 5350   1.836   7.035   7.372  0.6895 -1.5140  0.1416
   65SAPC  H19S 5351   1.689   7.081   7.458 -0.5651  1.4107 -0.9953
   65SAPC  C220 5352   1.678   7.074   7.238 -0.3082  0.1877  1.1810
   65SAPC  H20R 5353   1.716   7.006   7.159  0.6397 -0.9615  2.5800
   65SAPC  H20S 5354   1.715   7.175   7.210  1.1227 -0.8193 -0.7856
   65SAPC  H20T 5355   1.567   7.078   7.233 -0.3035 -0.9575 -2.2027
   65SAPC   C33 5356   1.715   6.460   6.870  0.2550  0.3529  1.0209
   65SAPC   H3X 5357   1.718   6.515   6.967  0.3098  0.0141  1.2139
   65SAPC   H3Y 5358   1.746   6.537   6.796 -1.8527  3.0033  2.7074
   65SAPC   C34 5359   1.818   6.349   6.881  0.8936  0.2318 -0.1667
   65SAPC   H4X 5360   1.926   6.376   6.886  0.6029  1.2137  1.9700
   65SAPC   H4Y 5361   1.811   6.292   6.786 -1.8528  1.9619 -1.1354
   65SAPC   C35 5362   1.797   6.275   7.015  0.1070 -0.4160 -0.2136
   65SAPC   H5X 5363   1.691   6.250   7.035 -0.1732  0.4901 -0.5453
   65SAPC   H5Y 5364   1.827   6.352   7.090  2.1374  1.7981 -3.0871
   65SAPC   C36 5365   1.884   6.152   7.039  0.8438 -0.4402 -0.6395
   65SAPC   H6X 5366   1.986   6.166   6.999  1.4089 -0.9385  0.5785
   65SAPC   H6Y 5367   1.829   6.076   6.978 -2.3118  1.7572 -0.7606
   65SAPC   C37 5368   1.891   6.108   7.185  0.4873  0.4898 -0.4880
   65SAPC   H7X 5369   1.791   6.088   7.229  0.7612 -1.7101 -0.7316
   65SAPC   H7Y 5370   1.938   6.190   7.243  1.8778  0.4331 -1.4834
   65SAPC   C38 5371   1.991   5.994   7.208  0.8192  0.1361  0.3417
   65SAPC   H8X 5372   2.068   6.020   7.133 -0.5214  1.0876 -0.7635
   65SAPC   H8Y 5373   1.945   5.893   7.196 -1.3679  1.1763 -0.4688
   65SAPC   C39 5374   2.041   5.992   7.350 -0.6053  0.2736  0.5308
   65SAPC   H9X 5375   2.091   6.087   7.378  0.2967 -0.5351  1.7422
   65SAPC   H9Y 5376   2.128   5.923   7.351  0.6007  1.5666 -2.3809
   65SAPC  C310 5377   1.940   5.963   7.457  0.1705 -0.1448  0.2124
   65SAPC  H10X 5378   1.917   5.854   7.447 -2.2642  0.2239  1.1196
   65SAPC  H10Y 5379   1.851   6.028   7.461 -1.0252 -1.6884 -0.0420
   65SAPC  C311 5380   2.007   5.974   7.600  0.1784  0.6570  0.4206
   65SAPC  H11X 5381   2.111   5.956   7.567 -0.3750 -1.6372 -0.2456
   65SAPC  H11Y 5382   1.981   5.892   7.670 -1.2441  0.9441  0.2633
   65SAPC  C312 5383   1.985   6.101   7.677 -0.3507 -0.2984 -0.0847
   65SAPC  H12X 5384   1.878   6.109   7.705  0.4592  0.5088  3.1365
   65SAPC  H12Y 5385   2.011   6.186   7.610 -2.4743  0.2789 -0.2490
   65SAPC  C313 5386   2.062   6.124   7.812  0.2359  0.8946  0.4337
   65SAPC  H13X 5387   2.170   6.131   7.789 -0.0242  0.2655 -1.1391
   65SAPC  H13Y 5388   2.033   6.038   7.877 -0.1964 -0.3782 -1.3638
   65SAPC  C314 5389   2.025   6.255   7.872  0.1411  0.1134 -0.1121
   65SAPC  H14X 5390   1.932   6.282   7.818 -0.6883 -2.2355  0.0075
   65SAPC  H14Y 5391   2.097   6.336   7.852 -0.5211  0.0503 -3.2754
   65SAPC  C315 5392   2.013   6.241   8.028 -0.0060  0.2507 -0.4542
   65SAPC  H15X 5393   2.108   6.279   8.073 -0.8937  0.8569  0.9534
   65SAPC  H15Y 5394   2.011   6.133   8.051  2.7738  0.2851  0.3637
   65SAPC  C316 5395   1.888   6.302   8.093 -0.3242 -0.3390 -0.0333
   65SAPC  H16X 5396   1.887   6.263   8.196 -0.0992 -1.2480 -0.3660
   65SAPC  H16Y 5397   1.799   6.273   8.033 -2.2879  2.3454  1.3420
   65SAPC  C317 5398   1.900   6.453   8.092  0.0423 -0.1637  0.4888
   65SAPC  H17X 5399   1.811   6.475   8.156  1.3726  0.4338  2.2023
   65SAPC  H17Y 5400   1.878   6.496   7.992 -0.9947 -1.1694  0.2557
   65SAPC  C318 5401   2.025   6.508   8.166  0.5980  0.0730 -0.3217
   65SAPC  H18X 5402   2.036   6.457   8.265 -0.0256  1.3237  0.4244
   65SAPC  H18Y 5403   2.019   6.617   8.187  1.5264  0.0433  0.1644
   65SAPC  H18Z 5404   2.114   6.498   8.100  0.7613  3.2496 -0.7404
   66SAPC     N 5405   6.712   5.868   5.885  0.2518  0.8469 -0.1244
   66SAPC   C12 5406   6.674   5.897   6.026  0.1935 -0.3448 -0.8687
   66SAPC  H12A 5407   6.643   6.000   6.040 -0.5781 -0.5664 -0.9199
   66SAPC  H12B 5408   6.768   5.908   6.078 -0.4288 -1.6593  0.6328
   66SAPC   C13 5409   6.795   5.973   5.824 -0.5536  0.2046 -0.4910
   66SAPC  H13A 5410   6.893   5.947   5.862 -1.6337 -2.5793  0.6139
   66SAPC  H13B 5411   6.791   5.971   5.716 -0.7417 -0.8750 -0.4709
   66SAPC  H13C 5412   6.767   6.075   5.843  1.6405  0.8264 -0.3083
   66SAPC   C14 5413   6.770   5.731   5.861 -0.5940  0.0225 -0.2950
   66SAPC  H14A 5414   6.712   5.642   5.878  0.6802 -0.5473  1.4927
   66SAPC  H14B 5415   6.807   5.725   5.760  0.1310  3.1173 -0.3120
   66SAPC  H14C 5416   6.860   5.721   5.920 -0.9313  0.2923  0.2752
   66SAPC   C15 5417   6.591   5.875   5.796  0.2313 -0.5442  0.2204
   66SAPC  H15A 5418   6.544   5.972   5.793  0.7008 -0.3346 -0.6559
   66SAPC  H15B 5419   6.621   5.834   5.701  3.1020 -0.2694  0.9150
   66SAPC  H15C 5420   6.515   5.807   5.832 -0.8825  1.6054  2.2649
   66SAPC   C11 5421   6.588   5.803   6.109 -0.1136  0.6335  0.1552
   66SAPC  H11A 5422   6.579   5.837   6.214 -0.5102 -0.3771  0.4535
   66SAPC  H11B 5423   6.647   5.709   6.110  5.2796  3.6198 -0.3058
   66SAPC     P 5424   6.340   5.891   6.083  0.5676  0.6580  0.0122
   66SAPC   O13 5425   6.407   6.022   6.084  0.2901  0.5982 -0.1489
   66SAPC   O14 5426   6.232   5.868   5.985  0.0235  0.8550 -0.1029
   66SAPC   O12 5427   6.461   5.791   6.056  0.4040 -0.2728  0.0445
   66SAPC   O11 5428   6.279   5.850   6.228 -0.7110  0.2907  0.7306
   66SAPC    C1 5429   6.354   5.885   6.345 -0.3048  0.1225 -0.6901
   66SAPC    HA 5430   6.441   5.951   6.325 -0.9703  2.0432  2.1870
   66SAPC    HB 5431   6.293   5.939   6.420  0.9836 -1.8593  1.9753
   66SAPC    C2 5432   6.417   5.766   6.425 -0.3093  0.2076 -0.5382
   66SAPC    HS 5433   6.490   5.717   6.356  0.8465  0.9297  0.1279
   66SAPC   O21 5434   6.311   5.675   6.459  0.2156  0.0889 -0.2083
   66SAPC   C21 5435   6.351   5.559   6.509 -0.8119  0.1565  0.4262
   66SAPC   O22 5436   6.464   5.513   6.514  0.7684  0.7918 -0.4890
   66SAPC   C22 5437   6.229   5.496   6.569  0.9801 -0.3416 -0.4159
   66SAPC   H2R 5438   6.177   5.568   6.637  1.8228 -1.8441  1.9449
   66SAPC   H2S 5439   6.169   5.464   6.482  0.7130  1.4931 -0.9420
   66SAPC    C3 5440   6.515   5.811   6.543 -0.1478  0.2377 -0.3671
   66SAPC    HX 5441   6.596   5.877   6.505 -0.4307  1.1486  0.5609
   66SAPC    HY 5442   6.564   5.725   6.594  0.3136  0.7188  0.0124
   66SAPC   O31 5443   6.437   5.886   6.632  0.5204  0.1359 -0.1173
   66SAPC   C31 5444   6.365   5.814   6.728 -0.4434 -0.1575  0.1668
   66SAPC   O32 5445   6.384   5.697   6.757 -0.0669 -0.1854  0.2681
   66SAPC   C32 5446   6.251   5.892   6.778 -0.3320  0.0714  0.4413
   66SAPC   H2X 5447   6.181   5.810   6.804 -1.6672  1.4365  1.3919
   66SAPC   H2Y 5448   6.214   5.952   6.692 -2.0373 -1.1023  0.2903
   66SAPC   C23 5449   6.269   5.377   6.652  0.6297 -0.2642 -0.4267
   66SAPC   H3R 5450   6.328   5.408   6.741  1.5076 -0.8191 -0.7942
   66SAPC   H3S 5451   6.336   5.317   6.587  1.4317  1.5262 -1.3309
   66SAPC   C24 5452   6.151   5.284   6.692  0.0624 -0.6004  0.1213
   66SAPC   H4R 5453   6.137   5.225   6.599  1.6456 -0.0078 -0.5223
   66SAPC   H4S 5454   6.062   5.348   6.711  0.5291 -0.1797  0.9686
   66SAPC   C25 5455   6.174   5.197   6.813  0.4984 -0.2623 -0.4227
   66SAPC   H5R 5456   6.166   5.088   6.798 -3.0442 -0.2380  0.3289
   66SAPC   C26 5457   6.203   5.225   6.941  0.3193  0.3983  0.9502
   66SAPC   H6R 5458   6.224   5.138   7.005 -1.8800 -1.5118 -0.7247
   66SAPC   C27 5459   6.220   5.356   7.003  0.4701 -0.4097 -0.7026
   66SAPC   H7R 5460   6.126   5.375   7.059  0.0261 -0.1696 -1.5078
   66SAPC   H7S 5461   6.231   5.432   6.923 -1.0747  0.6423  0.0280
   66SAPC   C28 5462   6.343   5.358   7.093 -0.2379 -0.3477  0.1749
   66SAPC   H8R 5463   6.441   5.341   7.047 -0.6886 -1.0348 -0.5467
   66SAPC   C29 5464   6.350   5.405   7.222  0.8754  0.2984  0.1917
   66SAPC   H9R 5465   6.445   5.398   7.277  0.0893 -1.5395  1.4052
   66SAPC  C210 5466   6.229   5.455   7.297 -0.1950 -0.2666 -0.2754
   66SAPC  H10R 5467   6.184   5.362   7.338  1.4082 -1.3719 -0.8956
   66SAPC  H10S 5468   6.151   5.507   7.238 -0.1243  1.5679  1.1720
   66SAPC  C211 5469   6.271   5.547   7.412  0.5462  0.3289  0.2053
   66SAPC  H11R 5470   6.306   5.642   7.369  0.2169 -0.4154 -1.8010
   66SAPC  C212 5471   6.263   5.524   7.542 -0.1972 -0.6220 -0.3545
   66SAPC  H12R 5472   6.309   5.599   7.608  1.0758 -0.9529 -0.8321
   66SAPC  C213 5473   6.212   5.396   7.605 -0.0324  0.9279  0.0564
   66SAPC  H13R 5474   6.276   5.376   7.694 -1.1686  4.2762  1.8071
   66SAPC  H13S 5475   6.223   5.311   7.534  1.9804  2.2079 -1.2635
   66SAPC  C214 5476   6.067   5.422   7.649 -0.2704 -0.3617 -0.2315
   66SAPC  H14R 5477   6.016   5.491   7.581  2.3160  2.4780  0.4949
   66SAPC  C215 5478   6.011   5.366   7.762  0.0594 -0.1268  0.7973
   66SAPC  H15R 5479   5.910   5.395   7.792 -0.7504 -0.2226 -1.6395
   66SAPC  C216 5480   6.081   5.260   7.849  0.4736 -0.2478  0.3701
   66SAPC  H16R 5481   6.182   5.227   7.820 -0.0027 -1.4390  0.0289
   66SAPC  H16S 5482   6.020   5.168   7.840 -1.4576  0.9379  0.6591
   66SAPC  C217 5483   6.082   5.299   7.999  0.9390  0.2146  0.3265
   66SAPC  H17R 5484   5.985   5.353   8.006  1.7288  2.0204 -1.5171
   66SAPC  H17S 5485   6.161   5.373   8.023  2.5586 -2.0746  2.5223
   66SAPC  C218 5486   6.086   5.167   8.083 -0.2860 -0.1557  0.0925
   66SAPC  H18R 5487   6.188   5.134   8.112 -0.5504  0.5713  2.0214
   66SAPC  H18S 5488   6.032   5.080   8.041 -0.4844  0.1369 -0.2651
   66SAPC  C219 5489   6.019   5.208   8.223 -1.4821  0.1340 -0.0255
   66SAPC  H19R 5490   6.027   5.120   8.290  1.5344 -0.4648 -1.0008
   66SAPC  H19S 5491   5.909   5.218   8.213 -1.2097  2.8918 -1.1033
   66SAPC  C220 5492   6.086   5.327   8.288  0.0882 -0.1463 -0.0687
   66SAPC  H20R 5493   6.188   5.343   8.249  0.9556 -2.1654  1.2341
   66SAPC  H20S 5494   6.101   5.318   8.397 -0.2205 -1.3109 -0.1076
   66SAPC  H20T 5495   6.029   5.421   8.272  0.6994  0.6372  2.0476
   66SAPC   C33 5496   6.286   5.995   6.888 -0.7352  0.6464  0.0478
   66SAPC   H3X 5497   6.198   6.058   6.912 -0.4884  0.0992  2.6424
   66SAPC   H3Y 5498   6.373   6.057   6.858 -0.0479  0.1464  0.9730
   66SAPC   C34 5499   6.327   5.923   7.019  0.0755 -0.2345  0.1563
   66SAPC   H4X 5500   6.408   5.850   7.001 -2.4291 -3.6060  1.3469
   66SAPC   H4Y 5501   6.236   5.863   7.044  0.8950 -1.4305  0.3519
   66SAPC   C35 5502   6.361   6.021   7.138  0.0823 -0.6090 -0.0191
   66SAPC   H5X 5503   6.270   6.078   7.171 -0.2629 -1.8741  1.3309
   66SAPC   H5Y 5504   6.446   6.087   7.112 -0.0151 -0.6389 -0.4213
   66SAPC   C36 5505   6.392   5.944   7.264  0.2563 -0.2174  0.1992
   66SAPC   H6X 5506   6.493   5.899   7.258 -0.3864 -1.5810 -0.8396
   66SAPC   H6Y 5507   6.322   5.858   7.271  0.9116 -0.6463  1.8088
   66SAPC   C37 5508   6.393   6.015   7.410  0.5577 -0.7203 -0.1926
   66SAPC   H7X 5509   6.296   6.067   7.422  1.8762  1.7114  0.4269
   66SAPC   H7Y 5510   6.466   6.098   7.404  0.5349 -0.7517 -1.0366
   66SAPC   C38 5511   6.418   5.912   7.518  0.4662 -0.7778  0.1809
   66SAPC   H8X 5512   6.494   5.838   7.486 -0.8415 -1.7535 -0.7912
   66SAPC   H8Y 5513   6.324   5.853   7.530  0.5800 -0.9550  0.2174
   66SAPC   C39 5514   6.462   5.971   7.653  0.2743  0.6117 -0.2199
   66SAPC   H9X 5515   6.568   6.005   7.647  0.7926 -0.9571 -0.3960
   66SAPC   H9Y 5516   6.456   5.894   7.732 -1.8172  2.0032  1.0814
   66SAPC  C310 5517   6.372   6.082   7.709 -0.0671  0.0220 -0.2978
   66SAPC  H10X 5518   6.269   6.067   7.670  0.2213 -2.7376 -0.1394
   66SAPC  H10Y 5519   6.401   6.188   7.691  0.3809  0.1862  1.2519
   66SAPC  C311 5520   6.358   6.075   7.864  0.3995 -0.0220 -0.2667
   66SAPC  H11X 5521   6.295   6.158   7.902  0.7151  0.5175 -0.9198
   66SAPC  H11Y 5522   6.456   6.090   7.914  1.0424  1.7040 -1.9500
   66SAPC  C312 5523   6.282   5.952   7.911  0.0817 -0.3073 -0.4025
   66SAPC  H12X 5524   6.358   5.871   7.913  1.2089  0.7077 -0.8322
   66SAPC  H12Y 5525   6.198   5.924   7.843  0.1230  2.3786 -1.6567
   66SAPC  C313 5526   6.223   5.975   8.055  0.3223 -0.6794  0.1139
   66SAPC  H13X 5527   6.160   6.066   8.054  0.1124 -0.8003  1.0550
   66SAPC  H13Y 5528   6.315   6.008   8.109 -0.9453  1.7822  0.8997
   66SAPC  C314 5529   6.148   5.855   8.115 -0.0625 -0.2653  0.4148
   66SAPC  H14X 5530   6.215   5.799   8.184 -0.6249 -0.6110  0.6784
   66SAPC  H14Y 5531   6.134   5.785   8.030 -0.7650 -0.4919  0.7159
   66SAPC  C315 5532   6.012   5.889   8.179 -0.4195 -0.4033 -0.5697
   66SAPC  H15X 5533   5.928   5.896   8.107 -1.2028  0.6612  0.4106
   66SAPC  H15Y 5534   6.024   5.982   8.239 -0.9917 -0.6668 -0.0465
   66SAPC  C316 5535   5.973   5.777   8.285  0.1225 -0.0331  0.3900
   66SAPC  H16X 5536   6.043   5.784   8.371 -1.2101  0.2054  1.4864
   66SAPC  H16Y 5537   5.989   5.676   8.242  0.0088  0.4377 -0.8020
   66SAPC  C317 5538   5.830   5.792   8.330 -0.4556  0.1551 -0.8948
   66SAPC  H17X 5539   5.777   5.774   8.234  4.0332 -1.7847 -3.3193
   66SAPC  H17Y 5540   5.819   5.891   8.380 -1.6244 -0.7137  0.6311
   66SAPC  C318 5541   5.798   5.665   8.420 -0.3102 -0.5903  1.5828
   66SAPC  H18X 5542   5.823   5.580   8.353  0.0866  1.2846 -0.7959
   66SAPC  H18Y 5543   5.688   5.667   8.436 -0.5846  0.4665 -0.1868
   66SAPC  H18Z 5544   5.864   5.666   8.510  0.8139  2.1585  0.8330
   67SAPC     N 5545   3.683   2.390   6.026 -0.6577 -0.3151  0.7111
   67SAPC   C12 5546   3.676   2.416   6.168  0.3343 -0.5623 -0.3619
   67SAPC  H12A 5547   3.572   2.437   6.188  0.2888  0.3644 -1.4714
   67SAPC  H12B 5548   3.721   2.510   6.196  0.3951 -1.3148  2.3874
   67SAPC   C13 5549   3.818   2.359   5.979  0.3615 -0.0166  0.4161
   67SAPC  H13A 5550   3.883   2.443   5.958  0.4832 -0.1690  0.1849
   67SAPC  H13B 5551   3.874   2.307   6.056 -0.8737 -1.8266  0.1482
   67SAPC  H13C 5552   3.810   2.307   5.885  0.6474  1.9559 -0.7632
   67SAPC   C14 5553   3.594   2.275   5.997  0.2904 -0.6284  0.0950
   67SAPC  H14A 5554   3.579   2.255   5.892  1.0291  3.3165 -0.9164
   67SAPC  H14B 5555   3.630   2.183   6.041  2.1065  0.2243  0.4685
   67SAPC  H14C 5556   3.500   2.305   6.039  0.7079  2.1194 -0.7293
   67SAPC   C15 5557   3.629   2.495   5.948  0.6825  0.1708 -0.3232
   67SAPC  H15A 5558   3.635   2.457   5.847  0.0242  1.4324 -0.8740
   67SAPC  H15B 5559   3.526   2.522   5.968  0.3094  0.9071 -2.8029
   67SAPC  H15C 5560   3.691   2.584   5.951  1.3559 -0.3035  0.0149
   67SAPC   C11 5561   3.735   2.317   6.272 -0.4866  0.8277 -0.4576
   67SAPC  H11A 5562   3.746   2.368   6.370  1.1409 -0.6221  0.1836
   67SAPC  H11B 5563   3.837   2.291   6.236 -0.5055  2.4354 -1.7455
   67SAPC     P 5564   3.531   2.195   6.370  0.2569 -0.0658  0.4020
   67SAPC   O13 5565   3.440   2.305   6.337 -0.9227  0.1810 -0.7208
   67SAPC   O14 5566   3.469   2.059   6.364 -0.2722 -1.2610  0.7297
   67SAPC   O12 5567   3.654   2.198   6.271  0.1877 -0.7784 -0.0400
   67SAPC   O11 5568   3.599   2.215   6.510  0.9263  0.0166 -0.0242
   67SAPC    C1 5569   3.668   2.104   6.574 -0.1537  0.0072 -0.2619
   67SAPC    HA 5570   3.695   2.025   6.500  0.6751  0.2364 -0.2159
   67SAPC    HB 5571   3.762   2.141   6.622 -0.2260  0.7940 -0.7150
   67SAPC    C2 5572   3.576   2.043   6.680  0.3645  0.2041 -0.2117
   67SAPC    HS 5573   3.499   1.991   6.618 -0.4858  2.3355 -1.0306
   67SAPC   O21 5574   3.525   2.149   6.761 -0.0350 -0.1292  0.2641
   67SAPC   C21 5575   3.409   2.194   6.724  0.8024 -0.3584  0.5135
   67SAPC   O22 5576   3.329   2.139   6.644 -0.1750  0.0927 -1.1486
   67SAPC   C22 5577   3.384   2.327   6.801 -0.5295 -0.3143  0.3439
   67SAPC   H2R 5578   3.480   2.379   6.820  0.4684 -2.5139  1.7856
   67SAPC   H2S 5579   3.309   2.383   6.742 -1.0292  2.1488  3.0998
   67SAPC    C3 5580   3.648   1.938   6.763  0.1520  0.0861  0.5831
   67SAPC    HX 5581   3.716   1.998   6.827 -0.1062  1.6655 -0.5685
   67SAPC    HY 5582   3.709   1.865   6.706  2.1344  1.6446  0.6285
   67SAPC   O31 5583   3.557   1.862   6.850 -0.2992  0.5687 -0.5110
   67SAPC   C31 5584   3.472   1.775   6.795 -0.1976 -0.5815 -0.0861
   67SAPC   O32 5585   3.454   1.764   6.679  0.5822 -0.4586  0.2685
   67SAPC   C32 5586   3.412   1.690   6.907 -0.5793 -0.9545  0.5080
   67SAPC   H2X 5587   3.401   1.585   6.874  0.7710 -0.7010 -0.8441
   67SAPC   H2Y 5588   3.310   1.731   6.925  0.7235  1.9858  2.0858
   67SAPC   C23 5589   3.306   2.288   6.931  0.5125  0.1680  0.0015
   67SAPC   H3R 5590   3.218   2.224   6.909 -0.1731  0.2399  2.2510
   67SAPC   H3S 5591   3.264   2.383   6.970 -0.0204  1.2472 -2.9536
   67SAPC   C24 5592   3.392   2.227   7.046 -0.1051  0.6391  0.1240
   67SAPC   H4R 5593   3.394   2.311   7.120  0.2732  0.5837  0.1780
   67SAPC   H4S 5594   3.496   2.209   7.012  0.2524  1.0365  0.9822
   67SAPC   C25 5595   3.340   2.091   7.103 -0.4528 -0.5249  0.1430
   67SAPC   H5R 5596   3.330   2.021   7.019 -0.2895  0.7118 -0.9428
   67SAPC   C26 5597   3.323   2.063   7.232 -0.0792  0.6395  0.0444
   67SAPC   H6R 5598   3.274   1.970   7.262 -0.1026  0.1662 -1.3776
   67SAPC   C27 5599   3.371   2.150   7.347 -0.6966 -0.2145 -0.1525
   67SAPC   H7R 5600   3.285   2.200   7.397 -0.2191 -0.3515  0.8102
   67SAPC   H7S 5601   3.451   2.222   7.321  2.8168 -3.6210  0.3749
   67SAPC   C28 5602   3.423   2.058   7.448 -0.5330 -0.0704 -0.6190
   67SAPC   H8R 5603   3.529   2.027   7.442 -0.8521 -1.7478  1.2721
   67SAPC   C29 5604   3.366   1.996   7.552 -0.0762 -0.6967  0.1723
   67SAPC   H9R 5605   3.426   1.923   7.607  1.5956  0.9526  0.6434
   67SAPC  C210 5606   3.229   2.026   7.609  0.0563 -1.1341  0.0706
   67SAPC  H10R 5607   3.177   1.934   7.643 -0.1994 -0.1242  2.7116
   67SAPC  H10S 5608   3.161   2.067   7.531 -0.4987 -0.4777  0.8711
   67SAPC  C211 5609   3.228   2.109   7.734  0.0072  0.5138  0.1176
   67SAPC  H11R 5610   3.183   2.208   7.715  1.3875  0.8975 -1.2925
   67SAPC  C212 5611   3.268   2.068   7.858  0.7566 -0.2893  0.6643
   67SAPC  H12R 5612   3.250   2.139   7.940  0.4360 -0.5644  0.8342
   67SAPC  C213 5613   3.338   1.938   7.893 -0.2272 -0.2736  0.3787
   67SAPC  H13R 5614   3.428   1.974   7.946  0.8265 -0.5734 -1.1410
   67SAPC  H13S 5615   3.379   1.883   7.806  0.1940  0.3868  0.1505
   67SAPC  C214 5616   3.245   1.847   7.978 -0.2610 -0.1559  0.4247
   67SAPC  H14R 5617   3.159   1.809   7.921  0.0921 -0.6254  0.1891
   67SAPC  C215 5618   3.262   1.810   8.110 -0.1981  0.1741  0.5513
   67SAPC  H15R 5619   3.179   1.752   8.152  0.4527 -0.9672  0.2867
   67SAPC  C216 5620   3.374   1.844   8.194  0.2761 -0.2669 -0.0372
   67SAPC  H16R 5621   3.330   1.913   8.269 -4.0870  0.2746 -2.7823
   67SAPC  H16S 5622   3.447   1.903   8.134 -0.2172 -0.1427 -0.5213
   67SAPC  C217 5623   3.448   1.718   8.247  0.3942 -0.5503  0.0011
   67SAPC  H17R 5624   3.514   1.678   8.166 -1.0875  0.1607 -1.6390
   67SAPC  H17S 5625   3.380   1.642   8.290 -2.1249 -0.4479 -3.4139
   67SAPC  C218 5626   3.561   1.757   8.359  0.0957  0.0951  0.1457
   67SAPC  H18R 5627   3.617   1.844   8.319 -1.2268  0.1521 -1.7323
   67SAPC  H18S 5628   3.609   1.660   8.383  0.9157  0.3785 -0.3279
   67SAPC  C219 5629   3.492   1.807   8.482  0.3965  0.0662  0.0218
   67SAPC  H19R 5630   3.427   1.729   8.526 -1.1744  1.4980  0.3314
   67SAPC  H19S 5631   3.426   1.890   8.450  1.5260  0.3922 -1.6544
   67SAPC  C220 5632   3.601   1.850   8.577 -0.2313  0.2267  0.2705
   67SAPC  H20R 5633   3.688   1.781   8.582  0.4950  1.1868  1.3815
   67SAPC  H20S 5634   3.566   1.872   8.680  0.4504  2.2709  0.1090
   67SAPC  H20T 5635   3.652   1.942   8.541 -0.5406  0.4833  0.4848
   67SAPC   C33 5636   3.489   1.702   7.040  0.2788  0.5450 -0.0891
   67SAPC   H3X 5637   3.512   1.808   7.065 -0.0655  1.1338 -2.0922
   67SAPC   H3Y 5638   3.584   1.645   7.030 -0.0676  0.3897 -3.3623
   67SAPC   C34 5639   3.404   1.648   7.159 -0.2898  0.1160 -0.0091
   67SAPC   H4X 5640   3.365   1.548   7.129  0.3550  0.2231 -1.2361
   67SAPC   H4Y 5641   3.313   1.711   7.159 -2.8806 -3.3007 -1.9587
   67SAPC   C35 5642   3.476   1.641   7.297  0.1369  0.2391  0.3018
   67SAPC   H5X 5643   3.515   1.743   7.320  0.9324  0.0334 -0.0811
   67SAPC   H5Y 5644   3.566   1.577   7.285 -0.0015 -0.3015  1.8486
   67SAPC   C36 5645   3.385   1.586   7.408 -1.2455 -0.5455  0.4479
   67SAPC   H6X 5646   3.355   1.481   7.392  0.5450 -1.0109 -0.0253
   67SAPC   H6Y 5647   3.297   1.652   7.420 -0.2000  0.6031  2.2438
   67SAPC   C37 5648   3.469   1.607   7.539  0.1052  0.1366  0.3196
   67SAPC   H7X 5649   3.467   1.714   7.566 -1.7054  0.2445 -0.1158
   67SAPC   H7Y 5650   3.568   1.558   7.525 -0.0258  0.5245 -2.7808
   67SAPC   C38 5651   3.397   1.536   7.657  0.3266 -0.1035  0.3023
   67SAPC   H8X 5652   3.377   1.432   7.622  1.4329 -0.3577  0.3927
   67SAPC   H8Y 5653   3.297   1.580   7.678 -0.0203 -0.6152 -0.2349
   67SAPC   C39 5654   3.479   1.533   7.785 -0.5974 -0.0988 -0.1917
   67SAPC   H9X 5655   3.491   1.635   7.827  2.1757 -1.2116  1.9905
   67SAPC   H9Y 5656   3.574   1.486   7.752 -0.2347  0.7366 -0.3616
   67SAPC  C310 5657   3.405   1.448   7.891  0.3488 -0.3834  0.7655
   67SAPC  H10X 5658   3.358   1.358   7.847 -1.3698  0.6305  0.4502
   67SAPC  H10Y 5659   3.330   1.516   7.938  2.0476  0.9418  1.7132
   67SAPC  C311 5660   3.506   1.413   8.003  1.1561  0.0672 -0.4878
   67SAPC  H11X 5661   3.564   1.504   8.029 -1.9265  2.1429 -0.3287
   67SAPC  H11Y 5662   3.572   1.334   7.962 -1.4573 -2.1198 -0.7316
   67SAPC  C312 5663   3.444   1.352   8.131  0.4111  0.5989 -0.4704
   67SAPC  H12X 5664   3.402   1.251   8.111 -1.3816  0.7115  2.2480
   67SAPC  H12Y 5665   3.370   1.423   8.172 -0.7525  1.4043 -3.7092
   67SAPC  C313 5666   3.546   1.331   8.245  0.6875  0.6077  0.1548
   67SAPC  H13X 5667   3.605   1.426   8.247  1.3407  0.2064  0.3291
   67SAPC  H13Y 5668   3.624   1.258   8.216  0.9874  1.4579 -1.3579
   67SAPC  C314 5669   3.484   1.297   8.384  0.4772 -0.8967 -0.0519
   67SAPC  H14X 5670   3.401   1.369   8.400  1.5824  0.0203  1.8381
   67SAPC  H14Y 5671   3.554   1.323   8.466 -0.8258  2.8835  0.0403
   67SAPC  C315 5672   3.445   1.149   8.408  0.2197 -0.1625 -0.0465
   67SAPC  H15X 5673   3.530   1.078   8.419 -1.4489 -2.3875 -0.7460
   67SAPC  H15Y 5674   3.389   1.122   8.316  0.4868 -0.3046 -0.1677
   67SAPC  C316 5675   3.349   1.145   8.536  0.4920  0.3298  0.4996
   67SAPC  H16X 5676   3.390   1.218   8.609 -0.7253  0.0270  1.5255
   67SAPC  H16Y 5677   3.344   1.041   8.574  2.5982 -0.6453 -1.6756
   67SAPC  C317 5678   3.206   1.175   8.492 -0.5644  0.5571  0.1260
   67SAPC  H17X 5679   3.165   1.090   8.433 -1.6999  1.4872 -0.4775
   67SAPC  H17Y 5680   3.209   1.260   8.420 -0.0671  1.1201  0.8056
   67SAPC  C318 5681   3.114   1.223   8.604 -0.4793 -0.0614 -0.6299
   67SAPC  H18X 5682   3.038   1.287   8.553 -0.6389 -0.4965 -0.9421
   67SAPC  H18Y 5683   3.165   1.300   8.666 -0.9726 -1.2237  1.2881
   67SAPC  H18Z 5684   3.079   1.146   8.675 -3.0354  0.3371 -1.3338
   68SAPC     N 5685   6.567   0.959   6.527 -0.3339 -0.1309 -0.1564
   68SAPC   C12 5686   6.441   0.890   6.503  0.0159 -0.2125  0.0690
   68SAPC  H12A 5687   6.391   0.930   6.416  0.2612 -1.5108 -0.7012
   68SAPC  H12B 5688   6.371   0.903   6.585  1.1669  0.2936  0.9898
   68SAPC   C13 5689   6.627   0.933   6.659 -0.3535 -1.0317 -0.2234
   68SAPC  H13A 5690   6.648   0.829   6.679  1.2546 -1.1136 -2.0253
   68SAPC  H13B 5691   6.721   0.984   6.671 -0.5508 -0.4103 -1.1819
   68SAPC  H13C 5692   6.568   0.974   6.740 -1.2324 -2.0131 -0.3468
   68SAPC   C14 5693   6.678   0.922   6.427  0.2494  0.0416  0.1565
   68SAPC  H14A 5694   6.698   0.816   6.437 -1.5610 -0.3400  0.1471
   68SAPC  H14B 5695   6.639   0.937   6.327  1.8299 -0.8996 -0.6638
   68SAPC  H14C 5696   6.763   0.987   6.442 -0.7775  1.4964 -0.1428
   68SAPC   C15 5697   6.540   1.106   6.507  0.5606  0.9869  0.2646
   68SAPC  H15A 5698   6.473   1.126   6.424 -0.3858 -0.7061  0.5712
   68SAPC  H15B 5699   6.485   1.132   6.596 -1.5891  1.7938 -1.2012
   68SAPC  H15C 5700   6.623   1.175   6.510  0.9273  0.6210 -0.8962
   68SAPC   C11 5701   6.449   0.730   6.462  0.3328  0.2478 -0.7126
   68SAPC  H11A 5702   6.499   0.669   6.540 -1.9124  0.8873  1.3376
   68SAPC  H11B 5703   6.504   0.721   6.366  0.9747 -0.3792 -0.2938
   68SAPC     P 5704   6.241   0.671   6.324  0.3274  0.4091 -0.1257
   68SAPC   O13 5705   6.093   0.667   6.345  0.2559  0.3517  0.1012
   68SAPC   O14 5706   6.296   0.771   6.234 -0.2376 -0.0198  0.5593
   68SAPC   O12 5707   6.309   0.690   6.457  0.5155  0.2223 -0.5147
   68SAPC   O11 5708   6.295   0.526   6.278 -0.2415  0.4831  0.1142
   68SAPC    C1 5709   6.240   0.403   6.341  0.3448 -0.4523  0.4645
   68SAPC    HA 5710   6.138   0.419   6.382  1.1315  1.0302  1.9866
   68SAPC    HB 5711   6.238   0.323   6.264 -0.1329 -0.7776  0.8080
   68SAPC    C2 5712   6.328   0.342   6.454 -0.4260  0.2694  0.6438
   68SAPC    HS 5713   6.278   0.250   6.492 -2.0847  0.1820 -1.5045
   68SAPC   O21 5714   6.342   0.431   6.562 -0.4564 -0.6173 -0.2641
   68SAPC   C21 5715   6.237   0.457   6.642  0.7060  0.6211 -0.4462
   68SAPC   O22 5716   6.134   0.393   6.622  0.3214  0.0605 -0.3250
   68SAPC   C22 5717   6.245   0.567   6.742  0.3794 -1.2479  0.8008
   68SAPC   H2R 5718   6.341   0.623   6.748 -0.9605  1.5586 -1.4134
   68SAPC   H2S 5719   6.180   0.649   6.704  2.0271  0.0009  0.5350
   68SAPC    C3 5720   6.473   0.301   6.396 -0.3818 -0.1517 -0.2136
   68SAPC    HX 5721   6.533   0.394   6.387  0.2436 -0.2494  2.3567
   68SAPC    HY 5722   6.466   0.262   6.292  2.8432  2.1305 -1.4260
   68SAPC   O31 5723   6.548   0.221   6.493 -0.2378 -0.2604 -0.3232
   68SAPC   C31 5724   6.549   0.092   6.506  0.9383 -0.7171  0.5416
   68SAPC   O32 5725   6.496   0.013   6.434 -0.2391  0.2929  0.3015
   68SAPC   C32 5726   6.606   0.049   6.640 -0.1044 -0.1725  0.5078
   68SAPC   H2X 5727   6.710   0.086   6.636 -0.5299  0.9980 -2.7195
   68SAPC   H2Y 5728   6.604  -0.062   6.644 -1.8651 -0.3519 -2.2707
   68SAPC   C23 5729   6.195   0.512   6.880 -0.3365  0.3523 -0.6543
   68SAPC   H3R 5730   6.273   0.441   6.916  0.0845  1.6676  1.1773
   68SAPC   H3S 5731   6.106   0.448   6.865 -0.8384  1.0050 -0.5083
   68SAPC   C24 5732   6.178   0.623   6.991 -0.0281  0.6127  0.3660
   68SAPC   H4R 5733   6.273   0.681   6.994  1.3453 -1.5422  1.3593
   68SAPC   H4S 5734   6.159   0.568   7.086  0.0690 -0.9866 -0.5074
   68SAPC   C25 5735   6.051   0.704   6.971 -0.4110  0.1864  0.1202
   68SAPC   H5R 5736   5.960   0.656   6.931 -1.2502  1.6386  0.2339
   68SAPC   C26 5737   6.048   0.835   7.003 -0.2482 -0.3561 -1.0674
   68SAPC   H6R 5738   5.959   0.893   6.977 -0.8258 -2.1761 -3.5617
   68SAPC   C27 5739   6.157   0.922   7.052 -0.0207 -0.0386 -0.9518
   68SAPC   H7R 5740   6.183   0.989   6.968 -0.0075  0.4646 -0.5497
   68SAPC   H7S 5741   6.249   0.862   7.070 -0.1273  0.1918  0.4465
   68SAPC   C28 5742   6.114   1.001   7.178 -0.5905 -0.2939  0.3302
   68SAPC   H8R 5743   6.039   1.076   7.146 -0.0027  0.3426  0.4173
   68SAPC   C29 5744   6.156   0.991   7.302  0.1636 -0.0150  0.1349
   68SAPC   H9R 5745   6.102   1.058   7.370 -0.3846 -1.5798  1.2809
   68SAPC  C210 5746   6.260   0.899   7.345 -0.2922  0.2165 -0.9420
   68SAPC  H10R 5747   6.342   0.955   7.394 -0.1517 -0.3042 -0.5816
   68SAPC  H10S 5748   6.311   0.841   7.265  0.0571  1.1008 -1.3731
   68SAPC  C211 5749   6.225   0.787   7.438 -0.0350 -0.1757  0.1344
   68SAPC  H11R 5750   6.152   0.717   7.397  0.2170 -0.2487 -0.1960
   68SAPC  C212 5751   6.268   0.772   7.565 -0.0813  0.0256  0.0174
   68SAPC  H12R 5752   6.220   0.692   7.624  0.0850  0.7938  1.2431
   68SAPC  C213 5753   6.365   0.862   7.641 -1.0144  0.1545  0.4789
   68SAPC  H13R 5754   6.438   0.908   7.572 -1.2732  0.2147  0.2413
   68SAPC  H13S 5755   6.429   0.787   7.694  1.1528  1.7696  0.2586
   68SAPC  C214 5756   6.313   0.972   7.729 -0.5728  0.2670 -0.6510
   68SAPC  H14R 5757   6.203   0.985   7.730 -0.4560  1.6595  1.7811
   68SAPC  C215 5758   6.385   1.061   7.802  0.0932  0.6012  1.0232
   68SAPC  H15R 5759   6.339   1.140   7.864 -2.1590  0.0417  0.1715
   68SAPC  C216 5760   6.540   1.055   7.799  0.7411  0.3795 -0.0466
   68SAPC  H16R 5761   6.583   1.156   7.782 -0.1674  0.7083 -0.5050
   68SAPC  H16S 5762   6.575   0.984   7.722 -1.6707 -1.1625  0.1642
   68SAPC  C217 5763   6.583   1.007   7.937 -0.4428  0.8972  0.5447
   68SAPC  H17R 5764   6.530   0.911   7.957  2.8318 -1.0394  0.6485
   68SAPC  H17S 5765   6.556   1.083   8.014  2.9745  2.7729  0.0701
   68SAPC  C218 5766   6.728   0.972   7.953  0.3189 -0.2721 -0.1293
   68SAPC  H18R 5767   6.790   1.060   7.926 -1.3342  1.0378  0.1817
   68SAPC  H18S 5768   6.745   0.890   7.880 -0.9015 -1.8341  1.2543
   68SAPC  C219 5769   6.763   0.924   8.099  0.6260  0.5355 -1.2393
   68SAPC  H19R 5770   6.691   0.846   8.132 -2.4318  2.2071 -3.4400
   68SAPC  H19S 5771   6.739   1.009   8.166  1.0106 -0.0127 -0.3911
   68SAPC  C220 5772   6.902   0.884   8.143 -0.1214  0.4579 -0.4197
   68SAPC  H20R 5773   6.926   0.873   8.251 -0.0964  2.2055 -0.2260
   68SAPC  H20S 5774   6.971   0.965   8.113 -0.8369  1.2200 -0.0456
   68SAPC  H20T 5775   6.948   0.794   8.097  0.6658  0.1088  0.9742
   68SAPC   C33 5776   6.529   0.106   6.762 -0.4456  0.2306 -0.0512
   68SAPC   H3X 5777   6.426   0.064   6.760  0.0258 -1.0531  1.0094
   68SAPC   H3Y 5778   6.520   0.216   6.749 -0.5896  0.5836  2.5207
   68SAPC   C34 5779   6.602   0.082   6.894 -0.2770  0.5728  0.4500
   68SAPC   H4X 5780   6.533   0.108   6.977 -1.2200 -1.0977  0.2291
   68SAPC   H4Y 5781   6.686   0.154   6.895 -1.2425  1.9859 -3.0400
   68SAPC   C35 5782   6.634  -0.061   6.923  0.4599  0.2380  0.6118
   68SAPC   H5X 5783   6.703  -0.090   6.841 -0.2943  1.2311 -0.4051
   68SAPC   H5Y 5784   6.542  -0.122   6.907  2.3229 -2.5663 -0.2156
   68SAPC   C36 5785   6.688  -0.094   7.067 -0.1386  0.0850 -0.1296
   68SAPC   H6X 5786   6.787  -0.045   7.079  0.2541 -0.0228 -2.5169
   68SAPC   H6Y 5787   6.711  -0.202   7.081  0.3532  0.3647  1.3899
   68SAPC   C37 5788   6.589  -0.038   7.175 -1.0702  0.2793 -0.5896
   68SAPC   H7X 5789   6.503  -0.108   7.166  1.6828 -3.2674 -1.6421
   68SAPC   H7Y 5790   6.569   0.070   7.157 -1.2007  0.2262 -0.7650
   68SAPC   C38 5791   6.652  -0.057   7.323  0.4255  0.3140  0.3598
   68SAPC   H8X 5792   6.709  -0.152   7.321 -0.1683 -0.0812 -2.5912
   68SAPC   H8Y 5793   6.565  -0.069   7.392  0.4107 -2.4017 -0.0401
   68SAPC   C39 5794   6.747   0.052   7.374 -0.6315 -0.0093  0.3975
   68SAPC   H9X 5795   6.709   0.151   7.341 -0.2754  0.2740  0.8378
   68SAPC   H9Y 5796   6.840   0.029   7.318 -0.7643 -1.5493  0.7548
   68SAPC  C310 5797   6.771   0.045   7.524 -0.2898 -0.0357  0.4453
   68SAPC  H10X 5798   6.811  -0.055   7.550 -0.4540  0.1853  1.5802
   68SAPC  H10Y 5799   6.666   0.049   7.560 -0.6303 -1.2831 -0.3505
   68SAPC  C311 5800   6.848   0.157   7.593  0.6649  0.6625 -0.0041
   68SAPC  H11X 5801   6.957   0.150   7.575  0.5231  0.5228 -0.8555
   68SAPC  H11Y 5802   6.843   0.149   7.703 -0.1231 -0.5367 -0.1088
   68SAPC  C312 5803   6.800   0.299   7.557 -0.4159 -0.1458  0.2251
   68SAPC  H12X 5804   6.689   0.299   7.550 -0.5118  1.7603  0.9415
   68SAPC  H12Y 5805   6.834   0.343   7.461 -2.1803 -0.3079 -0.5074
   68SAPC  C313 5806   6.835   0.398   7.672 -0.0063  0.6147 -0.3149
   68SAPC  H13X 5807   6.796   0.354   7.766 -0.8428  0.1599 -0.8551
   68SAPC  H13Y 5808   6.796   0.502   7.666  1.5014  1.3284  1.3755
   68SAPC  C314 5809   6.986   0.412   7.674  0.5712 -0.3231  0.8862
   68SAPC  H14X 5810   7.009   0.436   7.568 -0.9737 -0.6584  0.4530
   68SAPC  H14Y 5811   7.028   0.310   7.686  0.9493 -0.4942 -1.4526
   68SAPC  C315 5812   7.042   0.512   7.765 -0.0964 -0.2481  0.2287
   68SAPC  H15X 5813   7.008   0.616   7.749  1.2421  0.0279 -1.1574
   68SAPC  H15Y 5814   7.150   0.520   7.739  0.3330  0.9068  2.1899
   68SAPC  C316 5815   7.037   0.476   7.913  0.2456  0.0871  0.0295
   68SAPC  H16X 5816   7.050   0.366   7.916 -1.1282 -0.1590 -1.7275
   68SAPC  H16Y 5817   6.933   0.495   7.948 -0.9470  0.2076 -3.2547
   68SAPC  C317 5818   7.143   0.548   7.998 -0.1003  0.4531 -0.6765
   68SAPC  H17X 5819   7.142   0.653   7.961 -0.5687  0.9960  0.8188
   68SAPC  H17Y 5820   7.244   0.513   7.965  0.2663  1.2211 -0.3861
   68SAPC  C318 5821   7.112   0.539   8.151 -0.3679  1.0127  0.8465
   68SAPC  H18X 5822   7.008   0.558   8.182 -0.4868  0.6575  0.6706
   68SAPC  H18Y 5823   7.184   0.605   8.204 -0.6679  0.9712  1.3127
   68SAPC  H18Z 5824   7.149   0.437   8.174  0.5636  1.3394  0.8679
   69SLPC     N 5825   1.708   4.076  11.225  0.3783 -0.6075 -0.1463
   69SLPC   C13 5826   1.709   3.946  11.284 -1.2589 -0.0289 -0.1229
   69SLPC  H13A 5827   1.805   3.910  11.319 -0.5871  0.4761 -1.4058
   69SLPC  H13B 5828   1.648   3.937  11.373  0.3935  0.3878  1.1260
   69SLPC  H13C 5829   1.668   3.878  11.211 -0.5226  0.7676 -1.3147
   69SLPC   C14 5830   1.777   4.177  11.312 -0.1484  0.1592 -0.0218
   69SLPC  H14A 5831   1.718   4.184  11.402 -2.0063  3.3521 -1.3087
   69SLPC  H14B 5832   1.873   4.132  11.335 -0.8063 -0.8958  0.7931
   69SLPC  H14C 5833   1.774   4.275  11.266 -1.1082  0.8590  1.4608
   69SLPC   C15 5834   1.564   4.123  11.207 -0.1189 -0.0331  0.0309
   69SLPC  H15A 5835   1.509   4.041  11.163  2.1031 -1.4926 -0.2180
   69SLPC  H15B 5836   1.519   4.131  11.305  0.7534  0.2062  0.4233
   69SLPC  H15C 5837   1.545   4.214  11.152  1.0221  0.2993  0.1521
   69SLPC   C12 5838   1.772   4.072  11.085  0.5414 -0.3285  0.5217
   69SLPC  H12A 5839   1.713   3.998  11.034  2.8075 -1.4138 -0.7081
   69SLPC  H12B 5840   1.876   4.041  11.086  0.7501 -0.0513 -2.4710
   69SLPC   C11 5841   1.766   4.196  10.994  0.3245 -0.2180  1.2008
   69SLPC  H11A 5842   1.659   4.220  10.976  0.7839  0.5362 -0.7256
   69SLPC  H11B 5843   1.801   4.179  10.890  0.5354  1.0852  1.0543
   69SLPC     P 5844   1.992   4.321  11.018  0.2792 -0.3135 -0.1081
   69SLPC   O13 5845   2.049   4.441  11.082  0.5802  0.2880 -0.2528
   69SLPC   O14 5846   2.058   4.189  11.046  0.0141 -0.6449 -0.7286
   69SLPC   O12 5847   1.839   4.304  11.050  0.3376  0.0567 -0.0405
   69SLPC   O11 5848   1.982   4.336  10.865  1.0346  0.3159  0.3682
   69SLPC    C1 5849   2.040   4.454  10.803 -0.3382 -0.0255 -0.6048
   69SLPC    HA 5850   1.978   4.546  10.809 -1.1292 -0.1364 -4.5582
   69SLPC    HB 5851   2.143   4.481  10.835 -0.6019 -0.5048  0.7184
   69SLPC    C2 5852   2.047   4.418  10.657 -0.0290 -0.0424 -0.4813
   69SLPC    HS 5853   2.084   4.500  10.591  0.5090  1.0111  1.0654
   69SLPC   O21 5854   1.920   4.389  10.602 -0.1956 -0.1354 -0.0177
   69SLPC   C21 5855   1.820   4.462  10.613  0.7127 -0.3741  0.2362
   69SLPC   O22 5856   1.814   4.578  10.653  0.2854  0.4039  0.0401
   69SLPC   C22 5857   1.697   4.387  10.573 -0.7096  0.6500  0.1847
   69SLPC   H2R 5858   1.688   4.299  10.640  1.8809  0.3836  0.2935
   69SLPC   H2S 5859   1.615   4.454  10.607  1.0311  2.5218  0.9229
   69SLPC    C3 5860   2.148   4.294  10.636 -0.9044 -0.4877  0.9373
   69SLPC    HX 5861   2.100   4.202  10.675  1.6224 -3.4123 -2.3620
   69SLPC    HY 5862   2.243   4.310  10.692  0.7474 -1.1516 -1.5599
   69SLPC   O31 5863   2.180   4.291  10.493  0.4577 -0.8360  0.0370
   69SLPC   C31 5864   2.112   4.209  10.420  0.6738 -0.0018  0.2727
   69SLPC   O32 5865   2.023   4.132  10.456  0.5553 -0.8325 -0.5678
   69SLPC   C32 5866   2.152   4.237  10.270 -0.8942  0.2176 -0.5894
   69SLPC   H2X 5867   2.260   4.211  10.266 -0.2700  2.0235  1.8759
   69SLPC   H2Y 5868   2.141   4.344  10.245 -0.2913 -0.1149 -2.4445
   69SLPC   C23 5869   1.697   4.339  10.429  0.7090  0.4097  0.4891
   69SLPC   H3R 5870   1.608   4.274  10.419 -0.7974  2.4899 -0.3512
   69SLPC   H3S 5871   1.791   4.284  10.406  0.3217 -0.2727  0.5274
   69SLPC   C24 5872   1.699   4.455  10.331 -0.6369  0.5573  0.0185
   69SLPC   H4R 5873   1.784   4.526  10.343 -0.9224  0.8162  0.5113
   69SLPC   H4S 5874   1.612   4.522  10.347 -0.1267  1.9013 -2.3387
   69SLPC   C25 5875   1.695   4.418  10.180 -0.6013 -0.4748  0.5189
   69SLPC   H5R 5876   1.760   4.331  10.160  1.4921  0.7618  1.6169
   69SLPC   H5S 5877   1.727   4.502  10.115  1.4122 -1.7889 -0.2553
   69SLPC   C26 5878   1.553   4.362  10.150 -0.2711 -0.2799 -0.4783
   69SLPC   H6R 5879   1.543   4.272  10.213  0.6547  0.5706  0.9408
   69SLPC   H6S 5880   1.555   4.325  10.045  0.4963  1.4098 -1.1143
   69SLPC   C27 5881   1.443   4.462  10.183 -0.5961  0.5217 -0.4108
   69SLPC   H7R 5882   1.477   4.564  10.156 -1.7971  0.7099 -1.2649
   69SLPC   H7S 5883   1.443   4.453  10.294  2.4184  0.4191 -0.3254
   69SLPC   C28 5884   1.307   4.419  10.116 -0.4655 -1.0331  0.0684
   69SLPC   H8R 5885   1.260   4.333  10.168 -3.5232 -0.8868 -2.1725
   69SLPC   H8S 5886   1.348   4.397  10.015  0.4377  0.6173  0.0319
   69SLPC   C29 5887   1.209   4.527  10.087 -0.1218  0.3940 -0.4728
   69SLPC   H9R 5888   1.226   4.622  10.141  0.9777 -0.7404  1.2866
   69SLPC  C210 5889   1.111   4.528  10.005 -0.1537 -0.2596  1.0720
   69SLPC  H10R 5890   1.049   4.618   9.998  1.9076  1.1690  0.1744
   69SLPC  C211 5891   1.086   4.415   9.906 -0.7839 -0.0745 -0.5480
   69SLPC  H11R 5892   1.078   4.316   9.957  1.5709 -0.5176 -0.9297
   69SLPC  H11S 5893   1.174   4.411   9.838  0.3881  1.7185  0.7592
   69SLPC  C212 5894   0.969   4.424   9.817  0.0501  0.1171  0.5140
   69SLPC  H12R 5895   0.877   4.460   9.865 -0.3953  1.9790 -1.5157
   69SLPC  C213 5896   0.956   4.394   9.685  0.1807  0.2355  0.1646
   69SLPC  H13R 5897   0.854   4.392   9.644 -0.5435 -2.5048  1.7915
   69SLPC  C214 5898   1.065   4.333   9.602 -0.4475  0.5293  0.3027
   69SLPC  H14R 5899   1.145   4.296   9.670 -1.0177  0.9072  1.1983
   69SLPC  H14S 5900   1.119   4.403   9.535 -1.2436  1.0378  0.1717
   69SLPC  C215 5901   1.013   4.221   9.516  0.0493 -0.4022 -0.1145
   69SLPC  H15R 5902   1.094   4.195   9.445  1.0214  3.4136 -0.6251
   69SLPC  H15S 5903   0.938   4.279   9.459  2.5154  1.0235 -2.1117
   69SLPC  C216 5904   0.958   4.099   9.579  0.0583 -0.4425  0.6200
   69SLPC  H16R 5905   0.866   4.122   9.638 -0.8640 -1.5168 -0.3328
   69SLPC  H16S 5906   1.027   4.051   9.651 -1.8990 -3.0123  0.9571
   69SLPC  C217 5907   0.910   3.989   9.483 -0.6184 -0.1452  0.0843
   69SLPC  H17R 5908   0.866   3.903   9.538  1.2567 -1.7474 -0.8200
   69SLPC  H17S 5909   0.994   3.937   9.434 -1.5735 -1.1821 -0.4881
   69SLPC  C218 5910   0.826   4.035   9.365 -0.2548 -0.0620 -0.1691
   69SLPC  H18R 5911   0.765   3.952   9.325 -0.0979  0.2883 -1.1740
   69SLPC  H18S 5912   0.885   4.082   9.283 -2.3558  2.3491 -0.4258
   69SLPC  H18T 5913   0.759   4.113   9.407 -0.5635 -0.6451  0.4294
   69SLPC   C33 5914   2.078   4.158  10.158  0.4003  0.3647  0.2180
   69SLPC   H3X 5915   1.973   4.193  10.143  0.3209  0.0956  0.1427
   69SLPC   H3Y 5916   2.085   4.052  10.190 -0.0211  0.2194 -0.1640
   69SLPC   C34 5917   2.145   4.153  10.026  0.0623  0.2158  0.1083
   69SLPC   H4X 5918   2.252   4.128  10.046 -0.8401 -2.0385  2.6637
   69SLPC   H4Y 5919   2.148   4.258   9.990  2.1698  0.3849  0.6457
   69SLPC   C35 5920   2.085   4.059   9.920  0.0239 -0.2633 -0.0224
   69SLPC   H5X 5921   2.053   3.962   9.963 -0.4120  0.6958  1.9317
   69SLPC   H5Y 5922   2.152   4.047   9.833  0.5977 -1.7708  0.5957
   69SLPC   C36 5923   1.954   4.120   9.862  0.1693  0.2403 -0.2476
   69SLPC   H6X 5924   1.982   4.192   9.782 -1.0458 -0.0543 -0.9643
   69SLPC   H6Y 5925   1.887   4.167   9.936  1.3048  2.4586 -0.5458
   69SLPC   C37 5926   1.867   4.019   9.800  0.3749  0.4188  0.7633
   69SLPC   H7X 5927   1.766   4.059   9.776  0.8805 -0.3162 -3.3639
   69SLPC   H7Y 5928   1.852   3.931   9.866  0.2340  0.0626  0.2631
   69SLPC   C38 5929   1.927   3.967   9.661 -0.5878 -0.5337  0.2395
   69SLPC   H8X 5930   2.009   3.895   9.683  0.2201  0.0494 -0.7907
   69SLPC   H8Y 5931   1.969   4.050   9.599  2.2873 -1.9754  0.0632
   69SLPC   C39 5932   1.820   3.897   9.577  0.6732 -0.2568  0.4299
   69SLPC   H9X 5933   1.766   3.976   9.519  1.6660 -1.7409 -2.7096
   69SLPC   H9Y 5934   1.749   3.839   9.640 -1.8242 -2.3375 -3.8330
   69SLPC  C310 5935   1.869   3.805   9.462 -0.0559 -0.1687  0.0187
   69SLPC  H10X 5936   1.952   3.739   9.493 -0.0355  0.2458  0.8859
   69SLPC  H10Y 5937   1.905   3.866   9.377 -0.0683  0.1543  0.2421
   69SLPC  C311 5938   1.768   3.708   9.399 -0.4684  0.1022  0.0076
   69SLPC  H11X 5939   1.672   3.759   9.375  0.1392  0.3321 -2.1095
   69SLPC  H11Y 5940   1.751   3.629   9.476 -0.6667 -0.8243 -0.9705
   69SLPC  C312 5941   1.833   3.647   9.273  0.4752 -0.2383 -0.7382
   69SLPC  H12X 5942   1.920   3.583   9.297 -1.3996 -2.3702  0.8033
   69SLPC  H12Y 5943   1.876   3.736   9.222  2.5294  0.3738  1.8683
   69SLPC  C313 5944   1.741   3.563   9.189  0.1308  0.2709  0.7420
   69SLPC  H13X 5945   1.637   3.597   9.171 -0.4973 -0.3702  2.9119
   69SLPC  H13Y 5946   1.734   3.474   9.255 -1.7472 -0.0822  0.1257
   69SLPC  C314 5947   1.811   3.543   9.050 -0.1937  0.8247  0.1315
   69SLPC  H14X 5948   1.789   3.445   9.003 -0.0337 -0.2331  2.1447
   69SLPC  H14Y 5949   1.921   3.543   9.064 -0.1796 -2.2142  0.6372
   69SLPC  C315 5950   1.787   3.650   8.944 -0.1416  0.3546 -0.5391
   69SLPC  H15X 5951   1.841   3.735   8.992  0.6762 -0.7728  0.6305
   69SLPC  H15Y 5952   1.681   3.681   8.932  0.0837  2.7356  2.3301
   69SLPC  C316 5953   1.858   3.620   8.807 -0.8194 -0.2933 -0.1659
   69SLPC  H16X 5954   1.821   3.522   8.771  0.3956 -0.0663 -2.1742
   69SLPC  H16Y 5955   1.967   3.614   8.830 -0.8253 -0.5298 -0.1982
   69SLPC  C317 5956   1.842   3.726   8.693  0.2703  0.5490  1.3258
   69SLPC  H17X 5957   1.739   3.709   8.655  0.0847 -0.1398  2.0831
   69SLPC  H17Y 5958   1.906   3.703   8.605  0.5845 -3.2469  2.3487
   69SLPC  C318 5959   1.845   3.877   8.725  0.0982 -0.0749  0.1809
   69SLPC  H18X 5960   1.905   3.895   8.817  0.6227  1.5555 -0.4434
   69SLPC  H18Y 5961   1.748   3.923   8.755  1.0160  1.8708  0.3572
   69SLPC  H18Z 5962   1.888   3.925   8.635 -0.8190  3.2747  1.3784
   70SLPC     N 5963   2.489   1.445  10.929 -0.2041  0.4149  0.2091
   70SLPC   C13 5964   2.442   1.412  10.791  0.6990  0.4774  0.1348
   70SLPC  H13A 5965   2.383   1.322  10.797 -0.2081  0.9879 -0.7373
   70SLPC  H13B 5966   2.385   1.493  10.748 -0.8288 -0.7370 -0.2219
   70SLPC  H13C 5967   2.524   1.388  10.725 -0.3958 -0.5845 -0.8862
   70SLPC   C14 5968   2.370   1.521  10.992  0.1306  0.9698 -0.8855
   70SLPC  H14A 5969   2.285   1.456  10.995  1.5340 -0.9379 -0.6746
   70SLPC  H14B 5970   2.397   1.552  11.092 -0.7529  0.1917 -0.4021
   70SLPC  H14C 5971   2.343   1.607  10.933  2.6402  1.1095 -1.9733
   70SLPC   C15 5972   2.601   1.546  10.931  0.3332 -0.1286 -0.6843
   70SLPC  H15A 5973   2.562   1.639  10.892  1.1778  1.2144  1.4966
   70SLPC  H15B 5974   2.624   1.575  11.032 -1.9394 -0.0935 -0.1371
   70SLPC  H15C 5975   2.687   1.509  10.876 -1.0227 -0.0900 -2.9402
   70SLPC   C12 5976   2.525   1.322  11.017  0.4886  0.5929 -0.0858
   70SLPC  H12A 5977   2.550   1.349  11.119 -0.5084 -0.9790  0.6095
   70SLPC  H12B 5978   2.615   1.273  10.983 -0.5633 -1.8826  0.4534
   70SLPC   C11 5979   2.419   1.206  11.021 -0.6692 -0.2192  0.1094
   70SLPC  H11A 5980   2.320   1.250  11.049 -1.0617 -0.3000 -1.1080
   70SLPC  H11B 5981   2.431   1.137  11.107 -0.8038 -1.3787 -0.7701
   70SLPC     P 5982   2.507   0.998  10.882 -0.3537  0.0061  0.0690
   70SLPC   O13 5983   2.646   1.036  10.913 -0.9439 -0.1974  0.5481
   70SLPC   O14 5984   2.453   0.890  10.957 -0.0262 -0.0632 -0.2121
   70SLPC   O12 5985   2.416   1.129  10.904  0.7414 -0.3180  0.2045
   70SLPC   O11 5986   2.490   0.968  10.726 -0.0923  0.2685 -0.0716
   70SLPC    C1 5987   2.567   1.045  10.633 -0.1086 -0.0476  0.0223
   70SLPC    HA 5988   2.507   1.135  10.608 -0.6938 -0.5170 -0.2837
   70SLPC    HB 5989   2.667   1.068  10.676 -0.8096 -0.2080  1.8438
   70SLPC    C2 5990   2.586   0.969  10.495 -0.1029  0.4587 -0.4324
   70SLPC    HS 5991   2.679   1.010  10.449  0.8561 -1.0440  0.0978
   70SLPC   O21 5992   2.482   0.975  10.405  0.6335 -0.1711 -0.2907
   70SLPC   C21 5993   2.449   1.097  10.364 -0.5876  0.1336 -0.7780
   70SLPC   O22 5994   2.497   1.200  10.400 -0.6967  0.3932  0.3181
   70SLPC   C22 5995   2.326   1.091  10.290  0.1748  0.0516  0.6617
   70SLPC   H2R 5996   2.277   0.992  10.292 -0.8866  0.5672  0.8406
   70SLPC   H2S 5997   2.260   1.171  10.330  1.8567  1.9782 -0.1936
   70SLPC    C3 5998   2.619   0.819  10.531  0.2496 -0.4187  0.2284
   70SLPC    HX 5999   2.537   0.762  10.579  0.7879 -0.3303  1.3021
   70SLPC    HY 6000   2.704   0.821  10.603  0.8329  1.2123 -0.4542
   70SLPC   O31 6001   2.669   0.752  10.413 -0.6678 -0.1989 -0.1808
   70SLPC   C31 6002   2.580   0.685  10.332  0.5710 -0.3537  0.1186
   70SLPC   O32 6003   2.462   0.671  10.356  0.1820  0.2516 -0.4224
   70SLPC   C32 6004   2.647   0.628  10.209  0.6172 -0.8478 -0.2425
   70SLPC   H2X 6005   2.585   0.540  10.182  0.0577  0.0358 -2.0134
   70SLPC   H2Y 6006   2.751   0.597  10.233  2.1216  2.6647 -1.4709
   70SLPC   C23 6007   2.358   1.119  10.136 -0.4849 -1.0329 -0.7149
   70SLPC   H3R 6008   2.262   1.075  10.099 -0.3971 -1.9791  0.1332
   70SLPC   H3S 6009   2.442   1.066  10.087  0.6833  0.2805 -0.1984
   70SLPC   C24 6010   2.377   1.267  10.101 -0.4303  0.5650  0.0985
   70SLPC   H4R 6011   2.469   1.303  10.154 -1.2364  1.4360  0.9537
   70SLPC   H4S 6012   2.287   1.317  10.141 -0.5880  0.4484 -0.1140
   70SLPC   C25 6013   2.378   1.304   9.948  1.2100  0.0859 -0.7124
   70SLPC   H5R 6014   2.484   1.297   9.916  1.1239  0.8416 -1.2111
   70SLPC   H5S 6015   2.348   1.408   9.922 -2.2070 -1.2180 -2.6794
   70SLPC   C26 6016   2.295   1.213   9.858  0.5793 -0.1673 -0.9387
   70SLPC   H6R 6017   2.189   1.204   9.888  0.7633 -4.0781 -0.9798
   70SLPC   H6S 6018   2.343   1.113   9.860 -0.2838 -0.5796  0.7290
   70SLPC   C27 6019   2.291   1.266   9.711  0.1292 -0.7181 -0.4230
   70SLPC   H7R 6020   2.391   1.311   9.694 -0.2446  0.2546 -0.1435
   70SLPC   H7S 6021   2.218   1.350   9.713  0.9733  0.0435 -0.7355
   70SLPC   C28 6022   2.267   1.166   9.605  0.3375 -0.1119  0.2422
   70SLPC   H8R 6023   2.302   1.067   9.639 -0.6757 -0.2511  0.9221
   70SLPC   H8S 6024   2.324   1.192   9.513 -0.5442 -0.3477 -0.3768
   70SLPC   C29 6025   2.114   1.162   9.574 -0.0792 -0.2085 -0.0319
   70SLPC   H9R 6026   2.052   1.187   9.661  0.1279 -0.0985  0.0856
   70SLPC  C210 6027   2.051   1.152   9.457  0.1584  0.1637 -0.3097
   70SLPC  H10R 6028   1.942   1.157   9.452 -0.0580 -0.3460  2.4155
   70SLPC  C211 6029   2.125   1.142   9.331 -0.1588  0.2972  0.2292
   70SLPC  H11R 6030   2.203   1.064   9.340 -1.3540 -1.2446 -1.8008
   70SLPC  H11S 6031   2.171   1.243   9.318  1.3562 -0.5267 -1.1209
   70SLPC  C212 6032   2.041   1.102   9.213  0.0520  0.8105  0.4111
   70SLPC  H12R 6033   2.037   0.995   9.189 -0.0209  0.4183  2.0326
   70SLPC  C213 6034   1.962   1.185   9.143  0.3334 -1.0391 -0.0227
   70SLPC  H13R 6035   1.903   1.145   9.059  0.9746  1.2971 -1.6879
   70SLPC  C214 6036   1.935   1.332   9.169 -0.6445  0.4368 -0.3657
   70SLPC  H14R 6037   1.976   1.364   9.267  1.3671  2.0045 -1.6340
   70SLPC  H14S 6038   1.824   1.341   9.171 -0.7811 -0.6633 -1.4801
   70SLPC  C215 6039   1.990   1.416   9.057 -0.0433  0.0370 -0.6208
   70SLPC  H15R 6040   2.101   1.411   9.047 -0.1159 -0.5862 -1.1813
   70SLPC  H15S 6041   1.976   1.525   9.072 -0.3632  0.1563 -1.7405
   70SLPC  C216 6042   1.940   1.399   8.914  0.0859 -0.0351 -0.7748
   70SLPC  H16R 6043   1.832   1.401   8.937  0.5541  3.0417  1.9105
   70SLPC  H16S 6044   1.958   1.301   8.866 -1.0738 -1.0421  0.7520
   70SLPC  C217 6045   1.971   1.513   8.822 -0.2061 -1.1756  0.6564
   70SLPC  H17R 6046   2.079   1.521   8.798 -0.4867  0.0823 -0.2724
   70SLPC  H17S 6047   1.931   1.604   8.871  0.3542 -1.6364  2.0057
   70SLPC  C218 6048   1.901   1.498   8.686 -0.8748 -0.5851  0.4796
   70SLPC  H18R 6049   1.917   1.587   8.621 -1.2615 -0.3853  0.6554
   70SLPC  H18S 6050   1.792   1.481   8.703 -0.8483  0.8286  2.5377
   70SLPC  H18T 6051   1.930   1.409   8.627  2.7456  2.1671 -2.3371
   70SLPC   C33 6052   2.672   0.733  10.099  0.0674 -0.2525 -0.4544
   70SLPC   H3X 6053   2.707   0.676  10.011 -0.3604 -0.6226 -0.3912
   70SLPC   H3Y 6054   2.752   0.805  10.126 -2.0275  0.9909  3.2846
   70SLPC   C34 6055   2.554   0.807  10.041  0.3524  0.0205  0.0788
   70SLPC   H4X 6056   2.582   0.887   9.970  0.8653 -1.3685 -1.3455
   70SLPC   H4Y 6057   2.501   0.860  10.123 -0.3856 -1.1999  0.4148
   70SLPC   C35 6058   2.451   0.719   9.966  0.5655  0.2291  0.0035
   70SLPC   H5X 6059   2.353   0.766   9.944  1.1951  1.0699 -1.0977
   70SLPC   H5Y 6060   2.428   0.631  10.030  0.3569 -1.1964 -1.9617
   70SLPC   C36 6061   2.499   0.682   9.827 -0.0482  0.7015  0.2725
   70SLPC   H6X 6062   2.468   0.576   9.812 -2.3270  1.2782  0.4730
   70SLPC   H6Y 6063   2.610   0.683   9.823  0.1443  2.1614  3.3091
   70SLPC   C37 6064   2.432   0.768   9.718  0.2206 -0.3861  0.8868
   70SLPC   H7X 6065   2.445   0.873   9.752  2.2300 -0.4117  0.2845
   70SLPC   H7Y 6066   2.322   0.750   9.715  0.0161  0.7453  1.2131
   70SLPC   C38 6067   2.480   0.736   9.576 -0.0430  0.0796 -0.0191
   70SLPC   H8X 6068   2.445   0.633   9.555 -0.8827  0.2170  0.6368
   70SLPC   H8Y 6069   2.591   0.734   9.575  0.0723  2.6414 -1.7658
   70SLPC   C39 6070   2.433   0.836   9.467 -0.1538  0.5378 -0.7637
   70SLPC   H9X 6071   2.458   0.940   9.496 -1.2446  0.2302  1.4906
   70SLPC   H9Y 6072   2.322   0.833   9.461 -0.1765  1.6506 -1.1144
   70SLPC  C310 6073   2.499   0.808   9.330  0.2853 -0.8954  0.7138
   70SLPC  H10X 6074   2.479   0.703   9.298  0.2961 -1.5797  2.7873
   70SLPC  H10Y 6075   2.607   0.827   9.344  0.2012 -0.7682  1.2388
   70SLPC  C311 6076   2.453   0.914   9.226 -0.0412 -0.7029 -0.0056
   70SLPC  H11X 6077   2.467   1.011   9.279 -0.0946 -1.3418  1.2107
   70SLPC  H11Y 6078   2.347   0.889   9.204  0.1946 -1.8416  0.0870
   70SLPC  C312 6079   2.536   0.899   9.102 -0.1442  0.0549 -0.3270
   70SLPC  H12X 6080   2.641   0.912   9.137 -0.6195 -0.5611  1.4771
   70SLPC  H12Y 6081   2.511   0.975   9.025 -0.3436  0.2303 -0.0889
   70SLPC  C313 6082   2.531   0.772   9.020 -0.0704  0.6415  0.4691
   70SLPC  H13X 6083   2.569   0.686   9.080  0.4222  0.9470  0.6104
   70SLPC  H13Y 6084   2.595   0.779   8.930 -1.6537  0.0326 -0.7370
   70SLPC  C314 6085   2.380   0.739   8.976 -0.3162 -0.7594  0.1321
   70SLPC  H14X 6086   2.335   0.822   8.917  3.4487  0.4946 -1.2796
   70SLPC  H14Y 6087   2.325   0.722   9.071 -1.1654  1.6153  0.1462
   70SLPC  C315 6088   2.371   0.599   8.901  0.1769 -1.0975 -0.0740
   70SLPC  H15X 6089   2.263   0.574   8.888 -0.3514 -0.6878  2.8761
   70SLPC  H15Y 6090   2.419   0.528   8.971  1.0810  0.7060  1.1928
   70SLPC  C316 6091   2.444   0.600   8.772 -0.1503 -0.1390  0.1561
   70SLPC  H16X 6092   2.550   0.627   8.796 -0.3701  0.5995  0.3273
   70SLPC  H16Y 6093   2.405   0.678   8.704 -0.8337 -1.5780 -1.1618
   70SLPC  C317 6094   2.430   0.467   8.703  0.2459  0.4540 -0.5109
   70SLPC  H17X 6095   2.323   0.449   8.680  0.2327  0.5239 -0.5025
   70SLPC  H17Y 6096   2.477   0.390   8.768  0.5553  0.9529 -0.1345
   70SLPC  C318 6097   2.501   0.463   8.564  0.3187  0.4192  0.2320
   70SLPC  H18X 6098   2.502   0.355   8.537 -1.4386  0.2021  0.8827
   70SLPC  H18Y 6099   2.599   0.514   8.574 -0.7219  2.9184 -1.4778
   70SLPC  H18Z 6100   2.437   0.525   8.498 -1.8204 -0.4909  1.3435
   71SLPC     N 6101   1.805   6.392  10.527 -0.5579 -1.0022  0.9073
   71SLPC   C13 6102   1.677   6.472  10.529 -0.0074 -0.5585  0.2916
   71SLPC  H13A 6103   1.604   6.438  10.457 -1.1538  2.8195 -0.3419
   71SLPC  H13B 6104   1.627   6.460  10.624  1.3308  1.5711  1.3585
   71SLPC  H13C 6105   1.710   6.574  10.516 -1.3623 -0.0716  0.5878
   71SLPC   C14 6106   1.889   6.450  10.633  0.1347  0.3795  0.3740
   71SLPC  H14A 6107   1.910   6.552  10.606  0.4844  0.2947  0.3252
   71SLPC  H14B 6108   1.831   6.444  10.724 -0.0904  2.9337  0.4704
   71SLPC  H14C 6109   1.977   6.391  10.652 -0.6595 -1.0741 -0.2474
   71SLPC   C15 6110   1.874   6.418  10.388 -0.0522  0.3441 -0.1185
   71SLPC  H15A 6111   1.806   6.382  10.312 -0.2998  1.5308 -0.4793
   71SLPC  H15B 6112   1.907   6.519  10.370  0.4619  0.4381  1.2085
   71SLPC  H15C 6113   1.965   6.361  10.375  0.8187  1.4883  0.7532
   71SLPC   C12 6114   1.787   6.247  10.554  0.3297 -0.2449  0.0191
   71SLPC  H12A 6115   1.774   6.186  10.466  0.5849 -0.5044  0.1578
   71SLPC  H12B 6116   1.699   6.240  10.616 -0.2999  0.5595 -0.7547
   71SLPC   C11 6117   1.903   6.177  10.630  0.1764  0.0434  0.0610
   71SLPC  H11A 6118   1.874   6.071  10.644  2.6463 -0.7762 -0.4591
   71SLPC  H11B 6119   1.916   6.221  10.732 -2.3524 -2.1055  1.4158
   71SLPC     P 6120   2.162   6.189  10.600 -0.3115  0.2536 -0.5462
   71SLPC   O13 6121   2.263   6.212  10.493  0.1099  0.0617 -0.5215
   71SLPC   O14 6122   2.161   6.290  10.708  0.0120 -0.0672  0.7162
   71SLPC   O12 6123   2.014   6.178  10.540  0.0590  0.0177  0.1964
   71SLPC   O11 6124   2.190   6.053  10.661 -0.3799  0.1965 -0.5232
   71SLPC    C1 6125   2.142   5.926  10.619  0.2080  0.3786  0.9587
   71SLPC    HA 6126   2.150   5.848  10.697 -0.1284  1.7445  2.4096
   71SLPC    HB 6127   2.034   5.935  10.594  0.1898 -0.9880  0.4973
   71SLPC    C2 6128   2.222   5.864  10.494 -0.6394 -0.5296 -0.2090
   71SLPC    HS 6129   2.326   5.889  10.523 -1.4381  2.5766  0.3691
   71SLPC   O21 6130   2.169   5.938  10.382  0.0233  0.6779  0.0746
   71SLPC   C21 6131   2.265   5.979  10.296  0.6132  0.3319 -0.5639
   71SLPC   O22 6132   2.381   5.960  10.319  0.1266 -0.2275 -0.3985
   71SLPC   C22 6133   2.202   6.043  10.174  0.2245  0.1196  0.7859
   71SLPC   H2R 6134   2.116   5.983  10.140 -0.6424  2.2126 -0.9865
   71SLPC   H2S 6135   2.164   6.141  10.211  1.1344  1.2655 -1.1718
   71SLPC    C3 6136   2.199   5.721  10.468  0.0041  0.6159 -0.4979
   71SLPC    HX 6137   2.099   5.701  10.425  0.8164 -1.3674 -1.6262
   71SLPC    HY 6138   2.201   5.659  10.560  0.1774  0.8201 -0.3625
   71SLPC   O31 6139   2.290   5.676  10.367  0.0876  0.1752  0.4560
   71SLPC   C31 6140   2.410   5.634  10.419  0.2987 -0.0121 -0.1677
   71SLPC   O32 6141   2.442   5.640  10.534  0.0592  0.3978 -0.8713
   71SLPC   C32 6142   2.494   5.572  10.313  0.2068 -0.3307  0.0270
   71SLPC   H2X 6143   2.571   5.510  10.364 -0.7207 -0.9426  0.7244
   71SLPC   H2Y 6144   2.537   5.660  10.262 -2.3167  0.9975  0.0389
   71SLPC   C23 6145   2.289   6.071  10.053  0.4183 -0.0374 -0.0420
   71SLPC   H3R 6146   2.384   6.115  10.090 -0.5360  2.2310 -0.0811
   71SLPC   H3S 6147   2.243   6.150   9.989 -0.9360 -2.1271 -1.7739
   71SLPC   C24 6148   2.328   5.950   9.967 -0.2110 -0.1914  0.0478
   71SLPC   H4R 6149   2.232   5.895   9.953 -0.1114 -0.1328 -0.9609
   71SLPC   H4S 6150   2.394   5.885  10.027 -0.2197 -0.2142  0.0333
   71SLPC   C25 6151   2.386   5.972   9.827 -0.2218 -0.5769  0.2168
   71SLPC   H5R 6152   2.483   6.021   9.847  0.4388 -2.0929  0.8357
   71SLPC   H5S 6153   2.318   6.030   9.761  0.7595  3.1971  2.2724
   71SLPC   C26 6154   2.410   5.834   9.757 -0.0349  0.1643  0.1575
   71SLPC   H6R 6155   2.310   5.786   9.749  0.0560  0.0975 -0.5905
   71SLPC   H6S 6156   2.460   5.768   9.832 -2.2388 -0.9606  0.7204
   71SLPC   C27 6157   2.476   5.843   9.612 -0.2589  0.3022  0.0226
   71SLPC   H7R 6158   2.498   5.738   9.583  0.1241  0.2503  0.4935
   71SLPC   H7S 6159   2.570   5.902   9.620  0.3732 -0.5101 -1.1098
   71SLPC   C28 6160   2.386   5.905   9.502  0.1809 -0.2554 -0.1067
   71SLPC   H8R 6161   2.442   5.913   9.406  0.6742  0.7553  0.2493
   71SLPC   H8S 6162   2.361   6.009   9.531  1.9212  0.0493  0.4015
   71SLPC   C29 6163   2.262   5.828   9.460  0.4312 -0.5716 -0.2023
   71SLPC   H9R 6164   2.182   5.830   9.534  0.2705  0.1567 -0.3778
   71SLPC  C210 6165   2.233   5.784   9.341  0.2755  0.0656  0.2736
   71SLPC  H10R 6166   2.144   5.720   9.331 -0.0649  0.3632  1.2157
   71SLPC  C211 6167   2.325   5.784   9.226 -0.4213  0.2913  0.8505
   71SLPC  H11R 6168   2.433   5.805   9.236 -0.5209  1.6859 -0.6005
   71SLPC  H11S 6169   2.291   5.861   9.154 -1.3228 -2.9658 -2.5729
   71SLPC  C212 6170   2.309   5.651   9.149  0.3994 -0.7494 -0.3627
   71SLPC  H12R 6171   2.397   5.585   9.155  1.3266  0.5022  0.2015
   71SLPC  C213 6172   2.204   5.616   9.072 -0.2592 -0.1165 -0.1645
   71SLPC  H13R 6173   2.217   5.516   9.028 -0.3170 -0.4801  0.6219
   71SLPC  C214 6174   2.082   5.694   9.037 -0.2175 -0.5191 -0.8683
   71SLPC  H14R 6175   2.075   5.789   9.093 -0.6910 -1.0918  0.0836
   71SLPC  H14S 6176   1.990   5.639   9.066  0.5778 -1.5578 -0.2421
   71SLPC  C215 6177   2.056   5.735   8.890  0.3740  0.1133 -0.0084
   71SLPC  H15R 6178   2.147   5.795   8.867  0.3966  0.2132  0.3466
   71SLPC  H15S 6179   1.965   5.799   8.886  0.7788  0.8347  1.7089
   71SLPC  C216 6180   2.036   5.618   8.795 -0.2918  0.1231  0.9794
   71SLPC  H16R 6181   1.945   5.559   8.818  0.2739 -1.2045 -0.0653
   71SLPC  H16S 6182   2.122   5.548   8.800 -1.2320 -1.1754 -0.3216
   71SLPC  C217 6183   2.019   5.652   8.650  0.1241  0.7845  0.5994
   71SLPC  H17R 6184   2.105   5.711   8.612 -1.6553  1.3193 -2.9850
   71SLPC  H17S 6185   1.932   5.719   8.635  1.5373  2.1669 -2.0262
   71SLPC  C218 6186   2.006   5.525   8.562  0.5206  0.3161  0.1308
   71SLPC  H18R 6187   1.991   5.548   8.454 -1.0436  0.8837  0.4360
   71SLPC  H18S 6188   1.930   5.457   8.605 -1.1023  2.1635  0.3727
   71SLPC  H18T 6189   2.106   5.477   8.568 -0.6121 -1.9756  2.4560
   71SLPC   C33 6190   2.417   5.485  10.204 -1.1176 -0.3587 -0.7678
   71SLPC   H3X 6191   2.318   5.446  10.235 -1.2559 -0.5102 -1.3885
   71SLPC   H3Y 6192   2.492   5.402  10.200 -0.4988 -0.1281  2.6852
   71SLPC   C34 6193   2.423   5.556  10.073  0.4475 -0.0079  0.3777
   71SLPC   H4X 6194   2.530   5.580  10.054  0.3836  0.7713  0.9310
   71SLPC   H4Y 6195   2.357   5.645  10.082  0.9240  0.2387  1.6549
   71SLPC   C35 6196   2.367   5.459   9.966  0.0945  0.8062 -0.6898
   71SLPC   H5X 6197   2.258   5.448   9.984 -0.2901  0.3735 -2.9212
   71SLPC   H5Y 6198   2.413   5.359   9.983  1.2848  1.0446 -2.2682
   71SLPC   C36 6199   2.393   5.496   9.820  0.3903  0.4083 -0.5001
   71SLPC   H6X 6200   2.499   5.523   9.797 -0.2268  2.1643 -1.5263
   71SLPC   H6Y 6201   2.326   5.582   9.796 -0.5342 -0.4249 -0.9965
   71SLPC   C37 6202   2.358   5.376   9.724 -0.2136 -0.2484 -0.2411
   71SLPC   H7X 6203   2.249   5.353   9.729 -0.4104  0.5062 -1.0068
   71SLPC   H7Y 6204   2.430   5.294   9.744  2.0615  2.2071  2.6008
   71SLPC   C38 6205   2.383   5.408   9.575 -0.4516  0.3168 -0.5508
   71SLPC   H8X 6206   2.488   5.442   9.558  0.0066 -1.4344 -1.5424
   71SLPC   H8Y 6207   2.312   5.491   9.557 -1.5285 -0.6638 -0.9490
   71SLPC   C39 6208   2.366   5.289   9.485 -0.0939 -0.2043 -0.0198
   71SLPC   H9X 6209   2.257   5.271   9.498 -0.4996  2.1283  0.1584
   71SLPC   H9Y 6210   2.437   5.215   9.528  0.3032  0.0591 -0.2217
   71SLPC  C310 6211   2.387   5.321   9.341 -0.1994 -0.4930 -0.0306
   71SLPC  H10X 6212   2.485   5.369   9.320 -0.9088  1.6226  1.2102
   71SLPC  H10Y 6213   2.311   5.393   9.303  0.9328  0.5314 -0.4356
   71SLPC  C311 6214   2.364   5.187   9.265 -0.1177 -1.0328  0.0028
   71SLPC  H11X 6215   2.291   5.125   9.321 -0.0784  0.9985  2.5019
   71SLPC  H11Y 6216   2.457   5.127   9.276  0.4759 -0.5244 -1.8431
   71SLPC  C312 6217   2.334   5.222   9.123  0.7806  0.1427  0.1825
   71SLPC  H12X 6218   2.269   5.311   9.124  1.1006  0.4117 -1.1213
   71SLPC  H12Y 6219   2.265   5.147   9.080  0.7539 -0.3384  1.0387
   71SLPC  C313 6220   2.452   5.242   9.033  0.3540  0.4863  0.6973
   71SLPC  H13X 6221   2.527   5.160   9.044 -0.8985 -0.4356  2.9585
   71SLPC  H13Y 6222   2.505   5.333   9.068 -2.0436  1.0501  3.1670
   71SLPC  C314 6223   2.407   5.251   8.887 -0.5200  0.4869  0.2848
   71SLPC  H14X 6224   2.499   5.271   8.827  0.2515  0.5665  1.4716
   71SLPC  H14Y 6225   2.328   5.329   8.882  0.6115  1.8768  2.6168
   71SLPC  C315 6226   2.338   5.118   8.831  0.0977 -0.1836 -0.4164
   71SLPC  H15X 6227   2.238   5.105   8.876 -0.6077 -0.3639 -1.9796
   71SLPC  H15Y 6228   2.406   5.032   8.851 -0.9091 -0.8518  0.1755
   71SLPC  C316 6229   2.316   5.125   8.679  1.1121  0.7571 -0.4759
   71SLPC  H16X 6230   2.418   5.144   8.638  1.7305  0.1392  0.7296
   71SLPC  H16Y 6231   2.247   5.211   8.666  1.8607  1.6111  0.9542
   71SLPC  C317 6232   2.272   5.000   8.607 -0.7173 -0.9991 -0.4105
   71SLPC  H17X 6233   2.265   5.016   8.497 -0.9119  2.6555  0.0177
   71SLPC  H17Y 6234   2.173   4.980   8.654 -1.5286  1.1309 -1.1004
   71SLPC  C318 6235   2.360   4.879   8.632 -0.3062  0.4291  0.1528
   71SLPC  H18X 6236   2.365   4.861   8.742  1.4326 -0.5495 -0.0434
   71SLPC  H18Y 6237   2.456   4.886   8.576 -1.3006 -1.8239 -2.0069
   71SLPC  H18Z 6238   2.316   4.793   8.578 -0.6129  0.7411 -0.0961
   72SLPC     N 6239   3.616   5.250  11.112  0.2713  0.2189  0.2761
   72SLPC   C13 6240   3.596   5.207  11.257  0.0511 -1.0112  0.8294
   72SLPC  H13A 6241   3.652   5.277  11.317  1.9946 -0.1922 -1.7258
   72SLPC  H13B 6242   3.493   5.220  11.285 -0.1378  3.0924 -1.0280
   72SLPC  H13C 6243   3.643   5.111  11.270 -0.0576 -1.1448  0.2770
   72SLPC   C14 6244   3.759   5.280  11.094 -0.1765 -0.7818  0.2781
   72SLPC  H14A 6245   3.772   5.333  11.001  1.5841 -1.1973  0.2485
   72SLPC  H14B 6246   3.799   5.338  11.176  0.8466 -1.1659  0.0682
   72SLPC  H14C 6247   3.820   5.191  11.094  3.0236  1.1986  2.7934
   72SLPC   C15 6248   3.520   5.366  11.084  0.1542 -0.2461  0.4736
   72SLPC  H15A 6249   3.532   5.454  11.146 -0.2767 -0.4853  0.9076
   72SLPC  H15B 6250   3.529   5.387  10.979 -2.1017 -0.4221  0.1911
   72SLPC  H15C 6251   3.415   5.350  11.103  0.1333  0.5768  1.1322
   72SLPC   C12 6252   3.594   5.131  11.026 -0.4522  0.7163  0.5376
   72SLPC  H12A 6253   3.493   5.095  11.035  0.0781 -0.9869  0.2116
   72SLPC  H12B 6254   3.649   5.046  11.065  0.8008 -0.2074 -2.8751
   72SLPC   C11 6255   3.630   5.142  10.871 -0.4084  0.1523  0.1427
   72SLPC  H11A 6256   3.623   5.040  10.826  2.3533 -0.3210  0.6414
   72SLPC  H11B 6257   3.740   5.152  10.866  0.1333 -4.3107 -0.9447
   72SLPC     P 6258   3.624   5.298  10.661 -0.1840  0.0910  0.0734
   72SLPC   O13 6259   3.562   5.434  10.633 -0.4532 -0.0114 -0.2282
   72SLPC   O14 6260   3.772   5.295  10.667  0.3745 -0.0599  0.1703
   72SLPC   O12 6261   3.557   5.243  10.794  0.4282  0.4616 -0.3375
   72SLPC   O11 6262   3.580   5.203  10.547  0.2423  0.2409  0.4701
   72SLPC    C1 6263   3.637   5.218  10.414 -0.3167 -0.4729  0.4922
   72SLPC    HA 6264   3.677   5.320  10.395  0.6169 -0.9171 -0.0222
   72SLPC    HB 6265   3.731   5.158  10.415  0.7073  1.0699  1.7527
   72SLPC    C2 6266   3.549   5.166  10.307  0.3957  0.2716 -0.4968
   72SLPC    HS 6267   3.487   5.088  10.356  1.8664  0.0045  1.0623
   72SLPC   O21 6268   3.629   5.105  10.204 -0.2866 -0.1964  0.3891
   72SLPC   C21 6269   3.575   5.005  10.135  1.0084  0.1013 -0.4022
   72SLPC   O22 6270   3.478   4.940  10.178 -0.2816  0.1758 -0.4826
   72SLPC   C22 6271   3.649   4.975  10.010  0.2002 -0.5009 -0.0571
   72SLPC   H2R 6272   3.745   4.924  10.032 -0.2531 -1.1407  0.4798
   72SLPC   H2S 6273   3.593   4.892   9.962  2.1542 -0.2994 -2.9397
   72SLPC    C3 6274   3.454   5.272  10.244 -0.0058  0.9962 -0.2458
   72SLPC    HX 6275   3.503   5.356  10.190 -0.4140  0.9851 -0.6414
   72SLPC    HY 6276   3.386   5.318  10.319 -1.5487  0.3855 -1.2148
   72SLPC   O31 6277   3.373   5.204  10.142 -0.5351 -0.2794  0.4703
   72SLPC   C31 6278   3.262   5.145  10.186 -0.6834  0.1429 -0.0091
   72SLPC   O32 6279   3.226   5.144  10.304 -0.2700  0.0195  0.3972
   72SLPC   C32 6280   3.193   5.076  10.068  0.1492 -0.4362 -0.1104
   72SLPC   H2X 6281   3.275   5.047   9.998 -0.4224 -1.7226 -0.2711
   72SLPC   H2Y 6282   3.141   5.161  10.020  0.9743 -0.1994 -0.6135
   72SLPC   C23 6283   3.672   5.097   9.917 -0.4246  0.1800 -0.2788
   72SLPC   H3R 6284   3.724   5.171   9.982  0.7710 -1.1160  0.3183
   72SLPC   H3S 6285   3.571   5.124   9.881 -0.3255 -0.3265 -0.9645
   72SLPC   C24 6286   3.755   5.051   9.796 -0.4839 -0.0138  0.1299
   72SLPC   H4R 6287   3.691   4.972   9.751 -2.6032  0.8046  1.5653
   72SLPC   H4S 6288   3.859   5.018   9.814 -0.5072 -1.9843 -2.7383
   72SLPC   C25 6289   3.762   5.180   9.707  0.6774  0.1913 -0.6587
   72SLPC   H5R 6290   3.805   5.268   9.760 -1.8838  0.9730  0.2895
   72SLPC   H5S 6291   3.657   5.209   9.690 -0.2045 -0.4382  2.8883
   72SLPC   C26 6292   3.828   5.155   9.569  0.4546  0.0609 -0.2340
   72SLPC   H6R 6293   3.760   5.076   9.530 -0.4538  0.0196  1.3656
   72SLPC   H6S 6294   3.933   5.124   9.591 -0.0166 -0.0523  2.0111
   72SLPC   C27 6295   3.809   5.274   9.478 -0.4525 -1.1601  0.7274
   72SLPC   H7R 6296   3.844   5.366   9.530 -1.4287  1.1890 -2.4149
   72SLPC   H7S 6297   3.703   5.305   9.466  0.1090  0.6416  0.0957
   72SLPC   C28 6298   3.881   5.273   9.337  0.4829  0.6545 -0.5771
   72SLPC   H8R 6299   3.991   5.262   9.352  0.1632  1.6418  4.1412
   72SLPC   H8S 6300   3.854   5.370   9.290  2.8053  1.3514 -0.6171
   72SLPC   C29 6301   3.820   5.153   9.257  0.3652  0.4842 -0.0782
   72SLPC   H9R 6302   3.820   5.057   9.311  1.9829  0.6559  0.2788
   72SLPC  C210 6303   3.750   5.173   9.140 -0.1182  0.3190  0.7135
   72SLPC  H10R 6304   3.694   5.082   9.115 -1.1837  0.6669  1.7410
   72SLPC  C211 6305   3.728   5.295   9.056 -0.1467  0.3086 -0.4611
   72SLPC  H11R 6306   3.820   5.358   9.062  0.1662 -0.1748 -0.0335
   72SLPC  H11S 6307   3.650   5.353   9.109  0.9104  0.4608  1.0259
   72SLPC  C212 6308   3.699   5.270   8.909 -0.2717  0.4725  0.0871
   72SLPC  H12R 6309   3.635   5.182   8.895 -0.4358  0.6409 -0.2258
   72SLPC  C213 6310   3.722   5.337   8.798  0.3955  0.3220 -0.3069
   72SLPC  H13R 6311   3.701   5.281   8.706  3.1828 -2.4779  0.5954
   72SLPC  C214 6312   3.785   5.473   8.785 -0.3305  0.3779  0.0221
   72SLPC  H14R 6313   3.843   5.492   8.878 -0.9733  1.6760  0.1785
   72SLPC  H14S 6314   3.698   5.541   8.788 -0.0340  0.7254  1.3719
   72SLPC  C215 6315   3.884   5.503   8.665  0.7297 -0.2773 -1.0372
   72SLPC  H15R 6316   3.988   5.472   8.691  0.7643 -0.7165 -1.6630
   72SLPC  H15S 6317   3.882   5.614   8.663 -0.4203 -0.2019  1.0191
   72SLPC  C216 6318   3.843   5.432   8.540 -0.2750 -0.6668 -0.0426
   72SLPC  H16R 6319   3.735   5.409   8.528 -0.6399 -0.7682  2.6869
   72SLPC  H16S 6320   3.905   5.340   8.549  2.0054  0.9868  2.9389
   72SLPC  C217 6321   3.869   5.526   8.423 -0.0907 -0.2305 -0.2491
   72SLPC  H17R 6322   3.855   5.466   8.331  1.3543  1.3985 -1.6013
   72SLPC  H17S 6323   3.975   5.558   8.419  0.0191 -0.4625  0.5863
   72SLPC  C218 6324   3.773   5.652   8.420  0.5443 -0.2828  0.0632
   72SLPC  H18R 6325   3.829   5.731   8.365 -0.2813  0.1751 -0.1469
   72SLPC  H18S 6326   3.771   5.701   8.520  3.8515 -0.2112  0.2040
   72SLPC  H18T 6327   3.674   5.631   8.373 -0.4794  0.8021  1.6244
   72SLPC   C33 6328   3.095   4.957  10.112 -0.1231  0.1935 -0.4173
   72SLPC   H3X 6329   3.033   4.973  10.203  0.8279 -1.9152  0.6810
   72SLPC   H3Y 6330   3.155   4.866  10.136 -1.1535 -0.4924 -0.3913
   72SLPC   C34 6331   3.006   4.925   9.985 -0.0804  0.1337 -0.0433
   72SLPC   H4X 6332   3.071   4.917   9.896 -1.6231 -0.8572 -1.1532
   72SLPC   H4Y 6333   2.930   5.006   9.979 -0.3658  0.4705  4.5109
   72SLPC   C35 6334   2.942   4.787   9.990  0.9540  0.7273  0.4116
   72SLPC   H5X 6335   2.877   4.789  10.079  0.7367  1.5507  0.2364
   72SLPC   H5Y 6336   3.013   4.709  10.025 -0.6139  0.9863  4.7016
   72SLPC   C36 6337   2.853   4.757   9.871  0.2946 -0.1743  0.5676
   72SLPC   H6X 6338   2.830   4.858   9.831  1.4317 -0.2529 -0.3386
   72SLPC   H6Y 6339   2.758   4.716   9.909 -1.0048  1.5814 -0.5950
   72SLPC   C37 6340   2.912   4.662   9.765 -0.1139  0.7027  0.5915
   72SLPC   H7X 6341   2.917   4.554   9.790  1.4011  0.4505 -0.6542
   72SLPC   H7Y 6342   3.017   4.689   9.740  0.2722 -1.7314 -0.6386
   72SLPC   C38 6343   2.824   4.665   9.634  0.0804 -0.1061 -0.5301
   72SLPC   H8X 6344   2.818   4.771   9.603  2.4175  0.6902  1.4028
   72SLPC   H8Y 6345   2.723   4.620   9.648  0.1540 -0.6880 -1.7307
   72SLPC   C39 6346   2.886   4.584   9.516 -0.8908  0.6185  0.4947
   72SLPC   H9X 6347   2.832   4.609   9.422 -1.1724 -0.0398  0.4792
   72SLPC   H9Y 6348   2.870   4.475   9.524 -2.2357  0.6662 -1.0207
   72SLPC  C310 6349   3.040   4.611   9.486 -0.0117 -0.9040 -0.5113
   72SLPC  H10X 6350   3.103   4.578   9.572  0.4322  0.0998 -0.4282
   72SLPC  H10Y 6351   3.057   4.715   9.450 -0.3517 -1.2105 -1.5966
   72SLPC  C311 6352   3.078   4.527   9.370 -1.6035  1.2324  0.4130
   72SLPC  H11X 6353   3.067   4.417   9.382  0.7997  0.8697 -0.2449
   72SLPC  H11Y 6354   3.188   4.537   9.374 -1.3681 -0.6709  4.2302
   72SLPC  C312 6355   3.026   4.581   9.240  0.4173  0.0122 -0.0724
   72SLPC  H12X 6356   3.028   4.692   9.253  1.6012 -0.2971  3.1721
   72SLPC  H12Y 6357   2.924   4.539   9.227  0.7478 -1.6277  2.0764
   72SLPC  C313 6358   3.108   4.529   9.127 -0.8916  0.5918 -0.0747
   72SLPC  H13X 6359   3.117   4.418   9.131 -2.0468  0.5062  0.7216
   72SLPC  H13Y 6360   3.212   4.565   9.139 -1.1514  0.6480  2.5031
   72SLPC  C314 6361   3.057   4.584   9.000 -0.4614  0.0173  0.3787
   72SLPC  H14X 6362   3.066   4.695   9.004  0.5648 -0.0343 -0.0679
   72SLPC  H14Y 6363   2.952   4.549   8.989 -0.3503 -0.6924  1.4506
   72SLPC  C315 6364   3.129   4.532   8.876  0.2240 -1.1522 -1.0311
   72SLPC  H15X 6365   3.141   4.422   8.891 -1.6177 -1.4014 -1.1772
   72SLPC  H15Y 6366   3.228   4.581   8.863  1.1873 -2.9684 -0.9388
   72SLPC  C316 6367   3.047   4.545   8.747  0.2698 -0.6072 -0.0903
   72SLPC  H16X 6368   3.034   4.655   8.733 -1.4133 -0.7384  0.2979
   72SLPC  H16Y 6369   2.947   4.500   8.764 -1.2148  1.8429 -1.7088
   72SLPC  C317 6370   3.127   4.485   8.634  0.4919  0.2399  0.0460
   72SLPC  H17X 6371   3.177   4.395   8.676 -0.4263 -1.0955 -1.5996
   72SLPC  H17Y 6372   3.205   4.563   8.620  0.2497  0.1560 -1.9788
   72SLPC  C318 6373   3.042   4.449   8.515  0.4011  0.1912 -0.1061
   72SLPC  H18X 6374   3.100   4.451   8.420  0.7291 -1.7628  0.0112
   72SLPC  H18Y 6375   2.962   4.525   8.498  0.2182 -0.3308 -1.7334
   72SLPC  H18Z 6376   3.005   4.346   8.533  1.5582 -0.4078 -1.0670
   73SLPC     N 6377   3.398   4.646  11.037  0.3159 -0.5277  0.3906
   73SLPC   C13 6378   3.381   4.692  10.891  0.0174  0.5163  0.0278
   73SLPC  H13A 6379   3.413   4.793  10.876  0.1448  0.3063 -1.1850
   73SLPC  H13B 6380   3.446   4.637  10.824  1.2939  3.6747 -1.5184
   73SLPC  H13C 6381   3.278   4.684  10.860 -1.2139  2.7346  3.0704
   73SLPC   C14 6382   3.313   4.737  11.112 -0.2065  0.1221  0.7673
   73SLPC  H14A 6383   3.209   4.717  11.094  0.3114 -2.9218  0.6897
   73SLPC  H14B 6384   3.339   4.737  11.217  1.6233  1.4245  0.3846
   73SLPC  H14C 6385   3.337   4.837  11.078  2.4963 -0.1824  1.5413
   73SLPC   C15 6386   3.543   4.676  11.070  0.2134  0.9055 -0.2859
   73SLPC  H15A 6387   3.600   4.586  11.051 -2.3529 -0.6736 -1.0840
   73SLPC  H15B 6388   3.574   4.757  11.006  0.2516  3.0897  2.3126
   73SLPC  H15C 6389   3.550   4.716  11.170 -0.2239  0.3218 -0.0153
   73SLPC   C12 6390   3.333   4.507  11.054  0.2629 -0.6124 -0.2457
   73SLPC  H12A 6391   3.343   4.484  11.159  2.0644  0.4430 -0.1637
   73SLPC  H12B 6392   3.396   4.442  10.995 -1.7838 -1.4389 -1.6641
   73SLPC   C11 6393   3.187   4.491  11.003 -0.1651  0.3416  0.3755
   73SLPC  H11A 6394   3.131   4.579  11.042  0.8759 -0.1611  3.1884
   73SLPC  H11B 6395   3.144   4.396  11.041 -0.6379  0.3810 -0.0377
   73SLPC     P 6396   3.224   4.375  10.767 -0.3296  0.3324  0.5040
   73SLPC   O13 6397   3.361   4.334  10.806 -0.5663  0.1350 -0.3981
   73SLPC   O14 6398   3.121   4.267  10.764  0.1474 -0.4396 -0.2030
   73SLPC   O12 6399   3.175   4.498  10.858 -0.2645 -0.4892 -0.6149
   73SLPC   O11 6400   3.228   4.448  10.625 -0.1819 -0.4291 -0.9283
   73SLPC    C1 6401   3.112   4.494  10.566 -0.0122 -0.1202 -0.4718
   73SLPC    HA 6402   3.019   4.456  10.612  0.4240 -0.8540 -0.1911
   73SLPC    HB 6403   3.114   4.605  10.567 -2.6205  0.0013  0.7496
   73SLPC    C2 6404   3.098   4.440  10.420  0.5438  0.2353  0.3192
   73SLPC    HS 6405   3.101   4.330  10.433 -0.3939  0.2202  0.5205
   73SLPC   O21 6406   3.208   4.482  10.338  0.8805  0.0642  0.2247
   73SLPC   C21 6407   3.272   4.389  10.274 -0.3868 -0.1407 -0.2173
   73SLPC   O22 6408   3.257   4.269  10.277 -0.5770 -0.6077  0.1383
   73SLPC   C22 6409   3.366   4.467  10.186  0.1596  0.3439 -0.2749
   73SLPC   H2R 6410   3.442   4.521  10.245 -2.5103  0.8330  3.0253
   73SLPC   H2S 6411   3.418   4.393  10.121  0.7950  0.0710  0.5329
   73SLPC    C3 6412   2.969   4.482  10.347  0.1744 -0.1991  0.8854
   73SLPC    HX 6413   2.961   4.593  10.350 -0.6702 -0.2649  1.4754
   73SLPC    HY 6414   2.871   4.446  10.385 -0.1873  0.2125  0.3539
   73SLPC   O31 6415   2.986   4.454  10.201 -0.2772  0.1164 -0.5998
   73SLPC   C31 6416   2.931   4.333  10.160 -0.1304 -0.0243  0.8469
   73SLPC   O32 6417   2.867   4.258  10.230 -0.4703  0.1389 -0.6779
   73SLPC   C32 6418   2.950   4.333  10.002  0.9757  0.6111 -0.4765
   73SLPC   H2X 6419   3.057   4.306   9.986  2.4561  2.3487  4.4885
   73SLPC   H2Y 6420   2.941   4.437   9.966  0.6434  0.6555 -0.2681
   73SLPC   C23 6421   3.296   4.573  10.094 -0.0961  0.4528 -0.7892
   73SLPC   H3R 6422   3.311   4.669  10.148  2.3261 -0.4778  0.3754
   73SLPC   H3S 6423   3.186   4.566  10.083  0.1271 -1.1003 -2.5172
   73SLPC   C24 6424   3.351   4.574   9.952  0.6910  0.0222 -0.1093
   73SLPC   H4R 6425   3.333   4.482   9.892 -1.4001 -0.2131  0.7824
   73SLPC   H4S 6426   3.461   4.577   9.969  0.5839 -1.2739  0.9922
   73SLPC   C25 6427   3.319   4.711   9.889 -0.0680 -0.4359 -0.2417
   73SLPC   H5R 6428   3.346   4.789   9.963 -0.7015 -0.6448  0.2240
   73SLPC   H5S 6429   3.211   4.725   9.866  0.3833  0.5561 -1.8966
   73SLPC   C26 6430   3.398   4.738   9.757  0.3053  0.0381 -0.5134
   73SLPC   H6R 6431   3.393   4.653   9.685  2.4319 -1.4265  0.9238
   73SLPC   H6S 6432   3.504   4.743   9.790 -0.3550 -1.6065  2.2511
   73SLPC   C27 6433   3.354   4.870   9.695  0.2129  0.9416 -0.5662
   73SLPC   H7R 6434   3.376   4.954   9.765  2.9586 -1.8838  2.2760
   73SLPC   H7S 6435   3.244   4.870   9.677  0.1216 -1.8399 -0.4781
   73SLPC   C28 6436   3.433   4.900   9.568  1.0487 -0.0074  0.3713
   73SLPC   H8R 6437   3.544   4.896   9.577  0.9534 -0.3761  1.6011
   73SLPC   H8S 6438   3.399   5.000   9.534 -0.4274 -0.1833  1.2265
   73SLPC   C29 6439   3.378   4.812   9.456 -0.5240  0.3324 -0.6652
   73SLPC   H9R 6440   3.282   4.765   9.484 -1.4936  3.1849  1.2669
   73SLPC  C210 6441   3.448   4.777   9.343 -0.0560  0.3194 -0.4910
   73SLPC  H10R 6442   3.411   4.702   9.273  1.2959  0.7666 -1.7403
   73SLPC  C211 6443   3.584   4.841   9.304  0.2402  0.3164  0.1383
   73SLPC  H11R 6444   3.660   4.820   9.382  0.0880  1.5632  0.6580
   73SLPC  H11S 6445   3.572   4.952   9.302 -0.6558  0.2943  2.1613
   73SLPC  C212 6446   3.623   4.810   9.159  0.0239  0.6881 -0.5736
   73SLPC  H12R 6447   3.701   4.733   9.149  1.0845  1.8339 -1.3537
   73SLPC  C213 6448   3.562   4.864   9.044 -0.5698 -0.0674  0.1915
   73SLPC  H13R 6449   3.602   4.848   8.943  0.1731  1.9265  0.1274
   73SLPC  C214 6450   3.457   4.965   9.049  0.8603  0.2604  0.1554
   73SLPC  H14R 6451   3.502   5.046   8.987  0.0302 -0.4089 -1.3848
   73SLPC  H14S 6452   3.430   4.997   9.152 -0.2265  1.9670 -0.6243
   73SLPC  C215 6453   3.342   4.897   8.979 -0.2950  0.3679 -0.0759
   73SLPC  H15R 6454   3.288   4.839   9.056  0.0811 -1.1556 -0.9093
   73SLPC  H15S 6455   3.368   4.844   8.884  2.4990  1.3346  0.0418
   73SLPC  C216 6456   3.232   4.989   8.916 -0.4193  0.2143  0.1897
   73SLPC  H16R 6457   3.180   5.051   8.992  0.5950  0.7775  0.4331
   73SLPC  H16S 6458   3.150   4.925   8.875 -1.9564  2.3197 -0.2407
   73SLPC  C217 6459   3.281   5.083   8.802 -0.1986  0.1552  0.3320
   73SLPC  H17R 6460   3.308   5.015   8.719  0.0307 -0.0767  0.5959
   73SLPC  H17S 6461   3.372   5.143   8.826 -0.7229  0.5331  1.4437
   73SLPC  C218 6462   3.173   5.180   8.753 -0.9637 -0.8086  0.0221
   73SLPC  H18R 6463   3.203   5.242   8.665  2.2509  0.5512  1.8707
   73SLPC  H18S 6464   3.155   5.256   8.832  2.8555 -1.1146  1.4193
   73SLPC  H18T 6465   3.075   5.136   8.727 -2.3098  2.8397 -1.9295
   73SLPC   C33 6466   2.864   4.223   9.936  0.4716 -1.0210  0.7044
   73SLPC   H3X 6467   2.757   4.234   9.964  0.1256  0.5895 -1.0648
   73SLPC   H3Y 6468   2.908   4.127   9.972  0.9574 -0.6757  1.0534
   73SLPC   C34 6469   2.876   4.232   9.781 -0.3348 -0.3491 -0.5749
   73SLPC   H4X 6470   2.971   4.185   9.745 -0.4977 -1.6993  0.6747
   73SLPC   H4Y 6471   2.873   4.341   9.761  1.6094 -0.0194  0.6217
   73SLPC   C35 6472   2.757   4.168   9.710  0.3510  0.0731  0.0516
   73SLPC   H5X 6473   2.664   4.206   9.757  0.2159 -0.2531  0.0482
   73SLPC   H5Y 6474   2.766   4.058   9.725 -0.8357  0.0210  0.4879
   73SLPC   C36 6475   2.744   4.214   9.564  0.2865  0.9377  0.0953
   73SLPC   H6X 6476   2.844   4.202   9.518  0.0005  1.4297 -0.6621
   73SLPC   H6Y 6477   2.694   4.313   9.562 -1.7579  0.0745  2.6603
   73SLPC   C37 6478   2.673   4.114   9.482 -0.6426 -0.8702 -0.0945
   73SLPC   H7X 6479   2.572   4.108   9.529 -1.1201 -0.1322 -0.9963
   73SLPC   H7Y 6480   2.722   4.014   9.482  1.2969  0.0323  0.4807
   73SLPC   C38 6481   2.668   4.164   9.334  0.6724 -0.0509  0.1575
   73SLPC   H8X 6482   2.777   4.171   9.312  0.6007  1.8815  0.2477
   73SLPC   H8Y 6483   2.625   4.266   9.334 -1.3745 -0.8636  1.4419
   73SLPC   C39 6484   2.575   4.077   9.250  0.9572 -0.4574 -0.4583
   73SLPC   H9X 6485   2.479   4.073   9.305  1.3753 -0.4050  0.2819
   73SLPC   H9Y 6486   2.605   3.971   9.239  1.1776 -0.7438  2.3308
   73SLPC  C310 6487   2.550   4.143   9.112 -0.4405  0.7057  0.1908
   73SLPC  H10X 6488   2.646   4.174   9.063 -0.8338  0.7194 -0.5802
   73SLPC  H10Y 6489   2.490   4.236   9.126 -0.7685  0.2989  1.6497
   73SLPC  C311 6490   2.478   4.044   9.020  0.2699  0.3938 -0.3866
   73SLPC  H11X 6491   2.395   4.003   9.082 -0.1640  2.6364  0.6353
   73SLPC  H11Y 6492   2.541   3.956   9.000 -0.1945 -0.3002  1.0718
   73SLPC  C312 6493   2.423   4.109   8.891 -0.2467 -0.4019  0.4128
   73SLPC  H12X 6494   2.389   4.019   8.836  1.5731 -0.7299 -0.2548
   73SLPC  H12Y 6495   2.506   4.171   8.850 -0.4232 -0.0831  0.5324
   73SLPC  C313 6496   2.293   4.192   8.914  0.3964  0.7956  0.3273
   73SLPC  H13X 6497   2.313   4.286   8.968 -0.5005  0.0596  2.0161
   73SLPC  H13Y 6498   2.216   4.139   8.975  0.5265  0.5501  0.2798
   73SLPC  C314 6499   2.220   4.214   8.783  0.1223 -0.1830  0.7800
   73SLPC  H14X 6500   2.272   4.296   8.729  0.6255 -1.8852 -1.4171
   73SLPC  H14Y 6501   2.116   4.245   8.805  0.1229 -0.9564  1.9707
   73SLPC  C315 6502   2.198   4.102   8.684 -0.5850  0.5469  0.6323
   73SLPC  H15X 6503   2.138   4.024   8.737  2.0202 -3.0904 -1.2906
   73SLPC  H15Y 6504   2.300   4.063   8.665 -0.1268  0.9716  2.0696
   73SLPC  C316 6505   2.122   4.139   8.556  0.0592  0.0348 -0.6941
   73SLPC  H16X 6506   2.146   4.241   8.517 -2.2531  1.2106  0.7932
   73SLPC  H16Y 6507   2.014   4.141   8.581  0.4232  1.3242  0.9618
   73SLPC  C317 6508   2.131   4.026   8.447  0.6281  0.8920  0.1630
   73SLPC  H17X 6509   2.118   3.926   8.493  2.6917 -0.7976 -2.6186
   73SLPC  H17Y 6510   2.232   4.020   8.401  0.0511 -0.5146 -1.0068
   73SLPC  C318 6511   2.018   4.036   8.344  0.7418  0.3121 -0.4157
   73SLPC  H18X 6512   2.029   4.123   8.275 -1.1000  0.9637  0.0435
   73SLPC  H18Y 6513   1.923   4.072   8.388  0.0777  0.2225 -1.7101
   73SLPC  H18Z 6514   1.996   3.951   8.275 -1.6135  0.6727 -0.2037
   74SLPC     N 6515   4.389   5.401  10.529 -0.5878 -0.4086  0.1336
   74SLPC   C13 6516   4.304   5.386  10.405 -0.7507  0.0705  0.3239
   74SLPC  H13A 6517   4.225   5.458  10.393 -0.6602  0.0565 -0.4083
   74SLPC  H13B 6518   4.370   5.400  10.320 -0.8618  1.7100  0.4694
   74SLPC  H13C 6519   4.258   5.289  10.393  0.7240 -0.7294  0.9151
   74SLPC   C14 6520   4.306   5.385  10.652  0.1108 -0.4291  0.3725
   74SLPC  H14A 6521   4.223   5.453  10.660 -0.5021 -1.3203  1.8976
   74SLPC  H14B 6522   4.261   5.287  10.649  0.2186 -0.4959 -3.1203
   74SLPC  H14C 6523   4.354   5.396  10.748 -1.8176  1.2307  1.2388
   74SLPC   C15 6524   4.444   5.541  10.524  0.4334 -0.5954  0.6778
   74SLPC  H15A 6525   4.354   5.599  10.540  0.2107 -0.9086  0.5712
   74SLPC  H15B 6526   4.501   5.570  10.611 -0.8797  2.8983  0.5241
   74SLPC  H15C 6527   4.497   5.567  10.434 -0.9271  1.0342  0.2963
   74SLPC   C12 6528   4.494   5.297  10.522 -0.2116  0.5692  1.0598
   74SLPC  H12A 6529   4.564   5.318  10.442 -0.3410 -0.7804  0.5694
   74SLPC  H12B 6530   4.435   5.208  10.506 -0.2078  0.7548 -0.0652
   74SLPC   C11 6531   4.595   5.293  10.640 -0.4249  0.0020 -0.1101
   74SLPC  H11A 6532   4.542   5.281  10.737  1.3258  1.7272  1.1483
   74SLPC  H11B 6533   4.639   5.394  10.651 -0.4191 -0.1399  1.4924
   74SLPC     P 6534   4.810   5.200  10.543  0.1322 -0.0541  0.0447
   74SLPC   O13 6535   4.888   5.315  10.596 -0.3289  0.2588 -0.3141
   74SLPC   O14 6536   4.878   5.075  10.522  0.7080  0.0571  0.1347
   74SLPC   O12 6537   4.681   5.182  10.628 -0.4089 -0.0403 -0.2996
   74SLPC   O11 6538   4.746   5.239  10.400  0.2173 -0.3072  0.6618
   74SLPC    C1 6539   4.699   5.149  10.306 -0.1697  0.2199 -0.0735
   74SLPC    HA 6540   4.721   5.042  10.329 -1.9394 -0.2438 -0.3992
   74SLPC    HB 6541   4.594   5.166  10.272  0.4141 -0.2574 -2.3207
   74SLPC    C2 6542   4.766   5.169  10.163 -0.4193  0.0810 -0.0366
   74SLPC    HS 6543   4.747   5.277  10.142  0.1833 -0.0496 -1.3608
   74SLPC   O21 6544   4.719   5.080  10.058 -0.2040  0.3652  0.4192
   74SLPC   C21 6545   4.594   5.105  10.014  0.7928  0.6236  0.2363
   74SLPC   O22 6546   4.512   5.186  10.056  0.2039 -0.1901  0.3948
   74SLPC   C22 6547   4.577   5.023   9.881 -0.2264 -0.0979  0.3351
   74SLPC   H2R 6548   4.649   4.939   9.882 -1.6395 -1.3803  3.2316
   74SLPC   H2S 6549   4.479   4.973   9.891 -0.7777  1.2617  2.3206
   74SLPC    C3 6550   4.917   5.144  10.186 -0.4071  0.3786 -0.2713
   74SLPC    HX 6551   4.920   5.035  10.211 -0.2139  1.0052  2.9541
   74SLPC    HY 6552   4.961   5.210  10.264 -2.6737  2.1268 -0.3855
   74SLPC   O31 6553   4.982   5.168  10.059  0.2106 -0.8074 -0.2906
   74SLPC   C31 6554   5.055   5.073  10.000  0.9225 -0.3316 -0.3355
   74SLPC   O32 6555   5.085   4.962  10.035 -0.1351  0.2844 -1.0577
   74SLPC   C32 6556   5.096   5.128   9.862 -0.0212 -0.0937 -0.4573
   74SLPC   H2X 6557   5.201   5.096   9.842 -0.2396 -0.7912 -0.5132
   74SLPC   H2Y 6558   5.098   5.239   9.855 -1.6255 -0.0984 -1.2879
   74SLPC   C23 6559   4.605   5.123   9.759  0.1947  0.2159 -0.3274
   74SLPC   H3R 6560   4.707   5.165   9.778  0.6242 -0.1413 -1.7396
   74SLPC   H3S 6561   4.530   5.205   9.761 -1.9929 -1.6553  2.7552
   74SLPC   C24 6562   4.601   5.048   9.634 -0.7916 -1.1025  0.3007
   74SLPC   H4R 6563   4.502   5.003   9.610 -2.1018  1.6230  0.2747
   74SLPC   H4S 6564   4.665   4.958   9.650  0.4055 -0.9184 -2.6327
   74SLPC   C25 6565   4.668   5.120   9.514 -0.0478 -0.8101  0.3630
   74SLPC   H5R 6566   4.778   5.131   9.510 -0.0859 -0.6051 -2.2466
   74SLPC   H5S 6567   4.629   5.224   9.517 -0.0272 -0.7865 -0.0812
   74SLPC   C26 6568   4.623   5.076   9.371 -0.2871  0.3328  0.0236
   74SLPC   H6R 6569   4.529   5.022   9.396  0.2870 -0.3043  0.8878
   74SLPC   H6S 6570   4.702   5.010   9.330  0.4038  1.0979  0.1048
   74SLPC   C27 6571   4.595   5.193   9.277  0.3831  0.3028 -0.2242
   74SLPC   H7R 6572   4.666   5.278   9.267  0.3030  0.3037 -0.8414
   74SLPC   H7S 6573   4.504   5.245   9.315  1.3107  2.0664 -0.2645
   74SLPC   C28 6574   4.551   5.120   9.145  0.0462  0.3746  0.6884
   74SLPC   H8R 6575   4.457   5.061   9.158  1.0751 -1.3507  0.5735
   74SLPC   H8S 6576   4.631   5.049   9.116 -0.8394 -0.3362 -0.1015
   74SLPC   C29 6577   4.519   5.214   9.036  0.3236 -0.0751  0.6646
   74SLPC   H9R 6578   4.413   5.244   9.028  0.4806  0.2273 -0.4746
   74SLPC  C210 6579   4.605   5.263   8.945 -0.6806 -0.2956 -0.1005
   74SLPC  H10R 6580   4.581   5.344   8.875 -0.3658  1.3541  1.6233
   74SLPC  C211 6581   4.754   5.238   8.945 -0.4617 -0.6881  0.5543
   74SLPC  H11R 6582   4.770   5.134   8.982 -0.5110 -0.0025  2.6162
   74SLPC  H11S 6583   4.812   5.292   9.022  2.5490 -2.5988 -0.2201
   74SLPC  C212 6584   4.824   5.264   8.810 -0.0351 -0.2117 -0.4395
   74SLPC  H12R 6585   4.912   5.327   8.829 -1.6812  1.4206  2.4201
   74SLPC  C213 6586   4.804   5.204   8.688  0.9394 -0.0695  0.3482
   74SLPC  H13R 6587   4.865   5.232   8.601  1.0259  1.8022  0.9567
   74SLPC  C214 6588   4.695   5.101   8.670  0.1549 -0.3579  1.0485
   74SLPC  H14R 6589   4.621   5.162   8.614 -0.1256  0.1776  1.9839
   74SLPC  H14S 6590   4.654   5.062   8.766  2.2292  0.8751  2.5076
   74SLPC  C215 6591   4.742   4.983   8.587  0.0889 -0.3446 -0.1544
   74SLPC  H15R 6592   4.760   5.017   8.483  0.5806  0.3139  0.1391
   74SLPC  H15S 6593   4.662   4.906   8.593 -0.2892 -0.1903 -2.4954
   74SLPC  C216 6594   4.869   4.916   8.640  0.5576 -0.1042  0.2404
   74SLPC  H16R 6595   4.852   4.862   8.736 -0.0237 -0.3180  0.0263
   74SLPC  H16S 6596   4.951   4.989   8.653  0.1485  0.2468  0.9014
   74SLPC  C217 6597   4.926   4.805   8.546 -0.4098  0.5995 -0.1047
   74SLPC  H17R 6598   4.965   4.855   8.455  0.2902 -0.7783 -0.5807
   74SLPC  H17S 6599   4.835   4.759   8.502  0.2443  0.9435 -1.9044
   74SLPC  C218 6600   5.030   4.712   8.606  0.1884 -0.7482  0.7165
   74SLPC  H18R 6601   5.106   4.768   8.664 -0.4586  1.6575 -0.6001
   74SLPC  H18S 6602   5.072   4.640   8.532 -1.6271 -0.3686 -0.7852
   74SLPC  H18T 6603   4.987   4.651   8.687  0.7230 -1.1625  0.6948
   74SLPC   C33 6604   5.010   5.060   9.750 -0.5465 -1.1341  0.0419
   74SLPC   H3X 6605   4.901   5.080   9.751 -0.5838 -1.1581  2.0676
   74SLPC   H3Y 6606   5.017   4.949   9.756 -1.0967 -1.1748 -0.0204
   74SLPC   C34 6607   5.077   5.101   9.614  0.1071  0.2647 -0.0331
   74SLPC   H4X 6608   5.043   5.034   9.533  1.3967 -2.4931  1.5754
   74SLPC   H4Y 6609   5.187   5.086   9.627  0.1484  1.2170  0.8586
   74SLPC   C35 6610   5.083   5.245   9.570  0.4373 -0.0255  0.0513
   74SLPC   H5X 6611   5.171   5.300   9.606 -0.8138  0.7473  2.0787
   74SLPC   H5Y 6612   4.996   5.295   9.618  0.7019  1.3498 -0.8420
   74SLPC   C36 6613   5.078   5.251   9.414  0.7275 -0.2983  0.5712
   74SLPC   H6X 6614   4.970   5.242   9.391  0.4900  0.3456  1.3620
   74SLPC   H6Y 6615   5.135   5.163   9.376 -1.7345 -1.8418  0.2634
   74SLPC   C37 6616   5.129   5.379   9.354 -0.1317 -0.4276 -0.3304
   74SLPC   H7X 6617   5.231   5.403   9.391 -0.1696 -2.8555  1.6278
   74SLPC   H7Y 6618   5.068   5.469   9.379  2.3633  2.0772 -2.5506
   74SLPC   C38 6619   5.123   5.384   9.205  0.3567 -0.1782 -0.6473
   74SLPC   H8X 6620   5.027   5.343   9.169  0.7320 -0.6081 -1.1745
   74SLPC   H8Y 6621   5.206   5.314   9.180  0.3097 -0.7276  0.6189
   74SLPC   C39 6622   5.123   5.532   9.156  0.3390 -0.0695 -0.0245
   74SLPC   H9X 6623   5.213   5.587   9.191 -0.6151  0.0862  2.3733
   74SLPC   H9Y 6624   5.033   5.577   9.203  0.6853  1.5812 -0.8686
   74SLPC  C310 6625   5.125   5.543   9.005 -0.4994 -0.0603 -0.7365
   74SLPC  H10X 6626   5.031   5.509   8.959 -0.7271  1.9657 -1.8947
   74SLPC  H10Y 6627   5.199   5.472   8.963 -0.1392  0.9622 -1.8977
   74SLPC  C311 6628   5.162   5.680   8.954  0.5792  0.0369 -0.3728
   74SLPC  H11X 6629   5.265   5.714   8.977 -0.0990  1.2015  1.1312
   74SLPC  H11Y 6630   5.091   5.759   8.986  0.0153 -0.6858  0.2141
   74SLPC  C312 6631   5.150   5.686   8.805 -0.7645  0.9688 -0.6273
   74SLPC  H12X 6632   5.043   5.679   8.777 -0.6142  0.5470 -1.1264
   74SLPC  H12Y 6633   5.202   5.597   8.762 -1.4297  0.4971 -0.4734
   74SLPC  C313 6634   5.218   5.808   8.739 -0.2878 -0.2183 -0.5602
   74SLPC  H13X 6635   5.318   5.833   8.779 -1.1523 -0.8532  2.2712
   74SLPC  H13Y 6636   5.149   5.890   8.768 -1.5960 -1.2654 -0.5812
   74SLPC  C314 6637   5.226   5.795   8.589 -0.2323  0.8509 -0.4319
   74SLPC  H14X 6638   5.124   5.765   8.555 -0.6870  1.4265  0.4006
   74SLPC  H14Y 6639   5.300   5.712   8.577  0.6015  1.3595  0.9912
   74SLPC  C315 6640   5.270   5.921   8.510  0.3670 -0.4602 -0.2350
   74SLPC  H15X 6641   5.366   5.958   8.553  0.6764 -2.2737  0.7534
   74SLPC  H15Y 6642   5.203   6.005   8.536  0.5718  1.2154 -4.3701
   74SLPC  C316 6643   5.272   5.892   8.364  0.2887 -0.2410  0.2399
   74SLPC  H16X 6644   5.191   5.824   8.329  0.9545  0.6910 -3.5018
   74SLPC  H16Y 6645   5.362   5.830   8.344 -0.6687 -2.1024  1.4430
   74SLPC  C317 6646   5.289   6.021   8.285  0.1136  0.0153  0.4817
   74SLPC  H17X 6647   5.385   6.068   8.316  0.4049 -0.3091  0.0971
   74SLPC  H17Y 6648   5.201   6.085   8.305  0.8635  1.1865  0.1190
   74SLPC  C318 6649   5.292   5.999   8.130 -0.5272  0.7987 -0.3688
   74SLPC  H18X 6650   5.364   5.920   8.099 -1.4506 -0.1383 -0.1772
   74SLPC  H18Y 6651   5.314   6.098   8.084  0.1483  2.1067  2.5283
   74SLPC  H18Z 6652   5.195   5.966   8.088 -1.3858  1.4886  1.0042
   75SLPC     N 6653   4.599   3.896   6.514  0.4496 -0.1166  0.1882
   75SLPC   C13 6654   4.661   3.787   6.428  0.1531  0.5467 -0.3667
   75SLPC  H13A 6655   4.739   3.817   6.359  1.5137 -1.7533  0.0332
   75SLPC  H13B 6656   4.693   3.707   6.494 -0.2998  0.6668  0.0047
   75SLPC  H13C 6657   4.584   3.741   6.368 -1.8772  3.7410 -0.4116
   75SLPC   C14 6658   4.528   3.984   6.424  0.7755 -0.2765 -0.3271
   75SLPC  H14A 6659   4.465   3.922   6.362 -0.3399  0.4853  0.0261
   75SLPC  H14B 6660   4.467   4.057   6.474  0.3318 -0.4027 -0.6782
   75SLPC  H14C 6661   4.604   4.027   6.361  1.6701  0.8573  1.4420
   75SLPC   C15 6662   4.716   3.965   6.580 -0.0368 -0.3897  0.4435
   75SLPC  H15A 6663   4.771   4.014   6.500  1.7278 -0.3269  1.6482
   75SLPC  H15B 6664   4.679   4.045   6.643  0.7851 -0.4320  0.9884
   75SLPC  H15C 6665   4.775   3.892   6.632  2.9189  0.6540 -1.2058
   75SLPC   C12 6666   4.516   3.829   6.622  0.5743 -0.1270 -1.3370
   75SLPC  H12A 6667   4.496   3.907   6.694 -0.6598  1.5892 -3.3953
   75SLPC  H12B 6668   4.579   3.757   6.671  0.1824  0.6472  0.3889
   75SLPC   C11 6669   4.382   3.762   6.585  0.1348 -0.2580  0.2559
   75SLPC  H11A 6670   4.315   3.842   6.545  0.6225  0.4669  0.8516
   75SLPC  H11B 6671   4.332   3.710   6.670  1.5818  0.5570  1.6662
   75SLPC     P 6672   4.416   3.509   6.510  0.1172  0.2094  0.2181
   75SLPC   O13 6673   4.297   3.435   6.478  0.4069 -0.3513  0.0816
   75SLPC   O14 6674   4.529   3.460   6.431 -0.2753 -0.3757 -1.2732
   75SLPC   O12 6675   4.396   3.664   6.479  0.2114 -0.3062 -0.0848
   75SLPC   O11 6676   4.446   3.507   6.668 -0.2947  0.1354  0.2441
   75SLPC    C1 6677   4.510   3.388   6.720  0.3995  0.0384 -0.3152
   75SLPC    HA 6678   4.585   3.341   6.654 -0.7800 -1.2035 -0.8064
   75SLPC    HB 6679   4.566   3.421   6.810  0.3607 -0.0387 -0.2634
   75SLPC    C2 6680   4.404   3.282   6.759 -0.2611 -0.1740  0.4218
   75SLPC    HS 6681   4.375   3.240   6.660 -0.6782  0.7056  0.1618
   75SLPC   O21 6682   4.290   3.351   6.818 -0.1384  0.0030 -0.2289
   75SLPC   C21 6683   4.175   3.282   6.809  0.1853 -0.4811  0.2241
   75SLPC   O22 6684   4.157   3.183   6.743  0.6094  0.1598 -0.5241
   75SLPC   C22 6685   4.075   3.360   6.893  0.6484  0.2399 -0.7302
   75SLPC   H2R 6686   4.111   3.464   6.913  2.1893  0.0184 -2.0839
   75SLPC   H2S 6687   3.980   3.375   6.838 -1.6358 -0.7181  2.6173
   75SLPC    C3 6688   4.465   3.172   6.852 -0.3571  0.8830  0.5227
   75SLPC    HX 6689   4.547   3.130   6.790 -0.6686  0.0032  0.6930
   75SLPC    HY 6690   4.385   3.101   6.883 -0.5205  1.8344  2.4035
   75SLPC   O31 6691   4.527   3.234   6.968 -0.6140  0.2670 -0.2968
   75SLPC   C31 6692   4.452   3.241   7.073  0.4217 -0.1170 -0.4904
   75SLPC   O32 6693   4.346   3.177   7.092  0.0358 -0.0835  0.2372
   75SLPC   C32 6694   4.525   3.320   7.183  0.0320 -0.7743 -0.8195
   75SLPC   H2X 6695   4.501   3.428   7.177 -1.2975 -0.8899  1.4309
   75SLPC   H2Y 6696   4.634   3.297   7.184 -0.0857 -1.3555  0.4496
   75SLPC   C23 6697   4.034   3.304   7.028  0.5433  0.5861 -0.3446
   75SLPC   H3R 6698   4.121   3.327   7.093  0.7924 -0.4034 -0.2983
   75SLPC   H3S 6699   4.031   3.193   7.015 -1.6565  0.5841 -0.2382
   75SLPC   C24 6700   3.899   3.349   7.085 -0.9209  0.1016 -0.0547
   75SLPC   H4R 6701   3.817   3.336   7.011 -0.1791 -2.0932 -0.5503
   75SLPC   H4S 6702   3.916   3.456   7.111 -1.8404  0.3198 -0.3093
   75SLPC   C25 6703   3.854   3.284   7.208  0.0154  0.4734  0.2233
   75SLPC   H5R 6704   3.854   3.174   7.193  0.8707  0.6269 -1.0640
   75SLPC   H5S 6705   3.754   3.314   7.246 -0.0746 -1.7348  1.9468
   75SLPC   C26 6706   3.950   3.321   7.319 -0.4013  0.3317  0.2737
   75SLPC   H6R 6707   3.937   3.431   7.321 -0.2489  0.3786 -0.7897
   75SLPC   H6S 6708   4.053   3.296   7.284 -0.7413  1.5646 -1.7532
   75SLPC   C27 6709   3.915   3.261   7.452  0.0083  0.8962 -0.8118
   75SLPC   H7R 6710   3.886   3.153   7.452  2.4444  0.1971 -0.7362
   75SLPC   H7S 6711   3.822   3.315   7.480  0.3223  0.3424  1.5166
   75SLPC   C28 6712   4.025   3.274   7.557 -0.0165  0.1098 -1.3250
   75SLPC   H8R 6713   3.972   3.268   7.654  0.5698  1.1680 -0.9275
   75SLPC   H8S 6714   4.054   3.380   7.544  0.2256  0.4445  1.2992
   75SLPC   C29 6715   4.150   3.186   7.546  0.0802  0.0722 -0.0362
   75SLPC   H9R 6716   4.155   3.144   7.445  2.6647 -1.9466  0.8399
   75SLPC  C210 6717   4.226   3.136   7.648 -0.4420 -0.8215 -0.2141
   75SLPC  H10R 6718   4.306   3.063   7.628 -0.6890 -0.8398 -1.2368
   75SLPC  C211 6719   4.207   3.167   7.796 -0.1249  0.0896 -0.4934
   75SLPC  H11R 6720   4.182   3.081   7.863  5.0254 -0.8063  0.6964
   75SLPC  H11S 6721   4.129   3.246   7.805 -0.0776  0.2168 -1.1553
   75SLPC  C212 6722   4.329   3.238   7.851  1.1225  0.2317 -0.3969
   75SLPC  H12R 6723   4.380   3.297   7.773  0.5736  0.3478 -0.6771
   75SLPC  C213 6724   4.364   3.254   7.980  0.1070 -0.5585 -0.0406
   75SLPC  H13R 6725   4.459   3.301   8.010  0.0498 -1.0129  0.9001
   75SLPC  C214 6726   4.295   3.191   8.093  0.8014  0.6734 -0.1050
   75SLPC  H14R 6727   4.367   3.117   8.136 -0.4254 -0.3743  0.2207
   75SLPC  H14S 6728   4.204   3.132   8.069  1.7632 -0.9210 -0.0307
   75SLPC  C215 6729   4.246   3.291   8.197  0.3705 -0.0954  0.0941
   75SLPC  H15R 6730   4.340   3.340   8.233  1.0477  0.6343 -2.4330
   75SLPC  H15S 6731   4.198   3.245   8.286 -1.6261  1.9449  0.1738
   75SLPC  C216 6732   4.159   3.417   8.152  0.1352 -0.3048  0.6362
   75SLPC  H16R 6733   4.064   3.374   8.114  1.4584 -1.2003 -1.8675
   75SLPC  H16S 6734   4.201   3.452   8.055 -1.3711  0.8555  0.3636
   75SLPC  C217 6735   4.142   3.526   8.253 -0.3488 -1.3209 -0.6428
   75SLPC  H17R 6736   4.239   3.576   8.275 -0.1985 -1.8146 -0.1546
   75SLPC  H17S 6737   4.105   3.488   8.351 -2.2439  1.1663 -0.2868
   75SLPC  C218 6738   4.054   3.639   8.220  0.0028 -0.3030  0.5023
   75SLPC  H18R 6739   3.947   3.613   8.205  0.0008  0.9296 -2.2856
   75SLPC  H18S 6740   4.083   3.688   8.124 -2.3240 -0.3912 -0.3067
   75SLPC  H18T 6741   4.062   3.712   8.304  2.6330  0.7854 -0.5632
   75SLPC   C33 6742   4.491   3.281   7.330  0.2431 -0.7704 -0.0785
   75SLPC   H3X 6743   4.384   3.294   7.354  0.5626 -1.1103  1.6512
   75SLPC   H3Y 6744   4.509   3.173   7.347 -0.5099 -1.2591 -2.1170
   75SLPC   C34 6745   4.582   3.363   7.424 -0.2676 -0.5491  1.0565
   75SLPC   H4X 6746   4.572   3.473   7.411  1.8569 -0.4737 -0.3632
   75SLPC   H4Y 6747   4.685   3.331   7.397  0.3786  0.5964  2.0874
   75SLPC   C35 6748   4.557   3.342   7.571 -0.3880  0.4848 -0.2561
   75SLPC   H5X 6749   4.586   3.241   7.606 -1.9275  0.4258  0.9766
   75SLPC   H5Y 6750   4.447   3.344   7.587 -0.8788 -3.6369 -1.8532
   75SLPC   C36 6751   4.638   3.445   7.650  0.1301 -0.6802  0.4836
   75SLPC   H6X 6752   4.605   3.551   7.638  0.1673 -0.2424  3.5363
   75SLPC   H6Y 6753   4.742   3.433   7.613  0.4732  1.9378  0.3859
   75SLPC   C37 6754   4.637   3.410   7.798  0.4495 -0.5061  0.0122
   75SLPC   H7X 6755   4.657   3.300   7.804  2.0966 -0.2909 -0.8149
   75SLPC   H7Y 6756   4.534   3.434   7.830 -0.1660 -0.7754 -1.6678
   75SLPC   C38 6757   4.746   3.489   7.873  1.1382 -0.5183 -0.6917
   75SLPC   H8X 6758   4.757   3.598   7.854 -2.5380  0.2957  0.8580
   75SLPC   H8Y 6759   4.841   3.455   7.827 -0.6465 -2.3775 -3.2545
   75SLPC   C39 6760   4.759   3.448   8.026 -0.0970  0.1904 -0.1006
   75SLPC   H9X 6761   4.862   3.469   8.064  0.1089 -0.9409  0.0242
   75SLPC   H9Y 6762   4.738   3.340   8.045  0.9667 -0.0667 -0.3110
   75SLPC  C310 6763   4.670   3.536   8.113 -0.1617 -0.2160  0.4433
   75SLPC  H10X 6764   4.561   3.528   8.090 -0.0255  0.9416 -0.7360
   75SLPC  H10Y 6765   4.698   3.639   8.082 -0.4809 -0.5879 -1.1622
   75SLPC  C311 6766   4.696   3.532   8.265 -0.1272 -0.6577 -0.4400
   75SLPC  H11X 6767   4.718   3.630   8.312 -0.2185 -1.8970  2.3874
   75SLPC  H11Y 6768   4.792   3.480   8.284  1.0602  1.2568 -0.8899
   75SLPC  C312 6769   4.574   3.465   8.325 -0.1549  0.6080 -0.7854
   75SLPC  H12X 6770   4.549   3.370   8.274  0.9775 -0.6987  1.0105
   75SLPC  H12Y 6771   4.488   3.536   8.313 -0.2447  0.2652 -2.3660
   75SLPC  C313 6772   4.590   3.433   8.476 -0.1983 -0.2062 -0.1445
   75SLPC  H13X 6773   4.626   3.530   8.517  0.8270 -1.4171  1.9674
   75SLPC  H13Y 6774   4.670   3.362   8.507 -0.3428  0.5336  2.1171
   75SLPC  C314 6775   4.453   3.395   8.536  0.0584  0.4058  0.2786
   75SLPC  H14X 6776   4.412   3.307   8.482 -2.1206  1.9872 -0.7655
   75SLPC  H14Y 6777   4.376   3.470   8.508  0.9053  1.8415  1.6326
   75SLPC  C315 6778   4.459   3.370   8.682  0.2610 -0.1579 -0.5008
   75SLPC  H15X 6779   4.488   3.467   8.729 -0.5825 -0.3385  0.4245
   75SLPC  H15Y 6780   4.546   3.302   8.686  2.3226  2.2781 -0.8594
   75SLPC  C316 6781   4.341   3.308   8.758 -0.2923  0.2281 -0.2476
   75SLPC  H16X 6782   4.317   3.207   8.718  0.3910  0.2085 -0.6179
   75SLPC  H16Y 6783   4.248   3.368   8.745  0.3379  1.4927  0.8666
   75SLPC  C317 6784   4.366   3.284   8.910  0.2987  0.2693 -0.2574
   75SLPC  H17X 6785   4.453   3.216   8.918 -1.2257 -1.8556 -0.6311
   75SLPC  H17Y 6786   4.287   3.221   8.956  2.7685 -2.5303  0.4378
   75SLPC  C318 6787   4.371   3.415   8.986 -0.4085 -0.2699  0.3622
   75SLPC  H18X 6788   4.351   3.403   9.094  2.6900 -1.8134  0.8754
   75SLPC  H18Y 6789   4.292   3.479   8.942  1.4594  0.8985 -1.4706
   75SLPC  H18Z 6790   4.470   3.461   8.963 -0.8262 -0.2019 -1.4042
   76SLPC     N 6791   0.576   1.523   6.126 -0.3094 -0.1964  0.2690
   76SLPC   C13 6792   0.434   1.505   6.142  0.0857 -0.4320  0.4912
   76SLPC  H13A 6793   0.405   1.412   6.190 -0.9914 -0.5417 -0.3485
   76SLPC  H13B 6794   0.366   1.577   6.184  1.5443  1.8338 -0.8783
   76SLPC  H13C 6795   0.391   1.496   6.044  0.8311  0.8105  0.0391
   76SLPC   C14 6796   0.599   1.657   6.055  0.0869  0.1906  0.6865
   76SLPC  H14A 6797   0.534   1.668   5.970 -1.1818 -0.5443  1.5224
   76SLPC  H14B 6798   0.567   1.739   6.117 -1.3578  0.5389 -0.4652
   76SLPC  H14C 6799   0.702   1.677   6.032 -0.3373  0.1672 -1.4362
   76SLPC   C15 6800   0.634   1.419   6.041  0.2100  0.0268  0.3709
   76SLPC  H15A 6801   0.614   1.322   6.085 -1.1028  0.3888  0.6080
   76SLPC  H15B 6802   0.586   1.415   5.944 -1.7459  1.4576  1.2385
   76SLPC  H15C 6803   0.742   1.422   6.034  0.1591  1.5036 -0.0300
   76SLPC   C12 6804   0.645   1.525   6.260  0.0799 -0.7537 -0.1863
   76SLPC  H12A 6805   0.591   1.596   6.322 -0.8974 -0.7008 -1.0734
   76SLPC  H12B 6806   0.745   1.562   6.241  0.1143 -0.4314  0.5550
   76SLPC   C11 6807   0.668   1.392   6.333 -0.1692 -0.2948 -1.1082
   76SLPC  H11A 6808   0.731   1.428   6.417 -0.7209  1.4779 -1.4165
   76SLPC  H11B 6809   0.725   1.329   6.261 -1.7858 -1.4891 -1.4027
   76SLPC     P 6810   0.538   1.173   6.385  0.1547 -0.1838 -0.1220
   76SLPC   O13 6811   0.398   1.140   6.397 -0.1006  0.4004  0.3953
   76SLPC   O14 6812   0.622   1.110   6.282  0.0703  0.2387  0.6838
   76SLPC   O12 6813   0.544   1.332   6.368 -0.5582  0.2203  0.6889
   76SLPC   O11 6814   0.607   1.139   6.522  0.2326  0.2635  0.1389
   76SLPC    C1 6815   0.572   1.196   6.647  0.6920  0.5391  0.1961
   76SLPC    HA 6816   0.572   1.307   6.640 -0.4909  0.6595  1.5901
   76SLPC    HB 6817   0.467   1.182   6.681  0.7197  1.4888  0.7060
   76SLPC    C2 6818   0.662   1.153   6.764  0.3461 -0.4050 -0.2134
   76SLPC    HS 6819   0.749   1.207   6.722 -1.4509  1.1803 -2.1747
   76SLPC   O21 6820   0.659   1.011   6.776  0.7694 -0.0732  0.2172
   76SLPC   C21 6821   0.780   0.955   6.749 -0.0988  0.3686  0.6313
   76SLPC   O22 6822   0.883   1.011   6.711 -0.4414  0.0634 -0.3265
   76SLPC   C22 6823   0.774   0.803   6.784  0.5547 -0.1041  0.8762
   76SLPC   H2R 6824   0.678   0.771   6.830 -0.1193 -0.5123 -0.7509
   76SLPC   H2S 6825   0.778   0.747   6.688  1.2121 -0.1952  0.9522
   76SLPC    C3 6826   0.635   1.218   6.902 -0.8162 -0.0909 -0.5699
   76SLPC    HX 6827   0.538   1.174   6.935 -0.8664 -0.0394 -0.6472
   76SLPC    HY 6828   0.629   1.328   6.889 -0.4805 -0.2062 -1.9013
   76SLPC   O31 6829   0.733   1.173   7.002  0.1605  0.1690  0.4352
   76SLPC   C31 6830   0.843   1.248   6.993  0.1849  0.5757 -0.4923
   76SLPC   O32 6831   0.854   1.348   6.930 -0.0552  0.0090  0.2455
   76SLPC   C32 6832   0.962   1.184   7.062  0.5928  0.3446 -0.5151
   76SLPC   H2X 6833   1.040   1.188   6.982 -0.7800 -2.0493 -2.1074
   76SLPC   H2Y 6834   0.937   1.076   7.074  2.6894 -0.2266 -0.7538
   76SLPC   C23 6835   0.881   0.752   6.884  0.0384 -1.0703  0.0772
   76SLPC   H3R 6836   0.867   0.817   6.973 -0.3471  0.5237 -1.0947
   76SLPC   H3S 6837   0.980   0.775   6.837 -1.2755 -0.1264 -2.4315
   76SLPC   C24 6838   0.876   0.610   6.921 -0.2751 -0.5807  0.3164
   76SLPC   H4R 6839   0.984   0.589   6.941 -0.4614 -0.0265  2.0872
   76SLPC   H4S 6840   0.850   0.545   6.835 -2.3475  0.0357  0.4435
   76SLPC   C25 6841   0.789   0.561   7.040 -0.4861 -0.5632  0.2933
   76SLPC   H5R 6842   0.784   0.450   7.037  4.0985 -1.1003  3.2926
   76SLPC   H5S 6843   0.690   0.604   7.012  0.3960  1.1257 -0.3842
   76SLPC   C26 6844   0.849   0.609   7.167  0.1921 -0.3533  0.1003
   76SLPC   H6R 6845   0.853   0.720   7.171  0.3156 -0.3830  0.8164
   76SLPC   H6S 6846   0.950   0.564   7.172 -0.3496 -1.8009 -1.2682
   76SLPC   C27 6847   0.757   0.561   7.283  0.0722 -0.0742 -0.1352
   76SLPC   H7R 6848   0.742   0.451   7.278  1.9904 -0.3237 -1.6881
   76SLPC   H7S 6849   0.657   0.606   7.268 -1.4723 -3.5089 -1.1033
   76SLPC   C28 6850   0.806   0.616   7.417 -0.7722  0.4354 -0.6131
   76SLPC   H8R 6851   0.916   0.625   7.410 -0.8360  1.1189 -0.8669
   76SLPC   H8S 6852   0.775   0.723   7.427  0.2618  1.0499 -3.2382
   76SLPC   C29 6853   0.763   0.525   7.527  0.1094 -0.1398 -0.4955
   76SLPC   H9R 6854   0.804   0.423   7.526  0.9388  0.1591  0.8943
   76SLPC  C210 6855   0.680   0.565   7.619 -0.6253  0.6786  0.0133
   76SLPC  H10R 6856   0.684   0.496   7.704  2.0049  0.5339 -0.1642
   76SLPC  C211 6857   0.630   0.705   7.652  0.6138 -0.2428  0.6067
   76SLPC  H11R 6858   0.535   0.697   7.709  0.5709  0.6448  0.6719
   76SLPC  H11S 6859   0.609   0.763   7.559 -1.1899 -2.2443 -0.3394
   76SLPC  C212 6860   0.737   0.769   7.732  0.2713  0.7725  0.5847
   76SLPC  H12R 6861   0.823   0.805   7.673 -0.2951  1.6741  0.2938
   76SLPC  C213 6862   0.755   0.793   7.861 -0.5879 -0.4573  0.0253
   76SLPC  H13R 6863   0.850   0.840   7.890  0.0164  0.1110 -2.5851
   76SLPC  C214 6864   0.654   0.760   7.971  0.4545 -0.5521  0.1061
   76SLPC  H14R 6865   0.556   0.726   7.930 -1.2949  0.9258  2.7610
   76SLPC  H14S 6866   0.620   0.854   8.020  0.7545  0.5281 -1.6510
   76SLPC  C215 6867   0.715   0.663   8.071  0.2365  0.6178  0.1572
   76SLPC  H15R 6868   0.645   0.652   8.157 -0.1906 -1.1677 -0.3649
   76SLPC  H15S 6869   0.813   0.703   8.103  0.2180  0.3589  0.5475
   76SLPC  C216 6870   0.731   0.517   8.021  0.6123  0.6711 -0.0842
   76SLPC  H16R 6871   0.780   0.522   7.922 -0.5177  0.8239 -0.6522
   76SLPC  H16S 6872   0.634   0.465   8.006  3.1981 -4.8889 -0.0665
   76SLPC  C217 6873   0.803   0.422   8.126 -0.5106  0.1265 -0.0726
   76SLPC  H17R 6874   0.910   0.452   8.118 -0.4998  2.0407  4.5446
   76SLPC  H17S 6875   0.778   0.318   8.098  0.5771 -0.3643  0.7044
   76SLPC  C218 6876   0.753   0.435   8.270 -0.2640 -0.1047  0.1425
   76SLPC  H18R 6877   0.647   0.407   8.253  0.0966 -0.8234 -1.0317
   76SLPC  H18S 6878   0.749   0.540   8.305  0.9488  0.0749 -0.2112
   76SLPC  H18T 6879   0.791   0.369   8.352 -1.3265  2.2902  2.7457
   76SLPC   C33 6880   1.011   1.251   7.192  0.0031  0.5156  0.3907
   76SLPC   H3X 6881   1.003   1.361   7.177 -2.9416  0.4284  0.7195
   76SLPC   H3Y 6882   1.113   1.212   7.211 -1.0124 -3.9278 -2.0929
   76SLPC   C34 6883   0.933   1.198   7.314 -0.9658 -0.2643 -0.7653
   76SLPC   H4X 6884   0.928   1.087   7.313  1.2279 -0.4396  0.8811
   76SLPC   H4Y 6885   0.830   1.230   7.288 -0.5304  2.7548  0.7763
   76SLPC   C35 6886   0.980   1.253   7.454 -0.5927 -0.6630  0.9299
   76SLPC   H5X 6887   0.972   1.363   7.466  1.0175 -0.1324 -1.8458
   76SLPC   H5Y 6888   1.088   1.228   7.458 -0.0244  0.4619 -3.0075
   76SLPC   C36 6889   0.885   1.191   7.566 -1.0525 -0.1563 -0.2773
   76SLPC   H6X 6890   0.881   1.080   7.566  2.7337 -0.4323 -1.2110
   76SLPC   H6Y 6891   0.782   1.215   7.534 -1.2065 -1.8423 -1.1930
   76SLPC   C37 6892   0.910   1.250   7.707  0.0513  0.2316  0.2158
   76SLPC   H7X 6893   0.840   1.206   7.780  0.6777  0.1701  0.7905
   76SLPC   H7Y 6894   0.888   1.358   7.700  0.8783  0.3615 -0.6864
   76SLPC   C38 6895   1.051   1.238   7.759  0.5782 -0.0380 -0.0609
   76SLPC   H8X 6896   1.132   1.284   7.699  1.8394 -0.6532  1.1257
   76SLPC   H8Y 6897   1.077   1.130   7.758  0.2693 -0.1441  1.0884
   76SLPC   C39 6898   1.070   1.297   7.896 -0.1153  0.2635  0.1846
   76SLPC   H9X 6899   1.037   1.402   7.911  0.4602  0.2109  2.2348
   76SLPC   H9Y 6900   1.180   1.293   7.911  0.5384  1.8930 -3.2295
   76SLPC  C310 6901   1.011   1.214   8.014 -0.2510 -0.0968  0.7214
   76SLPC  H10X 6902   1.054   1.112   8.026 -0.7816 -0.2287  1.5840
   76SLPC  H10Y 6903   0.906   1.198   7.982  0.0872  0.6662 -0.8881
   76SLPC  C311 6904   1.026   1.281   8.151  0.2775 -0.7404  0.3089
   76SLPC  H11X 6905   1.001   1.389   8.136 -2.3767 -1.5821 -2.3526
   76SLPC  H11Y 6906   1.129   1.255   8.184  0.2846 -0.7233  0.2995
   76SLPC  C312 6907   0.914   1.234   8.243 -0.0633 -0.1319  0.1345
   76SLPC  H12X 6908   0.935   1.133   8.282  0.8705  0.0824  0.2053
   76SLPC  H12Y 6909   0.815   1.228   8.193  1.8486 -0.8960 -3.8859
   76SLPC  C313 6910   0.904   1.326   8.364  0.3216 -0.1530  0.7279
   76SLPC  H13X 6911   0.865   1.428   8.344  1.1193  0.6536  2.9705
   76SLPC  H13Y 6912   1.002   1.340   8.414  0.6349  0.6191 -0.0833
   76SLPC  C314 6913   0.812   1.258   8.460  0.6749  1.0875 -0.7074
   76SLPC  H14X 6914   0.826   1.148   8.453 -2.6475  0.4119  0.7972
   76SLPC  H14Y 6915   0.703   1.270   8.439  0.3233 -0.6546 -0.0899
   76SLPC  C315 6916   0.848   1.302   8.603  0.3108  0.1101  0.0145
   76SLPC  H15X 6917   0.837   1.413   8.606  0.0766  0.0782  0.3729
   76SLPC  H15Y 6918   0.956   1.278   8.610  0.7873  2.1712  0.3972
   76SLPC  C316 6919   0.781   1.219   8.715 -0.0666  0.1598  0.1981
   76SLPC  H16X 6920   0.857   1.208   8.795 -0.2824  0.6888  0.4846
   76SLPC  H16Y 6921   0.749   1.121   8.674 -0.7644  0.7885 -0.7954
   76SLPC  C317 6922   0.667   1.285   8.788  0.0288 -0.0076 -0.1880
   76SLPC  H17X 6923   0.585   1.274   8.714  0.2649 -1.3769 -0.2780
   76SLPC  H17Y 6924   0.688   1.392   8.809 -4.0841  0.5034  2.3264
   76SLPC  C318 6925   0.629   1.214   8.920 -0.1835 -0.5399  0.7241
   76SLPC  H18X 6926   0.520   1.208   8.939 -0.4921 -1.4053 -1.0653
   76SLPC  H18Y 6927   0.680   1.262   9.007 -1.0070 -0.4541  1.1641
   76SLPC  H18Z 6928   0.664   1.111   8.897  0.1733 -0.2704 -0.0017
   77SLPC     N 6929   2.352   1.735   6.162 -0.1315 -0.1473 -0.3718
   77SLPC   C13 6930   2.401   1.626   6.069 -0.1781 -0.1360  0.4521
   77SLPC  H13A 6931   2.509   1.625   6.075 -0.2035 -0.9331  0.9202
   77SLPC  H13B 6932   2.357   1.533   6.101  0.3613 -0.0666  1.4246
   77SLPC  H13C 6933   2.378   1.665   5.971  2.1615  3.5634  1.1901
   77SLPC   C14 6934   2.208   1.774   6.144 -0.4568  0.2642  0.4823
   77SLPC  H14A 6935   2.189   1.872   6.187 -2.2743  0.2983 -0.3038
   77SLPC  H14B 6936   2.178   1.792   6.042 -1.0916  2.5288  1.0020
   77SLPC  H14C 6937   2.139   1.709   6.195  0.7592 -0.5908  1.0731
   77SLPC   C15 6938   2.431   1.859   6.122  0.5307  0.3287 -0.0319
   77SLPC  H15A 6939   2.392   1.947   6.170 -1.4083  0.1175 -1.1198
   77SLPC  H15B 6940   2.537   1.845   6.136  0.7412  0.2307 -1.5360
   77SLPC  H15C 6941   2.407   1.882   6.019 -0.7469 -0.9883 -0.0621
   77SLPC   C12 6942   2.381   1.701   6.307  0.2761 -0.5475  0.1981
   77SLPC  H12A 6943   2.335   1.605   6.322  0.5624 -0.5952  0.8063
   77SLPC  H12B 6944   2.335   1.774   6.372  0.1790 -0.0662 -0.3916
   77SLPC   C11 6945   2.529   1.702   6.350  0.2766  0.4238 -0.6342
   77SLPC  H11A 6946   2.549   1.695   6.459 -0.9857  1.2679 -0.3253
   77SLPC  H11B 6947   2.572   1.804   6.336 -1.5813  1.0437 -2.4129
   77SLPC     P 6948   2.579   1.463   6.301 -0.4761  0.2951  0.0289
   77SLPC   O13 6949   2.436   1.418   6.307  0.1818 -0.2958  0.0463
   77SLPC   O14 6950   2.675   1.402   6.212 -0.2986  0.6580  0.7830
   77SLPC   O12 6951   2.598   1.611   6.267  1.2093 -0.1093 -0.4921
   77SLPC   O11 6952   2.648   1.464   6.446  0.1126  0.3302  0.5143
   77SLPC    C1 6953   2.716   1.352   6.501  0.0238  0.2826 -0.1318
   77SLPC    HA 6954   2.672   1.315   6.596  1.5506  0.7024  0.7813
   77SLPC    HB 6955   2.719   1.265   6.431  0.0052  0.9513 -0.9772
   77SLPC    C2 6956   2.867   1.381   6.531  0.3359 -0.0510 -0.5440
   77SLPC    HS 6957   2.927   1.288   6.541  0.7432  0.0668 -1.7640
   77SLPC   O21 6958   2.885   1.461   6.654 -0.5486  0.5049  0.1044
   77SLPC   C21 6959   2.845   1.400   6.765  0.1440 -0.0956 -0.4687
   77SLPC   O22 6960   2.839   1.277   6.777  0.2182  0.5428  0.2379
   77SLPC   C22 6961   2.827   1.494   6.882  0.8750 -0.2957  0.9520
   77SLPC   H2R 6962   2.914   1.564   6.881  0.9297 -0.2964 -1.6083
   77SLPC   H2S 6963   2.737   1.554   6.859 -1.6825 -3.9796  0.4818
   77SLPC    C3 6964   2.936   1.462   6.420  0.5664 -0.2534 -0.3374
   77SLPC    HX 6965   2.917   1.571   6.433  0.0854 -0.2683 -0.9150
   77SLPC    HY 6966   2.899   1.428   6.322  2.3101 -0.3795 -0.9933
   77SLPC   O31 6967   3.081   1.439   6.433  0.6273  0.1212 -0.0428
   77SLPC   C31 6968   3.149   1.516   6.519 -0.5367  0.2630 -0.8178
   77SLPC   O32 6969   3.108   1.618   6.574 -0.0894 -0.2438 -0.6176
   77SLPC   C32 6970   3.291   1.457   6.552 -0.1878  0.2903 -0.4621
   77SLPC   H2X 6971   3.368   1.534   6.530  0.3544 -0.0617  0.1775
   77SLPC   H2Y 6972   3.297   1.373   6.480 -0.6249  0.1951 -0.3916
   77SLPC   C23 6973   2.807   1.433   7.017  0.0713  0.0558  0.0867
   77SLPC   H3R 6974   2.844   1.328   7.017  0.2539  0.1176  0.9987
   77SLPC   H3S 6975   2.699   1.435   7.044 -0.3588  2.8944 -1.4628
   77SLPC   C24 6976   2.875   1.508   7.131 -0.6263  0.8401  0.0481
   77SLPC   H4R 6977   2.857   1.617   7.129 -0.7900  0.8995  2.2912
   77SLPC   H4S 6978   2.984   1.501   7.114 -0.7142  1.6883 -0.8899
   77SLPC   C25 6979   2.855   1.440   7.268 -0.9670 -0.2101  0.8730
   77SLPC   H5R 6980   2.869   1.332   7.248 -0.5522  0.0427 -0.2967
   77SLPC   H5S 6981   2.752   1.454   7.307 -0.3411  3.0423  1.7131
   77SLPC   C26 6982   2.948   1.489   7.373  0.3428  1.3184 -0.1500
   77SLPC   H6R 6983   2.936   1.599   7.381  0.3341  1.7539 -4.3202
   77SLPC   H6S 6984   3.040   1.459   7.318 -1.0855 -0.1124 -1.8808
   77SLPC   C27 6985   2.951   1.411   7.498 -0.0260 -0.1401  0.1818
   77SLPC   H7R 6986   2.976   1.306   7.473  2.4810  0.9729 -2.6919
   77SLPC   H7S 6987   2.858   1.418   7.559  0.8582  1.5691  1.4650
   77SLPC   C28 6988   3.057   1.480   7.591  0.1783  0.1272  0.7024
   77SLPC   H8R 6989   3.040   1.588   7.574  3.0004  0.5509  0.1462
   77SLPC   H8S 6990   3.151   1.439   7.549 -0.3239 -0.5189  0.1802
   77SLPC   C29 6991   3.037   1.449   7.743  0.0904  0.0201 -0.3949
   77SLPC   H9R 6992   3.111   1.379   7.784 -0.9713 -0.5679  0.5709
   77SLPC  C210 6993   2.941   1.505   7.820  0.1524 -0.6256 -0.5077
   77SLPC  H10R 6994   2.944   1.488   7.929 -0.0107  0.8115 -0.2538
   77SLPC  C211 6995   2.835   1.612   7.783 -0.1659  0.3292  0.2094
   77SLPC  H11R 6996   2.742   1.572   7.828 -1.5383  1.7191 -1.2707
   77SLPC  H11S 6997   2.825   1.618   7.672  0.0335 -3.5194 -0.1515
   77SLPC  C212 6998   2.870   1.744   7.846 -0.0919  0.4120  0.6331
   77SLPC  H12R 6999   2.908   1.815   7.771 -0.3193 -0.4155 -0.3017
   77SLPC  C213 7000   2.848   1.792   7.969 -0.8501 -0.2437  0.1486
   77SLPC  H13R 7001   2.905   1.883   7.991 -0.4588 -0.3984 -0.1994
   77SLPC  C214 7002   2.795   1.707   8.080  0.4287  0.1579  0.6680
   77SLPC  H14R 7003   2.768   1.605   8.046  1.0661 -0.0688  0.8330
   77SLPC  H14S 7004   2.699   1.745   8.122 -0.4446  0.0120 -1.0921
   77SLPC  C215 7005   2.903   1.684   8.187  0.0087 -0.2734  0.1575
   77SLPC  H15R 7006   2.928   1.783   8.229 -1.3840  0.0645  0.2266
   77SLPC  H15S 7007   2.987   1.628   8.141  0.7178  0.8849 -0.0075
   77SLPC  C216 7008   2.851   1.603   8.306 -0.3427  0.7719 -0.3673
   77SLPC  H16R 7009   2.844   1.497   8.275  2.1717  1.0075 -1.9445
   77SLPC  H16S 7010   2.742   1.626   8.312 -0.2257  1.0951  1.0412
   77SLPC  C217 7011   2.919   1.638   8.441 -0.2325 -0.2896  0.1888
   77SLPC  H17R 7012   2.897   1.741   8.475 -0.3207 -1.4552  4.1796
   77SLPC  H17S 7013   3.030   1.639   8.431 -0.1768 -3.7486 -1.0524
   77SLPC  C218 7014   2.867   1.549   8.557 -0.1445  0.4731 -0.1122
   77SLPC  H18R 7015   2.938   1.537   8.642  0.3112  1.1229 -0.3959
   77SLPC  H18S 7016   2.849   1.444   8.526  0.8240  0.7303 -1.7000
   77SLPC  H18T 7017   2.777   1.592   8.604  0.0452  1.4816 -0.6405
   77SLPC   C33 7018   3.284   1.414   6.696 -0.3181 -0.1274  0.4535
   77SLPC   H3X 7019   3.259   1.494   6.768 -0.6948  0.8101 -0.6927
   77SLPC   H3Y 7020   3.392   1.392   6.714 -0.4625 -1.0792  0.2276
   77SLPC   C34 7021   3.212   1.290   6.740  0.5486  0.1447 -0.0412
   77SLPC   H4X 7022   3.241   1.199   6.683  0.4841 -0.7441  1.2981
   77SLPC   H4Y 7023   3.101   1.298   6.735  0.6880  3.0329 -0.1512
   77SLPC   C35 7024   3.251   1.267   6.886 -0.5710 -0.7431 -0.2771
   77SLPC   H5X 7025   3.218   1.358   6.941  5.2111  2.1382 -0.8791
   77SLPC   H5Y 7026   3.362   1.270   6.893 -0.6518  1.6958  0.8063
   77SLPC   C36 7027   3.203   1.133   6.951 -0.5397  0.2284  0.6092
   77SLPC   H6X 7028   3.293   1.067   6.946 -0.0482  0.8270  1.2961
   77SLPC   H6Y 7029   3.119   1.095   6.890 -1.1433  0.9835  0.9673
   77SLPC   C37 7030   3.166   1.147   7.100 -0.2355  0.1962  0.6397
   77SLPC   H7X 7031   3.094   1.230   7.120  1.1581  1.0453  2.4463
   77SLPC   H7Y 7032   3.254   1.164   7.165  0.5514  0.2912 -0.4287
   77SLPC   C38 7033   3.097   1.012   7.148  0.3108 -0.6178  0.1672
   77SLPC   H8X 7034   3.169   0.928   7.156 -0.7789 -1.4950  1.0693
   77SLPC   H8Y 7035   3.015   0.976   7.083  0.2652 -2.5689  1.2197
   77SLPC   C39 7036   3.024   1.026   7.280 -0.0336 -0.3587 -0.3537
   77SLPC   H9X 7037   2.956   0.941   7.301 -1.0427  0.5977  0.3494
   77SLPC   H9Y 7038   2.960   1.117   7.271  1.0505  0.4767  0.1745
   77SLPC  C310 7039   3.126   1.032   7.401 -0.5902 -0.5747 -0.2171
   77SLPC  H10X 7040   3.202   1.113   7.403 -0.2333 -0.8946 -0.6025
   77SLPC  H10Y 7041   3.176   0.933   7.389 -1.7428 -1.2078  0.0408
   77SLPC  C311 7042   3.062   1.029   7.535  0.6807 -0.4258 -0.7154
   77SLPC  H11X 7043   2.998   0.938   7.538  0.9558 -0.5992  1.2479
   77SLPC  H11Y 7044   2.999   1.120   7.532 -0.3126 -1.1124 -1.0540
   77SLPC  C312 7045   3.171   1.036   7.648  0.0717 -0.6612  0.0950
   77SLPC  H12X 7046   3.240   1.118   7.618  0.6810 -1.2827 -0.2357
   77SLPC  H12Y 7047   3.226   0.939   7.645 -0.2918 -0.9038  0.9460
   77SLPC  C313 7048   3.118   1.061   7.793 -0.8802  0.4554 -0.8234
   77SLPC  H13X 7049   3.044   0.979   7.807  0.8628 -1.1223 -0.4824
   77SLPC  H13Y 7050   3.074   1.163   7.799  2.4641  1.9244  0.9758
   77SLPC  C314 7051   3.228   1.048   7.900 -0.3234  0.0826 -0.0707
   77SLPC  H14X 7052   3.294   1.135   7.919  1.1725 -1.1103  0.4456
   77SLPC  H14Y 7053   3.286   0.969   7.847  0.9052 -0.2663  1.6839
   77SLPC  C315 7054   3.175   0.973   8.025  0.0564  0.0613 -0.2458
   77SLPC  H15X 7055   3.257   0.914   8.071 -2.2156 -2.2537  1.1181
   77SLPC  H15Y 7056   3.091   0.908   7.993  1.4285 -0.9406 -1.9349
   77SLPC  C316 7057   3.135   1.058   8.139  0.3654 -0.2214  0.4649
   77SLPC  H16X 7058   3.223   1.122   8.160  0.3408 -0.2642  0.7021
   77SLPC  H16Y 7059   3.113   0.995   8.228  3.8469 -0.7282  1.1006
   77SLPC  C317 7060   3.006   1.139   8.112 -0.3333  0.3923  0.0661
   77SLPC  H17X 7061   2.916   1.076   8.095 -0.8039  1.5681 -2.2278
   77SLPC  H17Y 7062   3.031   1.187   8.015  1.2147  1.9619  1.1721
   77SLPC  C318 7063   2.971   1.244   8.214 -0.0280  0.1454 -0.7576
   77SLPC  H18X 7064   2.871   1.280   8.186 -1.3700 -1.8889  1.0461
   77SLPC  H18Y 7065   3.049   1.323   8.219  0.4632 -0.2727 -1.6657
   77SLPC  H18Z 7066   2.961   1.198   8.315 -1.0979 -0.6319 -1.1960
   78SLPC     N 7067   5.388   1.363   6.278 -0.5941  0.0400 -0.5073
   78SLPC   C13 7068   5.414   1.244   6.367 -0.4779  0.0382  0.3970
   78SLPC  H13A 7069   5.390   1.279   6.467  0.5937  0.7075  0.4345
   78SLPC  H13B 7070   5.350   1.161   6.341 -0.4404  0.1399 -0.0243
   78SLPC  H13C 7071   5.517   1.213   6.364 -0.3877  0.3997 -0.4188
   78SLPC   C14 7072   5.452   1.351   6.148 -0.1862  0.9571 -0.1567
   78SLPC  H14A 7073   5.557   1.329   6.155 -0.2624  0.0227 -1.5664
   78SLPC  H14B 7074   5.395   1.292   6.078 -2.3317  1.3136  1.1940
   78SLPC  H14C 7075   5.461   1.447   6.099  0.0444  1.2675  0.4834
   78SLPC   C15 7076   5.434   1.482   6.356 -0.2110  0.5204 -0.1457
   78SLPC  H15A 7077   5.383   1.479   6.451  0.0941  0.6793  0.0239
   78SLPC  H15B 7078   5.540   1.476   6.374  0.2163 -0.7796 -2.6379
   78SLPC  H15C 7079   5.393   1.568   6.305  0.9022  0.3112 -1.4422
   78SLPC   C12 7080   5.234   1.379   6.252 -0.7716  1.0054 -0.0351
   78SLPC  H12A 7081   5.178   1.385   6.344  0.3026 -0.8313  0.8104
   78SLPC  H12B 7082   5.204   1.291   6.197  1.6804 -0.4824  0.8567
   78SLPC   C11 7083   5.175   1.500   6.158  0.1587 -0.0068  0.2335
   78SLPC  H11A 7084   5.067   1.476   6.163  0.5697 -1.8474  1.2268
   78SLPC  H11B 7085   5.212   1.491   6.054  0.4979  2.1859  0.1206
   78SLPC     P 7086   5.135   1.704   6.320  0.0652  0.1518  0.2614
   78SLPC   O13 7087   5.206   1.827   6.347  0.0946 -0.2162 -0.4800
   78SLPC   O14 7088   4.993   1.725   6.288  0.1831 -0.0134 -0.1064
   78SLPC   O12 7089   5.209   1.635   6.204  0.3314 -0.0779 -0.1195
   78SLPC   O11 7090   5.142   1.600   6.437 -0.5374 -0.2920  0.1426
   78SLPC    C1 7091   5.081   1.618   6.561  0.2021  0.5812  0.7632
   78SLPC    HA 7092   4.987   1.677   6.557 -0.2765 -0.1887  0.6497
   78SLPC    HB 7093   5.064   1.520   6.611  0.3902  1.1471  1.9813
   78SLPC    C2 7094   5.163   1.700   6.656 -0.8090 -0.5079 -0.1591
   78SLPC    HS 7095   5.184   1.799   6.609 -1.5883 -1.4793 -2.7409
   78SLPC   O21 7096   5.281   1.624   6.682 -0.6949  0.2416 -0.3476
   78SLPC   C21 7097   5.391   1.689   6.720 -0.1119 -0.7534  0.4687
   78SLPC   O22 7098   5.404   1.811   6.728  0.1311  0.2093 -0.2063
   78SLPC   C22 7099   5.504   1.586   6.735 -0.0398  0.4076 -0.4871
   78SLPC   H2R 7100   5.482   1.502   6.667 -0.4502  0.2052 -0.1090
   78SLPC   H2S 7101   5.588   1.653   6.706  0.2001 -0.1632 -1.1206
   78SLPC    C3 7102   5.075   1.719   6.783  0.2330 -0.2464  0.2302
   78SLPC    HX 7103   5.038   1.618   6.811 -1.0748 -0.4491 -1.9499
   78SLPC    HY 7104   4.974   1.755   6.753  1.1364  1.3135 -1.0752
   78SLPC   O31 7105   5.131   1.791   6.901  0.2328  0.5422 -0.0724
   78SLPC   C31 7106   5.135   1.919   6.868 -0.3703 -0.0022 -0.4985
   78SLPC   O32 7107   5.092   1.973   6.768  0.2570  0.8366 -0.5699
   78SLPC   C32 7108   5.220   1.996   6.978  0.2405 -0.3591  0.0830
   78SLPC   H2X 7109   5.324   1.959   6.962 -0.0704 -1.4040  0.4573
   78SLPC   H2Y 7110   5.179   1.976   7.079 -0.9364  0.0444 -0.3000
   78SLPC   C23 7111   5.517   1.532   6.884  0.3968  0.0428  0.5650
   78SLPC   H3R 7112   5.528   1.617   6.955 -0.9094 -0.2773  1.1818
   78SLPC   H3S 7113   5.617   1.483   6.887  0.5257  0.3350  1.1865
   78SLPC   C24 7114   5.402   1.437   6.923 -0.0556 -0.4571 -0.5436
   78SLPC   H4R 7115   5.379   1.385   6.827 -2.9393 -1.4776  0.5792
   78SLPC   H4S 7116   5.324   1.509   6.957  2.7194  2.9084 -0.8101
   78SLPC   C25 7117   5.447   1.350   7.036  0.2202 -0.7171 -0.3027
   78SLPC   H5R 7118   5.531   1.284   7.007 -0.2686 -1.2589 -0.5109
   78SLPC   H5S 7119   5.358   1.289   7.063 -1.0920  0.1058 -2.4744
   78SLPC   C26 7120   5.493   1.439   7.153  0.2687 -0.3507  0.0298
   78SLPC   H6R 7121   5.423   1.525   7.166  0.9076  0.0222  1.0931
   78SLPC   H6S 7122   5.591   1.485   7.129 -1.2537  1.9936 -2.2013
   78SLPC   C27 7123   5.502   1.354   7.282 -0.2257 -0.7890  0.2479
   78SLPC   H7R 7124   5.585   1.281   7.272  1.6717  1.0401  1.7279
   78SLPC   H7S 7125   5.407   1.298   7.299 -0.6764 -0.1292 -0.0539
   78SLPC   C28 7126   5.537   1.441   7.407  0.1901 -0.2354 -0.1785
   78SLPC   H8R 7127   5.470   1.530   7.416 -0.6001 -0.7021 -1.1787
   78SLPC   H8S 7128   5.632   1.489   7.376  1.4296 -0.2420  3.2104
   78SLPC   C29 7129   5.547   1.368   7.539  0.7449 -0.4568 -0.0879
   78SLPC   H9R 7130   5.579   1.263   7.529 -0.7189 -0.9743  0.4573
   78SLPC  C210 7131   5.515   1.414   7.661 -0.2414  0.3434  0.9266
   78SLPC  H10R 7132   5.522   1.340   7.743  1.9817  1.4094  1.7771
   78SLPC  C211 7133   5.459   1.550   7.696 -0.0533  0.7354 -0.2320
   78SLPC  H11R 7134   5.353   1.532   7.724  0.3524 -4.8886 -1.1800
   78SLPC  H11S 7135   5.439   1.617   7.610 -1.2928  2.0940  1.0610
   78SLPC  C212 7136   5.538   1.626   7.799 -0.0235 -0.5406  0.0407
   78SLPC  H12R 7137   5.594   1.710   7.755 -4.1205  2.7195  0.3323
   78SLPC  C213 7138   5.542   1.588   7.930 -0.8936 -0.3339  0.4235
   78SLPC  H13R 7139   5.611   1.651   7.989  0.3704  0.3684 -1.6869
   78SLPC  C214 7140   5.477   1.473   8.002 -0.1353 -0.5528 -0.9672
   78SLPC  H14R 7141   5.562   1.417   8.046  1.5174  2.0120 -0.7117
   78SLPC  H14S 7142   5.421   1.413   7.927  0.7006  0.0598 -2.1197
   78SLPC  C215 7143   5.375   1.506   8.114 -0.0955 -0.0554  0.7414
   78SLPC  H15R 7144   5.346   1.416   8.173  0.9647 -0.9781 -0.1135
   78SLPC  H15S 7145   5.284   1.548   8.065 -2.3181  0.4461  4.8626
   78SLPC  C216 7146   5.424   1.622   8.211  0.1704  0.4173  0.0772
   78SLPC  H16R 7147   5.435   1.714   8.149 -2.7716 -1.0359 -2.8822
   78SLPC  H16S 7148   5.525   1.598   8.251  0.7319 -2.0056 -2.5401
   78SLPC  C217 7149   5.319   1.634   8.329  0.0786 -1.1726  0.7151
   78SLPC  H17R 7150   5.304   1.529   8.364  0.5264 -0.7243  2.3601
   78SLPC  H17S 7151   5.220   1.680   8.308  1.0411  0.9932  0.6521
   78SLPC  C218 7152   5.369   1.717   8.448 -0.2762 -0.2262 -0.1546
   78SLPC  H18R 7153   5.385   1.817   8.402  0.1585 -0.2127  0.0259
   78SLPC  H18S 7154   5.460   1.673   8.493 -1.4138 -3.7227 -1.0026
   78SLPC  H18T 7155   5.284   1.724   8.520 -0.1793  0.9486 -0.1370
   78SLPC   C33 7156   5.201   2.152   6.949 -1.0336 -0.2129 -0.1802
   78SLPC   H3X 7157   5.092   2.177   6.945 -0.9615  0.0094 -1.4605
   78SLPC   H3Y 7158   5.231   2.169   6.843 -0.2383  1.3524  0.2623
   78SLPC   C34 7159   5.301   2.241   7.033 -0.2295 -0.1817  0.0712
   78SLPC   H4X 7160   5.407   2.209   7.021 -0.1547  0.6989 -1.9354
   78SLPC   H4Y 7161   5.260   2.218   7.134 -0.1917 -1.1178 -0.1176
   78SLPC   C35 7162   5.308   2.394   7.009 -0.1513 -0.0550 -1.0100
   78SLPC   H5X 7163   5.208   2.444   7.005  0.5322  1.6280  1.0785
   78SLPC   H5Y 7164   5.349   2.408   6.907 -3.3027  1.3039 -2.2512
   78SLPC   C36 7165   5.400   2.465   7.104  0.4189  0.0752  0.2066
   78SLPC   H6X 7166   5.413   2.573   7.082  0.7863 -0.3886 -2.1479
   78SLPC   H6Y 7167   5.497   2.412   7.089  0.0627 -0.1614 -1.6015
   78SLPC   C37 7168   5.358   2.447   7.255 -1.3420 -0.1965  0.7879
   78SLPC   H7X 7169   5.382   2.346   7.297 -0.0736 -0.0697  0.4123
   78SLPC   H7Y 7170   5.248   2.459   7.265 -1.6989 -1.4112 -1.2308
   78SLPC   C38 7171   5.432   2.545   7.352  0.0601  0.4761  0.0638
   78SLPC   H8X 7172   5.410   2.651   7.326  0.2885  1.2113  2.6402
   78SLPC   H8Y 7173   5.534   2.544   7.309 -0.3394  2.5979 -1.1119
   78SLPC   C39 7174   5.401   2.517   7.496 -0.4885  0.5437 -0.6682
   78SLPC   H9X 7175   5.412   2.410   7.522  2.2392  0.5898 -1.3728
   78SLPC   H9Y 7176   5.299   2.556   7.519  0.1374  2.1962 -0.5573
   78SLPC  C310 7177   5.485   2.605   7.587 -0.0764 -0.0276  0.8923
   78SLPC  H10X 7178   5.466   2.713   7.567 -0.6306 -0.6801 -3.0856
   78SLPC  H10Y 7179   5.592   2.594   7.558 -0.1546  3.9067 -1.6326
   78SLPC  C311 7180   5.455   2.579   7.737 -0.3610  0.3356  0.6019
   78SLPC  H11X 7181   5.436   2.471   7.747  2.6532 -0.3488 -0.0785
   78SLPC  H11Y 7182   5.365   2.639   7.762 -2.4648 -2.4340  0.0296
   78SLPC  C312 7183   5.571   2.634   7.819 -0.4203 -0.4375  0.2452
   78SLPC  H12X 7184   5.591   2.738   7.788  2.9490 -1.0510 -0.0635
   78SLPC  H12Y 7185   5.654   2.562   7.800 -1.4989 -1.1408 -2.1945
   78SLPC  C313 7186   5.541   2.636   7.967 -0.3260 -0.6069 -0.1592
   78SLPC  H13X 7187   5.543   2.532   8.008  1.4563 -0.7588 -0.5199
   78SLPC  H13Y 7188   5.442   2.676   7.996 -0.7579 -1.2626 -0.7016
   78SLPC  C314 7189   5.641   2.711   8.056  0.0253  0.7843 -0.4060
   78SLPC  H14X 7190   5.658   2.811   8.010  1.9908  0.4631 -0.4630
   78SLPC  H14Y 7191   5.739   2.659   8.053  0.9843  2.4949 -3.1049
   78SLPC  C315 7192   5.591   2.728   8.205 -0.3961 -0.0983 -0.3353
   78SLPC  H15X 7193   5.503   2.795   8.199  0.0410  0.3718 -1.9743
   78SLPC  H15Y 7194   5.663   2.785   8.267  0.2338 -0.1308 -1.0201
   78SLPC  C316 7195   5.542   2.599   8.272  0.2181 -0.2930 -0.6155
   78SLPC  H16X 7196   5.626   2.526   8.261  3.4521  2.9509  0.3284
   78SLPC  H16Y 7197   5.444   2.577   8.225 -0.3635  0.5319  0.1729
   78SLPC  C317 7198   5.525   2.610   8.419  0.1000  0.4625 -0.4340
   78SLPC  H17X 7199   5.420   2.647   8.422 -0.3771 -0.7876 -1.0695
   78SLPC  H17Y 7200   5.593   2.691   8.453 -0.4603  1.4416 -1.5703
   78SLPC  C318 7201   5.537   2.478   8.497  0.5362  0.4824 -0.2592
   78SLPC  H18X 7202   5.528   2.494   8.607  4.2652 -0.7522  0.3866
   78SLPC  H18Y 7203   5.638   2.432   8.494  0.7581  0.8398  0.8901
   78SLPC  H18Z 7204   5.455   2.411   8.465  1.2650 -0.8378  0.5252
   79SLPC     N 7205   2.089   3.657   6.082 -1.0481 -0.1362 -0.0010
   79SLPC   C13 7206   2.021   3.718   5.964 -0.1235 -0.2370  0.2669
   79SLPC  H13A 7207   2.084   3.729   5.877 -2.1093  1.5265 -1.0324
   79SLPC  H13B 7208   1.941   3.653   5.932 -0.5762  1.6741 -2.9321
   79SLPC  H13C 7209   1.981   3.810   6.004 -3.7653 -1.6663  0.3087
   79SLPC   C14 7210   2.202   3.757   6.108 -0.6711  0.2168  0.0515
   79SLPC  H14A 7211   2.158   3.856   6.107 -0.1130  0.4739 -1.2662
   79SLPC  H14B 7212   2.235   3.736   6.209  0.2340  0.8139 -0.0971
   79SLPC  H14C 7213   2.284   3.741   6.039  0.7058  0.0393  1.6669
   79SLPC   C15 7214   2.153   3.524   6.055 -0.2620 -0.0009  0.1240
   79SLPC  H15A 7215   2.081   3.444   6.044 -1.0236  0.2788  2.5475
   79SLPC  H15B 7216   2.198   3.531   5.957  0.8071  1.9152  0.7101
   79SLPC  H15C 7217   2.226   3.499   6.131 -0.6232 -0.6462  0.2648
   79SLPC   C12 7218   1.991   3.651   6.195 -0.1470 -0.3826 -0.1292
   79SLPC  H12A 7219   2.035   3.595   6.277  1.0829  2.4648  1.3061
   79SLPC  H12B 7220   1.916   3.584   6.155 -1.1634  1.5722 -1.6660
   79SLPC   C11 7221   1.935   3.786   6.248 -0.1802 -0.2383  0.0494
   79SLPC  H11A 7222   2.019   3.849   6.285  0.0028  0.7391 -1.8968
   79SLPC  H11B 7223   1.867   3.756   6.331  0.2465  1.5252  1.0725
   79SLPC     P 7224   1.831   4.014   6.167 -0.0594 -0.2962  0.2219
   79SLPC   O13 7225   1.955   4.093   6.201  0.1072  0.4886 -0.1237
   79SLPC   O14 7226   1.750   4.063   6.052  0.2187  0.2000  0.0811
   79SLPC   O12 7227   1.861   3.857   6.153  0.0715 -0.0386  0.7041
   79SLPC   O11 7228   1.742   4.017   6.297  0.1698 -0.6074 -0.4193
   79SLPC    C1 7229   1.634   3.916   6.293 -0.1473  0.5781  0.8881
   79SLPC    HA 7230   1.582   3.898   6.197  3.1599  0.2861 -1.0317
   79SLPC    HB 7231   1.676   3.818   6.325  0.1634  0.4552  0.1179
   79SLPC    C2 7232   1.526   3.947   6.409  0.0334  0.3684  0.2792
   79SLPC    HS 7233   1.469   4.029   6.361  0.3096  0.3267 -0.1257
   79SLPC   O21 7234   1.600   3.993   6.527  0.6369  0.3690  0.9691
   79SLPC   C21 7235   1.531   4.053   6.614 -0.2613  0.0789 -0.0194
   79SLPC   O22 7236   1.410   4.075   6.607 -0.0566  0.5384  0.8090
   79SLPC   C22 7237   1.617   4.099   6.732  0.2587 -0.7989 -0.1351
   79SLPC   H2R 7238   1.708   4.146   6.690 -0.3807  0.1061 -0.5615
   79SLPC   H2S 7239   1.571   4.175   6.799  0.5398 -1.7878  1.2289
   79SLPC    C3 7240   1.426   3.832   6.430  0.0135  0.2258  0.5550
   79SLPC    HX 7241   1.387   3.797   6.331 -0.7873  0.9838  0.5853
   79SLPC    HY 7242   1.337   3.868   6.486  1.8141 -0.3252  3.9918
   79SLPC   O31 7243   1.496   3.721   6.486 -0.9164  0.8432 -0.4482
   79SLPC   C31 7244   1.490   3.702   6.615  0.0919 -0.2844  0.1115
   79SLPC   O32 7245   1.414   3.757   6.693 -0.3475 -0.4519 -0.3656
   79SLPC   C32 7246   1.602   3.600   6.648 -0.0053 -0.0345 -0.4038
   79SLPC   H2X 7247   1.701   3.649   6.643  0.4134 -0.5740  1.4779
   79SLPC   H2Y 7248   1.585   3.519   6.574 -0.7378 -2.7949  2.5063
   79SLPC   C23 7249   1.668   3.989   6.822 -0.3012 -0.1605  0.3030
   79SLPC   H3R 7250   1.713   3.915   6.753  0.7770 -0.4610  1.3056
   79SLPC   H3S 7251   1.593   3.939   6.887  1.0895 -0.1124  2.0188
   79SLPC   C24 7252   1.775   4.046   6.912  0.0113  0.4189 -0.1705
   79SLPC   H4R 7253   1.742   4.143   6.955  0.8337  0.7631 -0.3100
   79SLPC   H4S 7254   1.867   4.076   6.858  0.2231  0.9397  0.4800
   79SLPC   C25 7255   1.824   3.958   7.030 -0.7401  0.0537 -0.5477
   79SLPC   H5R 7256   1.836   3.858   6.984  0.2775  0.2563 -0.7455
   79SLPC   H5S 7257   1.752   3.935   7.111  0.0186 -0.6901 -0.0651
   79SLPC   C26 7258   1.969   4.004   7.078  0.0790  0.4188 -0.3088
   79SLPC   H6R 7259   1.963   4.103   7.128  0.8032  0.3229 -0.0242
   79SLPC   H6S 7260   2.032   4.005   6.986  0.5058  3.5763 -0.0939
   79SLPC   C27 7261   2.025   3.910   7.181  0.0312  0.1562  0.4785
   79SLPC   H7R 7262   2.035   3.808   7.138  0.0654 -0.6469  2.2962
   79SLPC   H7S 7263   1.946   3.906   7.259 -0.5476  2.8203  0.1320
   79SLPC   C28 7264   2.162   3.953   7.250  0.3444 -0.6479 -0.2938
   79SLPC   H8R 7265   2.236   3.987   7.175  0.5422  1.3128  0.7336
   79SLPC   H8S 7266   2.206   3.863   7.299  3.5805  1.9961  2.0362
   79SLPC   C29 7267   2.130   4.052   7.360 -0.2564 -0.3565 -1.0407
   79SLPC   H9R 7268   2.069   4.142   7.348 -1.2470 -0.9444 -0.5375
   79SLPC  C210 7269   2.168   4.039   7.487 -0.3670  0.4410  0.0254
   79SLPC  H10R 7270   2.148   4.116   7.563  2.2746 -0.7427  2.1218
   79SLPC  C211 7271   2.246   3.928   7.550 -0.1860 -0.0771  0.0109
   79SLPC  H11R 7272   2.334   3.977   7.598 -1.6254  1.2276  1.4104
   79SLPC  H11S 7273   2.277   3.851   7.476 -0.5215 -2.6174  2.3598
   79SLPC  C212 7274   2.160   3.865   7.649 -0.0319 -0.7141  0.2224
   79SLPC  H12R 7275   2.078   3.803   7.610 -0.6106  0.0374  0.2284
   79SLPC  C213 7276   2.160   3.887   7.780  0.0072 -0.1985 -0.3238
   79SLPC  H13R 7277   2.094   3.826   7.842  0.0782 -1.4015 -1.3905
   79SLPC  C214 7278   2.255   3.967   7.868  0.2348 -0.1198 -0.5204
   79SLPC  H14R 7279   2.201   4.047   7.923 -2.4489 -2.1816  0.0531
   79SLPC  H14S 7280   2.337   4.011   7.807  2.7879  0.7090  3.1661
   79SLPC  C215 7281   2.338   3.874   7.957 -0.1530  0.2039 -0.8658
   79SLPC  H15R 7282   2.429   3.931   7.986 -0.5794  0.1774  0.6151
   79SLPC  H15S 7283   2.376   3.787   7.899  0.4041 -0.9572  1.1169
   79SLPC  C216 7284   2.257   3.823   8.077 -0.3571  0.1892 -0.4359
   79SLPC  H16R 7285   2.187   3.739   8.058  1.2805 -1.3340  0.0277
   79SLPC  H16S 7286   2.206   3.905   8.132 -0.3364  0.8988 -1.4368
   79SLPC  C217 7287   2.350   3.758   8.190 -0.3617 -0.9953  0.0121
   79SLPC  H17R 7288   2.421   3.837   8.223 -3.2803  1.8089  0.0783
   79SLPC  H17S 7289   2.410   3.678   8.142 -2.1100 -1.0046 -2.3587
   79SLPC  C218 7290   2.280   3.700   8.311 -0.3114  0.6323  0.3027
   79SLPC  H18R 7291   2.223   3.607   8.288 -0.2890  0.1749  1.9772
   79SLPC  H18S 7292   2.207   3.775   8.350  2.1634  2.4327  1.7433
   79SLPC  H18T 7293   2.365   3.676   8.378  1.9682  0.1233 -2.5700
   79SLPC   C33 7294   1.582   3.540   6.786 -0.2822  0.1370 -0.0642
   79SLPC   H3X 7295   1.652   3.455   6.800 -0.8967 -0.3581  0.0440
   79SLPC   H3Y 7296   1.478   3.506   6.807 -0.7289  0.0580 -2.2098
   79SLPC   C34 7297   1.629   3.637   6.897  0.2597  0.2426 -0.2811
   79SLPC   H4X 7298   1.553   3.717   6.904 -0.7020 -0.7050  0.4695
   79SLPC   H4Y 7299   1.730   3.664   6.860 -0.9413  2.2832 -2.3040
   79SLPC   C35 7300   1.638   3.562   7.033 -0.0640 -0.1534 -0.5182
   79SLPC   H5X 7301   1.703   3.474   7.016 -1.3444 -1.2604  0.0367
   79SLPC   H5Y 7302   1.535   3.526   7.057 -0.0195 -1.0512 -1.6219
   79SLPC   C36 7303   1.688   3.656   7.147  0.0593 -0.4760 -0.5432
   79SLPC   H6X 7304   1.633   3.751   7.134  0.3343  0.1286  2.1028
   79SLPC   H6Y 7305   1.797   3.680   7.150  0.1486 -0.7361  3.5450
   79SLPC   C37 7306   1.652   3.602   7.285  0.1505  0.3671 -0.5248
   79SLPC   H7X 7307   1.733   3.527   7.301  1.7217  1.5891 -2.2369
   79SLPC   H7Y 7308   1.548   3.566   7.273  0.1212  0.4711 -0.5868
   79SLPC   C38 7309   1.677   3.706   7.393  0.4210  0.3611  0.0377
   79SLPC   H8X 7310   1.607   3.790   7.372  1.4169  1.2098  0.0197
   79SLPC   H8Y 7311   1.775   3.759   7.393  1.2886 -1.1203  2.0573
   79SLPC   C39 7312   1.669   3.646   7.530  0.4968  0.0742  0.5014
   79SLPC   H9X 7313   1.733   3.555   7.536  1.1444  0.4712 -0.2312
   79SLPC   H9Y 7314   1.568   3.606   7.552 -0.1264  2.3940  2.2770
   79SLPC  C310 7315   1.709   3.748   7.642 -0.4477 -0.1417 -0.0769
   79SLPC  H10X 7316   1.632   3.825   7.665  0.4453  0.6130  0.5073
   79SLPC  H10Y 7317   1.801   3.803   7.611 -0.7459  1.7907  2.2093
   79SLPC  C311 7318   1.730   3.674   7.777 -0.4549 -0.5058  0.0326
   79SLPC  H11X 7319   1.804   3.595   7.753  2.7044  2.0638  0.6796
   79SLPC  H11Y 7320   1.633   3.629   7.810 -1.9005  1.5695 -1.1484
   79SLPC  C312 7321   1.786   3.770   7.891 -0.5931  0.1239 -0.8748
   79SLPC  H12X 7322   1.712   3.831   7.946  1.4520  2.0428 -0.0978
   79SLPC  H12Y 7323   1.853   3.850   7.854  3.3996 -1.6516  1.8051
   79SLPC  C313 7324   1.850   3.698   8.006  0.3015 -0.6192  0.0207
   79SLPC  H13X 7325   1.940   3.758   8.030 -0.0166  0.6799 -1.7680
   79SLPC  H13Y 7326   1.874   3.594   7.977 -0.7274  0.1201 -4.1082
   79SLPC  C314 7327   1.758   3.698   8.130 -0.2722 -0.5584 -0.0314
   79SLPC  H14X 7328   1.665   3.664   8.079 -1.5195  2.1628  0.2309
   79SLPC  H14Y 7329   1.738   3.803   8.161 -2.3953 -0.6880 -0.7806
   79SLPC  C315 7330   1.812   3.622   8.255  0.4986  0.2328 -0.8872
   79SLPC  H15X 7331   1.918   3.654   8.260  0.6002 -0.2347  0.1625
   79SLPC  H15Y 7332   1.807   3.516   8.222 -0.5281 -0.0172  0.0049
   79SLPC  C316 7333   1.733   3.650   8.384 -0.5752 -0.3789  0.5498
   79SLPC  H16X 7334   1.732   3.760   8.403  2.0644 -0.2559  0.2536
   79SLPC  H16Y 7335   1.778   3.593   8.468 -1.4747  0.1140  1.3962
   79SLPC  C317 7336   1.585   3.605   8.374 -0.5364  0.1542 -0.1028
   79SLPC  H17X 7337   1.561   3.502   8.343 -0.7323  0.1252  0.1455
   79SLPC  H17Y 7338   1.524   3.676   8.314  0.2682  0.0061 -1.1190
   79SLPC  C318 7339   1.520   3.617   8.515 -0.1201  0.1779  0.2470
   79SLPC  H18X 7340   1.562   3.701   8.575  2.0915 -0.8575  0.2328
   79SLPC  H18Y 7341   1.525   3.526   8.577 -3.8424 -0.2233  0.1871
   79SLPC  H18Z 7342   1.413   3.637   8.494 -0.7257 -0.2136  2.6924
   80SLPC     N 7343   4.061   0.479   6.069  0.4424 -0.7334  0.0777
   80SLPC   C13 7344   4.161   0.578   6.101  0.5214  1.0827 -0.2427
   80SLPC  H13A 7345   4.232   0.598   6.022  2.1480 -1.7978  0.3336
   80SLPC  H13B 7346   4.106   0.668   6.126 -2.6747 -0.5694 -0.7858
   80SLPC  H13C 7347   4.219   0.547   6.187 -0.3011  1.2786  0.3977
   80SLPC   C14 7348   4.131   0.355   6.029  0.0211 -0.1935 -0.0736
   80SLPC  H14A 7349   4.056   0.283   6.002 -0.3284 -0.9887  2.7313
   80SLPC  H14B 7350   4.210   0.355   5.955 -1.4348 -0.0084 -1.6822
   80SLPC  H14C 7351   4.172   0.311   6.119 -1.4844 -2.3030 -0.3585
   80SLPC   C15 7352   3.991   0.528   5.953  0.7880 -0.4752  0.6733
   80SLPC  H15A 7353   3.930   0.616   5.970  2.0763  0.4336  0.6890
   80SLPC  H15B 7354   4.060   0.560   5.876  0.6790 -0.9240  0.3815
   80SLPC  H15C 7355   3.920   0.456   5.914  0.1305  1.0716 -1.1882
   80SLPC   C12 7356   3.965   0.450   6.180 -0.4725  0.6293  0.3051
   80SLPC  H12A 7357   3.876   0.396   6.149  0.3335 -0.7193  0.2504
   80SLPC  H12B 7358   3.923   0.545   6.210 -0.5177 -0.2432  3.2204
   80SLPC   C11 7359   4.013   0.383   6.309 -0.0123 -0.2840 -0.3551
   80SLPC  H11A 7360   4.030   0.273   6.301  3.0106  0.1001 -0.5173
   80SLPC  H11B 7361   3.927   0.395   6.378 -1.1266 -0.4173 -1.6792
   80SLPC     P 7362   4.139   0.566   6.470 -0.2732  0.0284 -0.5591
   80SLPC   O13 7363   4.279   0.598   6.486 -0.1717 -0.3803  0.1090
   80SLPC   O14 7364   4.037   0.668   6.438  0.2052 -1.0810  0.6348
   80SLPC   O12 7365   4.131   0.448   6.358  0.3993  0.3036  0.1630
   80SLPC   O11 7366   4.094   0.485   6.598  0.2364 -0.1526  0.0143
   80SLPC    C1 7367   4.166   0.369   6.650 -0.1568 -0.8005  0.1342
   80SLPC    HA 7368   4.098   0.282   6.662  0.4660 -1.0513  2.0212
   80SLPC    HB 7369   4.242   0.322   6.584  1.0467 -1.4013  1.8979
   80SLPC    C2 7370   4.248   0.391   6.779  0.2191 -0.3635  0.8386
   80SLPC    HS 7371   4.293   0.295   6.810 -0.5598 -0.1837  2.6436
   80SLPC   O21 7372   4.171   0.439   6.890 -0.0372 -0.5620  0.4130
   80SLPC   C21 7373   4.068   0.362   6.916  0.6608 -0.2677 -0.8836
   80SLPC   O22 7374   4.056   0.247   6.891  0.2445 -0.5945  0.5699
   80SLPC   C22 7375   3.955   0.446   6.988 -0.5628 -0.3306  0.7415
   80SLPC   H2R 7376   4.005   0.539   7.024 -2.6672  1.3904 -0.5224
   80SLPC   H2S 7377   3.895   0.459   6.896  1.9320 -0.9604 -1.0935
   80SLPC    C3 7378   4.363   0.497   6.754 -0.2609  0.6366  0.2172
   80SLPC    HX 7379   4.315   0.596   6.771 -2.4565 -0.3466  0.0922
   80SLPC    HY 7380   4.409   0.501   6.653 -0.7704  1.0014 -0.0008
   80SLPC   O31 7381   4.468   0.489   6.856 -0.4499 -0.1168  0.0340
   80SLPC   C31 7382   4.552   0.382   6.837 -0.3624  0.6269  0.1178
   80SLPC   O32 7383   4.555   0.308   6.737  0.0078 -0.2850  0.5308
   80SLPC   C32 7384   4.652   0.373   6.953  0.3867  0.4435  0.3252
   80SLPC   H2X 7385   4.681   0.480   6.963 -0.5468  0.7526 -0.2628
   80SLPC   H2Y 7386   4.736   0.308   6.920 -1.6509 -2.1321 -0.0815
   80SLPC   C23 7387   3.869   0.377   7.098  0.1139  0.0620  0.4045
   80SLPC   H3R 7388   3.818   0.291   7.049 -0.0427  1.1220 -1.3920
   80SLPC   H3S 7389   3.778   0.440   7.112  0.9489  1.8227 -1.5732
   80SLPC   C24 7390   3.935   0.316   7.221  0.1537 -0.5213  0.3234
   80SLPC   H4R 7391   4.001   0.233   7.185  1.1329  0.8541 -1.2278
   80SLPC   H4S 7392   3.857   0.278   7.289  0.0016 -1.5551 -0.4014
   80SLPC   C25 7393   4.014   0.424   7.297 -0.0270  0.1065 -0.6242
   80SLPC   H5R 7394   3.961   0.440   7.394  1.4319 -1.6285  0.5367
   80SLPC   H5S 7395   4.012   0.516   7.235 -0.8116  0.6341  0.1599
   80SLPC   C26 7396   4.158   0.381   7.328  0.3269  0.2368  0.2979
   80SLPC   H6R 7397   4.209   0.468   7.372 -2.0094  2.3796 -0.9701
   80SLPC   H6S 7398   4.198   0.337   7.234 -1.4198  0.2891 -0.5143
   80SLPC   C27 7399   4.160   0.261   7.429 -0.4069 -0.1557 -0.3246
   80SLPC   H7R 7400   4.267   0.248   7.457 -1.4925 -1.7256  3.8489
   80SLPC   H7S 7401   4.123   0.169   7.379 -1.3672 -0.1941  0.4248
   80SLPC   C28 7402   4.070   0.283   7.555  0.2899 -0.2952 -0.5859
   80SLPC   H8R 7403   4.062   0.185   7.607 -2.2810 -0.5174 -1.3024
   80SLPC   H8S 7404   3.965   0.312   7.535  0.4322  1.5960  1.0447
   80SLPC   C29 7405   4.131   0.390   7.640 -0.0131 -0.0861 -0.0578
   80SLPC   H9R 7406   4.117   0.495   7.609 -1.3744 -0.1839  0.1261
   80SLPC  C210 7407   4.199   0.362   7.758  0.5890 -0.3571  0.5927
   80SLPC  H10R 7408   4.227   0.445   7.825 -1.4679 -1.0806  2.4577
   80SLPC  C211 7409   4.245   0.233   7.816  0.4009 -0.0214 -0.2297
   80SLPC  H11R 7410   4.356   0.223   7.813  0.6174  2.0594 -1.1319
   80SLPC  H11S 7411   4.205   0.153   7.751  0.0528  0.2009 -0.2898
   80SLPC  C212 7412   4.191   0.221   7.959 -0.3390  0.0417 -0.4708
   80SLPC  H12R 7413   4.083   0.197   7.960  0.2664 -3.2360 -0.9575
   80SLPC  C213 7414   4.263   0.222   8.072  0.2453  0.0719  0.3956
   80SLPC  H13R 7415   4.214   0.209   8.169  0.7828  0.0690  0.6695
   80SLPC  C214 7416   4.409   0.232   8.073  0.3685  0.4993 -0.3363
   80SLPC  H14R 7417   4.433   0.329   8.024  0.5337  0.5873 -0.0878
   80SLPC  H14S 7418   4.455   0.162   8.001  2.2503 -0.4782  1.7042
   80SLPC  C215 7419   4.471   0.205   8.207 -0.8478  0.2943  0.7923
   80SLPC  H15R 7420   4.575   0.243   8.208 -0.6180  0.3446 -3.6428
   80SLPC  H15S 7421   4.463   0.097   8.233 -0.0994  0.4585  1.7643
   80SLPC  C216 7422   4.405   0.264   8.336  0.3508  0.3982  0.0526
   80SLPC  H16R 7423   4.314   0.202   8.354  1.2006 -0.5522  1.2728
   80SLPC  H16S 7424   4.382   0.371   8.314  2.3185  0.2573 -3.4269
   80SLPC  C217 7425   4.482   0.249   8.460 -0.1014  0.8993  0.2749
   80SLPC  H17R 7426   4.584   0.294   8.452  0.1165  0.2775 -0.5951
   80SLPC  H17S 7427   4.498   0.142   8.485 -1.5410  0.1432 -1.7571
   80SLPC  C218 7428   4.415   0.309   8.584 -0.1640  0.1294 -0.0959
   80SLPC  H18R 7429   4.402   0.419   8.575 -0.8727  0.0511 -0.0929
   80SLPC  H18S 7430   4.451   0.287   8.687 -2.0868 -2.2115  0.1804
   80SLPC  H18T 7431   4.312   0.268   8.578 -0.3757  0.3020  1.8072
   80SLPC   C33 7432   4.571   0.322   7.078  0.5060  0.2457  0.0171
   80SLPC   H3X 7433   4.564   0.211   7.075 -0.6251  0.2408  1.5564
   80SLPC   H3Y 7434   4.474   0.377   7.074  0.1466 -0.4052 -0.3895
   80SLPC   C34 7435   4.643   0.362   7.202  0.5295  0.4591 -0.8283
   80SLPC   H4X 7436   4.640   0.473   7.215 -0.1011  0.3757 -0.1992
   80SLPC   H4Y 7437   4.747   0.328   7.184  1.1205  1.3931  0.6958
   80SLPC   C35 7438   4.573   0.305   7.326 -0.0017  0.4589 -0.7512
   80SLPC   H5X 7439   4.567   0.195   7.339 -0.8060  0.5830  0.0101
   80SLPC   H5Y 7440   4.466   0.335   7.326 -1.1253 -2.5158  3.4618
   80SLPC   C36 7441   4.638   0.358   7.451 -0.2529  0.4817  1.0641
   80SLPC   H6X 7442   4.651   0.467   7.432 -2.0271  0.8242  1.6818
   80SLPC   H6Y 7443   4.738   0.310   7.460  0.4534  1.2168 -1.8974
   80SLPC   C37 7444   4.559   0.337   7.584  0.2483  0.7469  0.3087
   80SLPC   H7X 7445   4.591   0.231   7.599  1.0583  0.3816 -3.1870
   80SLPC   H7Y 7446   4.450   0.325   7.568  0.3510  1.6934 -1.2707
   80SLPC   C38 7447   4.597   0.416   7.707  0.6952 -0.2000  0.4564
   80SLPC   H8X 7448   4.509   0.408   7.775  0.5999 -0.7180  0.2745
   80SLPC   H8Y 7449   4.609   0.523   7.678 -0.3369  0.2264  1.4958
   80SLPC   C39 7450   4.725   0.367   7.770 -0.2788  0.0225  0.1131
   80SLPC   H9X 7451   4.806   0.378   7.695  0.1922  0.6275  0.6920
   80SLPC   H9Y 7452   4.732   0.261   7.800  0.5267  0.3594  1.1889
   80SLPC  C310 7453   4.766   0.452   7.894  0.4379  0.1159  0.0452
   80SLPC  H10X 7454   4.689   0.456   7.975 -0.4718 -0.8747 -0.7454
   80SLPC  H10Y 7455   4.774   0.561   7.872 -0.1425  0.1247 -0.1415
   80SLPC  C311 7456   4.892   0.402   7.976 -0.7586 -0.6906 -0.5805
   80SLPC  H11X 7457   4.915   0.476   8.056  0.7488 -0.4206 -1.2196
   80SLPC  H11Y 7458   4.984   0.409   7.915 -0.1779 -0.6142  0.2824
   80SLPC  C312 7459   4.894   0.259   8.023  0.5179 -0.4852  0.1228
   80SLPC  H12X 7460   4.872   0.194   7.935 -1.4207 -0.8989  0.8712
   80SLPC  H12Y 7461   4.816   0.240   8.099  1.0352  2.2048  1.4343
   80SLPC  C313 7462   5.032   0.224   8.081 -0.6116  0.3406  0.5691
   80SLPC  H13X 7463   5.099   0.226   7.993 -3.1581  1.2849 -1.4713
   80SLPC  H13Y 7464   5.028   0.119   8.116 -0.2943  0.5776  1.3595
   80SLPC  C314 7465   5.077   0.312   8.192  0.2800 -0.1583 -0.3812
   80SLPC  H14X 7466   4.996   0.331   8.265  0.3638 -0.2376 -0.2672
   80SLPC  H14Y 7467   5.103   0.415   8.160  0.5649  0.0104  0.3698
   80SLPC  C315 7468   5.190   0.246   8.265 -0.1630  0.6495 -1.3710
   80SLPC  H15X 7469   5.265   0.213   8.191 -2.2875  0.3829 -3.5050
   80SLPC  H15Y 7470   5.162   0.150   8.313 -0.0683  0.8919 -0.8145
   80SLPC  C316 7471   5.244   0.338   8.379  0.3667  0.0372 -0.6565
   80SLPC  H16X 7472   5.290   0.421   8.320 -2.3804 -0.9141 -4.5316
   80SLPC  H16Y 7473   5.323   0.273   8.423  0.0907 -0.0443 -0.2749
   80SLPC  C317 7474   5.139   0.383   8.485 -0.8907 -0.2253  0.1322
   80SLPC  H17X 7475   5.066   0.301   8.503 -0.9684 -0.9265 -2.8236
   80SLPC  H17Y 7476   5.073   0.457   8.435 -1.1059 -0.0734  0.6395
   80SLPC  C318 7477   5.184   0.447   8.610  0.1527 -0.1369 -0.3598
   80SLPC  H18X 7478   5.254   0.382   8.665  0.5389 -2.3501 -3.2159
   80SLPC  H18Y 7479   5.098   0.467   8.677  0.5881  0.9690 -0.1038
   80SLPC  H18Z 7480   5.238   0.545   8.610  0.2304 -0.1435  1.5394
   81SAPS     N 7481   1.302   1.625  11.061  0.0815  0.0035 -0.2891
   81SAPS   HN1 7482   1.267   1.666  10.971  0.2024 -1.1074 -0.8632
   81SAPS   HN2 7483   1.396   1.584  11.046 -0.0818 -0.9298  1.0480
   81SAPS   HN3 7484   1.241   1.545  11.089 -2.4783  0.2921 -4.1278
   81SAPS   C12 7485   1.298   1.724  11.175  0.0436 -0.6434  0.9865
   81SAPS  H12A 7486   1.206   1.776  11.152  1.5562  1.2089 -1.3315
   81SAPS   C13 7487   1.287   1.675  11.317 -0.7642  0.2241 -0.2509
   81SAPS  O13A 7488   1.295   1.552  11.348 -0.9476  0.6551  0.0923
   81SAPS  O13B 7489   1.264   1.756  11.407 -0.2978 -0.4754  0.3165
   81SAPS   C11 7490   1.425   1.814  11.156  0.4101 -0.0459 -0.2443
   81SAPS  H11A 7491   1.509   1.741  11.148  0.9797  0.3407  1.7372
   81SAPS  H11B 7492   1.450   1.875  11.246  0.0830 -2.4129  1.5381
   81SAPS     P 7493   1.358   2.027  11.039 -0.2863  0.1474 -0.1058
   81SAPS   O13 7494   1.213   2.010  11.066 -0.1767 -0.8483  0.1861
   81SAPS   O14 7495   1.440   2.110  11.137  0.0855 -0.0808  0.9014
   81SAPS   O12 7496   1.421   1.882  11.029 -0.2368 -0.4057 -0.0587
   81SAPS   O11 7497   1.373   2.096  10.898 -0.0142  0.0461  0.2043
   81SAPS    C1 7498   1.508   2.094  10.852 -0.4096  0.4798 -0.4082
   81SAPS    HA 7499   1.571   2.143  10.930  1.5845 -0.7213 -1.1796
   81SAPS    HB 7500   1.545   1.994  10.821 -0.8525  0.4664 -0.8989
   81SAPS    C2 7501   1.533   2.186  10.726  0.3733 -0.4261  0.0629
   81SAPS    HS 7502   1.507   2.289  10.758  0.2915 -0.4041 -0.0696
   81SAPS   O21 7503   1.456   2.130  10.611 -0.0186  0.3608 -0.1179
   81SAPS   C21 7504   1.360   2.196  10.574  0.0356  0.2172  0.0146
   81SAPS   O22 7505   1.322   2.302  10.625  0.2782 -0.1135 -0.3456
   81SAPS   C22 7506   1.289   2.136  10.457  0.1803 -0.4849 -0.1755
   81SAPS   H2R 7507   1.335   2.042  10.421 -0.8113 -1.0199 -0.0941
   81SAPS   H2S 7508   1.188   2.107  10.494  0.9191 -1.3384  1.2082
   81SAPS    C3 7509   1.679   2.190  10.686 -0.2184  0.1343  0.1544
   81SAPS    HX 7510   1.705   2.084  10.662  0.1261 -0.5788  3.2931
   81SAPS    HY 7511   1.737   2.217  10.776  0.9715  2.5104 -1.2328
   81SAPS   O31 7512   1.705   2.275  10.573 -0.0114 -0.0426 -0.1308
   81SAPS   C31 7513   1.822   2.328  10.576 -0.1677  0.9311  0.3312
   81SAPS   O32 7514   1.915   2.294  10.652  0.0835 -0.3070 -0.2884
   81SAPS   C32 7515   1.833   2.446  10.477  1.0042 -0.6163  0.2128
   81SAPS   H2X 7516   1.783   2.533  10.525  3.1131  0.0502  1.3587
   81SAPS   H2Y 7517   1.776   2.426  10.384 -1.3576  3.4895  0.5394
   81SAPS   C23 7518   1.286   2.239  10.339 -0.0779  0.3536 -0.1450
   81SAPS   H3R 7519   1.229   2.326  10.378  1.0029  0.5775  0.9894
   81SAPS   H3S 7520   1.228   2.194  10.256  0.2950 -0.7055  0.1602
   81SAPS   C24 7521   1.429   2.274  10.276 -0.0802 -0.6517  0.2065
   81SAPS   H4R 7522   1.465   2.355  10.343  1.6029 -1.5202  0.4111
   81SAPS   H4S 7523   1.414   2.327  10.179 -0.6477  0.4442  0.8796
   81SAPS   C25 7524   1.547   2.185  10.280 -0.1405  0.3409  0.3034
   81SAPS   H5R 7525   1.632   2.201  10.347  2.1962 -0.8312 -2.1743
   81SAPS   C26 7526   1.558   2.087  10.190  0.0970  0.3416  0.2022
   81SAPS   H6R 7527   1.639   2.013  10.195  0.6814  1.0154  1.1821
   81SAPS   C27 7528   1.453   2.044  10.090  0.2585 -0.2654  0.3404
   81SAPS   H7R 7529   1.355   2.012  10.130  1.0644 -3.7422 -0.1534
   81SAPS   H7S 7530   1.491   1.948  10.050 -1.8298 -1.0634  0.1393
   81SAPS   C28 7531   1.436   2.142   9.976  0.1294  0.1310 -0.1514
   81SAPS   H8R 7532   1.439   2.248  10.005  1.8441  0.1873 -0.4160
   81SAPS   C29 7533   1.425   2.113   9.846  0.1617 -0.0118 -0.2703
   81SAPS   H9R 7534   1.434   2.197   9.777  1.5514 -0.6925 -0.9559
   81SAPS  C210 7535   1.422   1.981   9.776  0.3804  0.7809 -0.5047
   81SAPS  H10R 7536   1.477   1.909   9.841  0.5090  0.9092 -0.4706
   81SAPS  H10S 7537   1.466   1.983   9.674 -0.4700 -1.2398 -0.9614
   81SAPS  C211 7538   1.274   1.945   9.763  0.5283  0.3384 -0.1061
   81SAPS  H11R 7539   1.213   1.957   9.854  1.9296 -0.4409  0.9679
   81SAPS  C212 7540   1.214   1.920   9.647  0.0575  0.5222  0.2179
   81SAPS  H12R 7541   1.105   1.915   9.662  0.3964 -0.8504  2.7304
   81SAPS  C213 7542   1.270   1.906   9.506  0.3208 -0.1100 -0.1112
   81SAPS  H13R 7543   1.373   1.867   9.516  0.5347  0.8728  2.3803
   81SAPS  H13S 7544   1.287   2.003   9.455 -2.8870  0.2804 -0.7004
   81SAPS  C214 7545   1.200   1.814   9.410  0.8753  0.1273  0.7861
   81SAPS  H14R 7546   1.212   1.706   9.431 -2.7208 -0.4836  0.3775
   81SAPS  C215 7547   1.129   1.835   9.299 -0.5762 -0.7163  0.0805
   81SAPS  H15R 7548   1.091   1.750   9.240 -2.2902  0.8214 -1.1544
   81SAPS  C216 7549   1.095   1.981   9.254 -0.0670 -0.5518  0.0441
   81SAPS  H16R 7550   1.145   2.060   9.315 -0.5879  1.3964 -1.8994
   81SAPS  H16S 7551   0.985   1.996   9.258  0.0682  0.3828  1.0357
   81SAPS  C217 7552   1.133   1.990   9.104  0.4971  0.7244 -0.2443
   81SAPS  H17R 7553   1.058   2.062   9.066 -0.9874 -1.5055 -1.7884
   81SAPS  H17S 7554   1.110   1.901   9.043  2.2339 -1.3815  1.9655
   81SAPS  C218 7555   1.274   2.028   9.079  0.0911 -0.3819  0.1156
   81SAPS  H18R 7556   1.332   1.936   9.102  0.0354 -0.2497  0.8030
   81SAPS  H18S 7557   1.292   2.119   9.140  2.0573 -0.9660  0.5108
   81SAPS  C219 7558   1.307   2.061   8.930 -0.5575 -0.3649 -0.3494
   81SAPS  H19R 7559   1.273   1.969   8.877  0.5703 -1.0032  0.0026
   81SAPS  H19S 7560   1.414   2.048   8.904 -0.5402  1.7438 -1.5137
   81SAPS  C220 7561   1.258   2.194   8.884 -0.2737 -0.1106 -0.4425
   81SAPS  H20R 7562   1.335   2.272   8.905 -0.4220  0.3309 -1.4967
   81SAPS  H20S 7563   1.163   2.224   8.933  0.8015  0.2769  1.5116
   81SAPS  H20T 7564   1.236   2.193   8.775  0.2604 -0.4879 -0.5539
   81SAPS   C33 7565   1.981   2.492  10.450 -0.5268  1.0540  0.3009
   81SAPS   H3X 7566   2.045   2.401  10.447  0.3941  1.7002 -0.0691
   81SAPS   H3Y 7567   2.019   2.538  10.544 -2.0115 -0.5005  1.7402
   81SAPS   C34 7568   2.004   2.586  10.334 -0.6804 -0.4127  0.0675
   81SAPS   H4X 7569   1.958   2.686  10.343  4.6491  2.2626  2.0373
   81SAPS   H4Y 7570   1.955   2.533  10.250 -1.3081  0.8989 -0.4181
   81SAPS   C35 7571   2.147   2.617  10.313 -0.2903 -0.7166  0.0911
   81SAPS   H5X 7572   2.203   2.522  10.326  0.5987 -0.0176  1.5524
   81SAPS   H5Y 7573   2.194   2.674  10.395  0.9208  0.3312 -1.2675
   81SAPS   C36 7574   2.178   2.671  10.171  0.1399 -0.0770  0.0472
   81SAPS   H6X 7575   2.289   2.665  10.161  0.7856  3.5301  3.1000
   81SAPS   H6Y 7576   2.144   2.776  10.159 -1.7602 -0.8135 -1.5798
   81SAPS   C37 7577   2.111   2.589  10.058  0.0380  0.4994  0.2132
   81SAPS   H7X 7578   2.001   2.605  10.053 -0.2262 -0.2970  2.5662
   81SAPS   H7Y 7579   2.124   2.483  10.089  0.0027  1.3661  3.5703
   81SAPS   C38 7580   2.183   2.623   9.927 -0.8624 -0.0878 -0.3517
   81SAPS   H8X 7581   2.291   2.600   9.937 -0.5916  0.6525 -1.3836
   81SAPS   H8Y 7582   2.173   2.734   9.922  0.4498  0.1634  1.5701
   81SAPS   C39 7583   2.129   2.552   9.804  0.3424 -0.3125  0.0965
   81SAPS   H9X 7584   2.179   2.606   9.721  0.5709  1.7806  1.5288
   81SAPS   H9Y 7585   2.019   2.571   9.798  0.4157  0.6285  1.4328
   81SAPS  C310 7586   2.162   2.399   9.819 -0.4695  0.4404 -0.4561
   81SAPS  H10X 7587   2.153   2.370   9.926 -0.5653  2.3579  0.0927
   81SAPS  H10Y 7588   2.270   2.382   9.804 -0.0612  2.9095 -0.8177
   81SAPS  C311 7589   2.095   2.300   9.720  0.7740 -0.7413  0.6739
   81SAPS  H11X 7590   1.988   2.316   9.748  1.5798  0.7438  3.2094
   81SAPS  H11Y 7591   2.114   2.192   9.737 -2.1771 -1.9631 -2.5674
   81SAPS  C312 7592   2.112   2.331   9.567 -0.1753 -0.3181  0.2616
   81SAPS  H12X 7593   2.220   2.335   9.540 -0.2691 -0.4639 -0.1298
   81SAPS  H12Y 7594   2.077   2.434   9.545  1.6238 -0.1083 -2.0188
   81SAPS  C313 7595   2.046   2.222   9.483  0.4558 -0.0650  0.2731
   81SAPS  H13X 7596   1.938   2.226   9.506  0.6671 -2.7383  2.2939
   81SAPS  H13Y 7597   2.094   2.125   9.509  0.7894 -0.0666 -0.3336
   81SAPS  C314 7598   2.055   2.255   9.330  0.3169 -0.1633  0.1431
   81SAPS  H14X 7599   1.984   2.335   9.301 -0.5415 -1.6046 -1.9715
   81SAPS  H14Y 7600   2.019   2.168   9.271  0.3944  0.3314 -0.6432
   81SAPS  C315 7601   2.202   2.270   9.277  0.3555 -0.2908 -0.2327
   81SAPS  H15X 7602   2.249   2.172   9.298 -2.1832 -1.2191  1.5463
   81SAPS  H15Y 7603   2.271   2.337   9.333  0.8682 -1.7153  0.8897
   81SAPS  C316 7604   2.207   2.288   9.121 -0.7625  0.2711 -0.2923
   81SAPS  H16X 7605   2.171   2.388   9.088  0.6354  1.2834  1.1135
   81SAPS  H16Y 7606   2.146   2.210   9.071 -2.2845  0.4849  1.1335
   81SAPS  C317 7607   2.345   2.276   9.065  0.4829 -0.1979 -0.6778
   81SAPS  H17X 7608   2.368   2.169   9.048 -2.1065 -0.9699  0.1260
   81SAPS  H17Y 7609   2.416   2.322   9.137 -1.6420  1.1960  0.6368
   81SAPS  C318 7610   2.367   2.344   8.932  0.1389 -0.3042  0.1955
   81SAPS  H18X 7611   2.475   2.335   8.907  0.1063 -1.3890  0.4024
   81SAPS  H18Y 7612   2.349   2.453   8.946 -0.0678 -0.3109 -0.0026
   81SAPS  H18Z 7613   2.292   2.309   8.858 -2.4333  0.2054  2.4050
   82SAPS     N 7614   1.567   1.087  10.867 -0.1742  0.9195  0.3650
   82SAPS   HN1 7615   1.492   1.142  10.821 -0.4171 -0.0785 -0.4744
   82SAPS   HN2 7616   1.624   1.156  10.919  0.0435  1.8903 -1.1133
   82SAPS   HN3 7617   1.635   1.048  10.798 -1.7046  0.3147 -0.8671
   82SAPS   C12 7618   1.523   0.985  10.965  0.6030 -0.2899 -0.6556
   82SAPS  H12A 7619   1.496   0.898  10.908 -0.1396  0.9672 -2.3188
   82SAPS   C13 7620   1.628   0.959  11.077  0.0909 -0.1107  0.1846
   82SAPS  O13A 7621   1.726   1.033  11.082  0.3478 -0.2306  0.6090
   82SAPS  O13B 7622   1.611   0.867  11.163 -0.1071  0.1236  0.3814
   82SAPS   C11 7623   1.391   1.020  11.033 -0.5473  0.4451  0.4695
   82SAPS  H11A 7624   1.405   1.105  11.103  2.9368  0.5010 -0.1240
   82SAPS  H11B 7625   1.365   0.947  11.113  1.3902 -0.4027  0.3843
   82SAPS     P 7626   1.194   0.927  10.882 -0.3494 -0.2513  0.0787
   82SAPS   O13 7627   1.156   0.824  10.984 -0.2392 -0.2218  0.2185
   82SAPS   O14 7628   1.085   1.008  10.820  0.1815  0.0877 -0.1391
   82SAPS   O12 7629   1.283   1.037  10.945  0.2907  0.5088 -0.3234
   82SAPS   O11 7630   1.277   0.865  10.767  0.5061 -0.3170  0.2936
   82SAPS    C1 7631   1.334   0.940  10.663  0.0724 -0.7540 -0.1221
   82SAPS    HA 7632   1.331   1.050  10.676  0.8377 -0.4601 -2.1188
   82SAPS    HB 7633   1.442   0.915  10.653  0.0999 -1.7502  2.0525
   82SAPS    C2 7634   1.274   0.933  10.516  0.5635 -0.1906 -0.0242
   82SAPS    HS 7635   1.338   0.998  10.453  1.5424 -0.8186  0.3012
   82SAPS   O21 7636   1.131   0.953  10.506 -0.0983 -0.7589  0.0376
   82SAPS   C21 7637   1.108   1.078  10.507  0.2924 -0.4683 -0.5412
   82SAPS   O22 7638   1.194   1.165  10.509  0.2793 -0.2280  0.3036
   82SAPS   C22 7639   0.956   1.100  10.496 -0.1919 -0.3367 -0.4190
   82SAPS   H2R 7640   0.916   1.044  10.409 -1.0034 -0.6790  0.1527
   82SAPS   H2S 7641   0.910   1.059  10.589 -1.2641  0.0023 -0.7832
   82SAPS    C3 7642   1.315   0.796  10.456 -0.5978  0.1245  0.1811
   82SAPS    HX 7643   1.279   0.708  10.515  0.1388 -0.2552  0.0709
   82SAPS    HY 7644   1.426   0.790  10.455 -0.5529  0.0991  1.9042
   82SAPS   O31 7645   1.257   0.781  10.323 -0.3613 -0.3004  0.1123
   82SAPS   C31 7646   1.136   0.724  10.313 -1.1727  0.2337 -0.0872
   82SAPS   O32 7647   1.079   0.660  10.401 -0.3033  0.1727  0.7299
   82SAPS   C32 7648   1.074   0.746  10.170 -0.0241 -0.0305 -0.0533
   82SAPS   H2X 7649   1.049   0.853  10.157  0.8672  0.1031 -0.7409
   82SAPS   H2Y 7650   0.985   0.680  10.175  0.4148 -0.5330  1.9948
   82SAPS   C23 7651   0.911   1.254  10.480 -0.1540  0.5052  0.1098
   82SAPS   H3R 7652   0.996   1.304  10.532  2.4109 -2.7794 -0.5563
   82SAPS   H3S 7653   0.820   1.256  10.543 -0.1640 -2.4826  0.3511
   82SAPS   C24 7654   0.914   1.298  10.334 -0.1168 -0.0058  0.2659
   82SAPS   H4R 7655   0.872   1.226  10.260 -0.2622  0.6219 -0.2710
   82SAPS   H4S 7656   1.017   1.291  10.291 -0.5636 -1.0637 -0.6777
   82SAPS   C25 7657   0.862   1.438  10.334  0.3836 -0.3101  0.1483
   82SAPS   H5R 7658   0.776   1.458  10.399  1.2277  0.4719  1.0797
   82SAPS   C26 7659   0.906   1.544  10.268  0.6691 -0.1394  0.1779
   82SAPS   H6R 7660   0.858   1.641  10.290 -1.4759 -0.9874 -0.4968
   82SAPS   C27 7661   1.021   1.550  10.173  0.4669  0.1883  0.2840
   82SAPS   H7R 7662   1.001   1.485  10.085 -1.3266 -1.8916  2.0983
   82SAPS   H7S 7663   1.108   1.505  10.224  1.9497 -0.1913 -2.4183
   82SAPS   C28 7664   1.063   1.686  10.130 -0.0800  0.2137  0.9425
   82SAPS   H8R 7665   1.108   1.752  10.206  0.4606  0.3445  0.5154
   82SAPS   C29 7666   1.063   1.734  10.005  0.6763  0.3039  0.1380
   82SAPS   H9R 7667   1.103   1.833   9.980  2.6261 -0.4666 -0.0087
   82SAPS  C210 7668   1.016   1.644   9.889 -0.8083 -0.7817  0.8667
   82SAPS  H10R 7669   1.054   1.540   9.891 -0.2012 -0.5675  0.7838
   82SAPS  H10S 7670   1.074   1.681   9.801  0.7165 -0.2212  2.0473
   82SAPS  C211 7671   0.867   1.642   9.852  0.0464 -0.3021 -0.3390
   82SAPS  H11R 7672   0.796   1.639   9.936 -0.2858  0.4972 -0.5813
   82SAPS  C212 7673   0.819   1.648   9.725  0.0591  0.0989  0.2316
   82SAPS  H12R 7674   0.709   1.653   9.717 -0.0635  2.4254  2.3215
   82SAPS  C213 7675   0.898   1.656   9.594  0.3657  0.4407 -0.4874
   82SAPS  H13R 7676   1.004   1.633   9.617  0.0584  0.4107  1.0082
   82SAPS  H13S 7677   0.899   1.759   9.552 -1.5523  1.1305  0.9839
   82SAPS  C214 7678   0.841   1.553   9.494 -0.0349 -0.1701  0.2809
   82SAPS  H14R 7679   0.851   1.448   9.525 -2.2597 -0.2457  0.9263
   82SAPS  C215 7680   0.780   1.566   9.373 -0.6417  0.6194  0.3116
   82SAPS  H15R 7681   0.762   1.477   9.310 -1.3608  1.0405 -0.0930
   82SAPS  C216 7682   0.754   1.695   9.303  0.0773  0.1178  0.4246
   82SAPS  H16R 7683   0.824   1.770   9.347  1.8094 -1.1714 -0.0110
   82SAPS  H16S 7684   0.653   1.727   9.335  0.3178  1.2610  0.1133
   82SAPS  C217 7685   0.784   1.680   9.153  0.1018  0.5365 -0.5258
   82SAPS  H17R 7686   0.710   1.606   9.115  1.0388 -0.0197 -1.3154
   82SAPS  H17S 7687   0.886   1.648   9.123 -0.5623 -0.3092 -2.0127
   82SAPS  C218 7688   0.760   1.808   9.083 -1.1633  0.0382  0.1626
   82SAPS  H18R 7689   0.797   1.887   9.152 -0.5543  0.7592 -0.9468
   82SAPS  H18S 7690   0.650   1.826   9.079 -1.9725 -3.2150  2.8435
   82SAPS  C219 7691   0.838   1.822   8.950  0.3402 -1.3049  0.5463
   82SAPS  H19R 7692   0.948   1.824   8.963  0.3043  1.1110  0.9286
   82SAPS  H19S 7693   0.810   1.922   8.911 -1.5084 -0.6675  3.2284
   82SAPS  C220 7694   0.803   1.719   8.849  0.5175  0.1063 -0.5603
   82SAPS  H20R 7695   0.695   1.723   8.822  0.4830  2.6255 -0.2729
   82SAPS  H20S 7696   0.837   1.618   8.881 -0.6477 -0.5816 -1.4051
   82SAPS  H20T 7697   0.851   1.744   8.752  0.4597  1.4730 -0.2609
   82SAPS   C33 7698   1.158   0.688  10.055 -0.2015  0.4552  0.6093
   82SAPS   H3X 7699   1.192   0.584  10.071 -1.0958  0.0289 -0.1778
   82SAPS   H3Y 7700   1.249   0.751  10.051  0.1714 -0.0554  1.0584
   82SAPS   C34 7701   1.072   0.685   9.922 -0.6131  0.1451  0.7447
   82SAPS   H4X 7702   1.027   0.786   9.926  1.6241  1.1757  1.8953
   82SAPS   H4Y 7703   0.998   0.604   9.936  1.0874 -1.4454  1.0628
   82SAPS   C35 7704   1.157   0.663   9.795  0.2207  0.6196 -0.1947
   82SAPS   H5X 7705   1.223   0.573   9.801 -0.6294  0.0091  0.2274
   82SAPS   H5Y 7706   1.221   0.754   9.794 -0.6204  1.2150 -0.3268
   82SAPS   C36 7707   1.077   0.658   9.664 -0.0139  1.1505 -0.1058
   82SAPS   H6X 7708   1.016   0.565   9.664 -3.6277  3.2133  2.9560
   82SAPS   H6Y 7709   1.142   0.660   9.574  0.4485  0.8667  0.2178
   82SAPS   C37 7710   0.977   0.777   9.649  0.0243  0.2316  0.3237
   82SAPS   H7X 7711   1.022   0.874   9.678  1.0659  0.2907 -1.3682
   82SAPS   H7Y 7712   0.896   0.756   9.722  0.3665 -2.5277  0.0197
   82SAPS   C38 7713   0.917   0.791   9.502  0.0851  0.2158 -0.2155
   82SAPS   H8X 7714   0.837   0.867   9.492 -0.1056  0.1004  0.3902
   82SAPS   H8Y 7715   0.868   0.695   9.477  0.9663 -0.5648  0.9439
   82SAPS   C39 7716   1.031   0.827   9.404 -0.2440  0.0479  0.0628
   82SAPS   H9X 7717   1.103   0.744   9.395 -0.3945 -0.3419  2.0565
   82SAPS   H9Y 7718   1.080   0.918   9.445 -1.8978  1.4120 -0.8440
   82SAPS  C310 7719   0.984   0.857   9.259  0.2876 -0.2199  0.0892
   82SAPS  H10X 7720   0.941   0.959   9.251  0.5902  0.0685  1.9093
   82SAPS  H10Y 7721   0.912   0.781   9.221 -0.1079 -0.3125  0.9924
   82SAPS  C311 7722   1.100   0.858   9.160  0.1688  0.6348 -0.7688
   82SAPS  H11X 7723   1.164   0.767   9.166 -0.8797 -0.1616 -1.3058
   82SAPS  H11Y 7724   1.178   0.936   9.177  1.2182 -0.5680  0.1130
   82SAPS  C312 7725   1.044   0.887   9.022  0.0357  0.0005  0.3705
   82SAPS  H12X 7726   1.128   0.933   8.966  1.3592 -0.5813  1.8177
   82SAPS  H12Y 7727   0.961   0.960   9.027 -0.5411 -0.6236  0.0697
   82SAPS  C313 7728   1.005   0.758   8.952  0.6893  0.0024  0.5393
   82SAPS  H13X 7729   0.914   0.715   8.999 -0.0073 -2.6211 -2.8442
   82SAPS  H13Y 7730   1.073   0.671   8.967  0.4995 -0.4819 -1.1954
   82SAPS  C314 7731   0.997   0.766   8.798  0.0766  0.5919  0.1527
   82SAPS  H14X 7732   0.974   0.669   8.750  1.7469  0.1202  0.2478
   82SAPS  H14Y 7733   1.096   0.782   8.750  0.2805 -0.6241  0.1298
   82SAPS  C315 7734   0.888   0.867   8.759 -0.0679  0.0970  0.6853
   82SAPS  H15X 7735   0.912   0.974   8.779 -2.1894  0.6946  0.3376
   82SAPS  H15Y 7736   0.794   0.845   8.814  1.1754 -0.6974  2.5749
   82SAPS  C316 7737   0.842   0.845   8.613  0.1607 -0.0753  0.0855
   82SAPS  H16X 7738   0.783   0.927   8.568  3.1420  1.9781 -0.3881
   82SAPS  H16Y 7739   0.775   0.757   8.604  2.5838 -1.9261 -0.9451
   82SAPS  C317 7740   0.958   0.832   8.512  0.1957  0.1097 -0.0288
   82SAPS  H17X 7741   1.027   0.752   8.544  2.9426  2.5834  0.6340
   82SAPS  H17Y 7742   1.012   0.929   8.516  0.1585  0.1152  0.5822
   82SAPS  C318 7743   0.911   0.814   8.370  0.8615  0.5008  0.1362
   82SAPS  H18X 7744   0.876   0.710   8.353  1.8024  0.2237 -0.1746
   82SAPS  H18Y 7745   0.995   0.851   8.308  1.2658  1.6710  1.3301
   82SAPS  H18Z 7746   0.826   0.885   8.364  0.2929 -0.1785  0.0858
   83SAPS     N 7747   1.945   1.732  11.080  0.7010  0.2031 -0.3311
   83SAPS   HN1 7748   1.888   1.814  11.049 -1.0446 -0.6258  0.5337
   83SAPS   HN2 7749   1.896   1.683  11.157 -0.2026 -1.1354 -1.6952
   83SAPS   HN3 7750   2.035   1.772  11.112  1.0977  0.8310 -2.0906
   83SAPS   C12 7751   1.978   1.632  10.974  0.4523 -0.4544  0.5410
   83SAPS  H12A 7752   2.058   1.658  10.906  0.0621 -2.1127 -0.5967
   83SAPS   C13 7753   2.006   1.491  11.025 -0.2050  1.4259  0.0177
   83SAPS  O13A 7754   1.983   1.463  11.150 -0.3434 -0.2639 -0.3303
   83SAPS  O13B 7755   2.079   1.417  10.955 -0.0139 -1.0714 -0.1766
   83SAPS   C11 7756   1.847   1.615  10.897 -0.5411  0.6987 -0.2136
   83SAPS  H11A 7757   1.862   1.554  10.805 -2.2082 -0.3881  0.1939
   83SAPS  H11B 7758   1.803   1.713  10.870 -0.1590  1.3203  1.3536
   83SAPS     P 7759   1.636   1.464  10.934  0.5109  0.1189  0.0604
   83SAPS   O13 7760   1.684   1.323  10.937  0.3211  0.6075  0.5295
   83SAPS   O14 7761   1.515   1.492  11.011 -0.0034  0.2858 -0.4319
   83SAPS   O12 7762   1.747   1.564  10.980  0.1918  0.0476 -0.0586
   83SAPS   O11 7763   1.619   1.507  10.788  0.0230 -0.1315 -0.1691
   83SAPS    C1 7764   1.547   1.633  10.763 -0.2432 -0.7056  0.0468
   83SAPS    HA 7765   1.443   1.642  10.802 -1.0167  1.1696 -2.2140
   83SAPS    HB 7766   1.608   1.716  10.805  1.5730 -2.3412  0.8072
   83SAPS    C2 7767   1.547   1.655  10.610  0.0567 -0.0970 -1.6230
   83SAPS    HS 7768   1.553   1.555  10.562  0.3959  0.0498 -1.8828
   83SAPS   O21 7769   1.661   1.743  10.577  0.3463 -0.1432 -0.3134
   83SAPS   C21 7770   1.700   1.726  10.453 -0.7713 -0.1078 -0.0521
   83SAPS   O22 7771   1.672   1.632  10.384  0.0665  0.2436  0.2598
   83SAPS   C22 7772   1.810   1.830  10.432 -0.1504  0.8679  0.0590
   83SAPS   H2R 7773   1.768   1.933  10.437  2.6361  2.1547 -0.8618
   83SAPS   H2S 7774   1.876   1.829  10.521 -0.8290  1.2668  0.5811
   83SAPS    C3 7775   1.415   1.734  10.571  0.2582 -0.5482 -1.5087
   83SAPS    HX 7776   1.400   1.826  10.630  1.1128 -2.0426  1.2184
   83SAPS    HY 7777   1.342   1.658  10.607  0.8381 -0.4433 -0.0353
   83SAPS   O31 7778   1.398   1.757  10.427 -0.4013  0.1881 -0.0911
   83SAPS   C31 7779   1.355   1.658  10.351 -0.0466 -0.5065 -0.1191
   83SAPS   O32 7780   1.318   1.547  10.387 -0.1320 -0.2912 -0.3100
   83SAPS   C32 7781   1.393   1.698  10.205 -0.0052 -0.2212 -0.4851
   83SAPS   H2X 7782   1.491   1.750  10.195 -1.3808  3.1028  1.6514
   83SAPS   H2Y 7783   1.320   1.775  10.173  0.3526  1.2653  1.9863
   83SAPS   C23 7784   1.890   1.806  10.303  0.1109 -0.6622 -0.2204
   83SAPS   H3R 7785   1.838   1.828  10.207  1.5355  4.7087 -0.0476
   83SAPS   H3S 7786   1.916   1.698  10.293  1.7513 -0.2661 -0.5954
   83SAPS   C24 7787   2.023   1.877  10.309 -0.1697  0.2090 -0.3369
   83SAPS   H4R 7788   2.075   1.869  10.211 -0.5864 -0.5218 -0.4989
   83SAPS   H4S 7789   2.082   1.826  10.389 -0.4924  1.3154  0.6468
   83SAPS   C25 7790   2.006   2.026  10.348 -0.0587 -0.3470  0.3408
   83SAPS   H5R 7791   1.988   2.049  10.455 -0.4810  0.1808  0.1634
   83SAPS   C26 7792   1.998   2.132  10.263 -0.4086 -0.0005  0.4805
   83SAPS   H6R 7793   1.976   2.235  10.294 -0.4198  1.2559 -3.2910
   83SAPS   C27 7794   2.012   2.130  10.109  0.0585 -0.2882 -0.0267
   83SAPS   H7R 7795   2.018   2.025  10.074 -1.1200  0.2667 -2.0500
   83SAPS   H7S 7796   2.110   2.181  10.098  0.8047 -1.5313  0.6835
   83SAPS   C28 7797   1.902   2.196  10.029  0.3581  0.1660 -0.0297
   83SAPS   H8R 7798   1.888   2.303  10.052 -1.2661 -0.4117  2.0754
   83SAPS   C29 7799   1.821   2.135   9.940 -0.3892 -0.1641 -0.5000
   83SAPS   H9R 7800   1.743   2.200   9.898 -1.3850 -0.1481  1.2591
   83SAPS  C210 7801   1.820   1.988   9.894 -0.6188 -0.3521  0.1655
   83SAPS  H10R 7802   1.716   1.960   9.865 -1.3552  1.8478  0.4886
   83SAPS  H10S 7803   1.847   1.923   9.980 -1.8669 -0.2420  0.6592
   83SAPS  C211 7804   1.916   1.964   9.777 -0.3927  0.0095  0.3737
   83SAPS  H11R 7805   2.023   1.958   9.799 -0.3128  2.0185  0.7255
   83SAPS  C212 7806   1.876   1.953   9.647  0.2116  0.7881 -0.4132
   83SAPS  H12R 7807   1.964   1.949   9.580  0.8480  1.4781  0.3688
   83SAPS  C213 7808   1.738   1.967   9.593  0.3184  0.5196 -0.6453
   83SAPS  H13R 7809   1.694   2.065   9.622  0.0646  0.1636  0.2080
   83SAPS  H13S 7810   1.663   1.896   9.637 -0.8950  1.5745 -0.9489
   83SAPS  C214 7811   1.741   1.955   9.442  0.7686 -0.8153 -0.6540
   83SAPS  H14R 7812   1.785   2.047   9.400 -0.6233  0.6657  0.9750
   83SAPS  C215 7813   1.705   1.853   9.364  0.0473 -0.4716 -0.2317
   83SAPS  H15R 7814   1.733   1.869   9.259  2.0775 -0.1680  0.3009
   83SAPS  C216 7815   1.660   1.721   9.425 -0.2975  0.4146  0.6294
   83SAPS  H16R 7816   1.630   1.729   9.532 -1.5616 -0.8442  0.3972
   83SAPS  H16S 7817   1.735   1.640   9.419  1.2693  1.9021 -1.8686
   83SAPS  C217 7818   1.533   1.668   9.363  0.3801  0.1763 -0.2443
   83SAPS  H17R 7819   1.467   1.757   9.349  1.6824  1.1243 -0.5640
   83SAPS  H17S 7820   1.475   1.602   9.431  0.3112  2.0155  1.5742
   83SAPS  C218 7821   1.555   1.597   9.229 -0.3774 -0.0665 -0.0612
   83SAPS  H18R 7822   1.527   1.491   9.249  0.4428 -0.0768  1.1632
   83SAPS  H18S 7823   1.663   1.599   9.204 -0.0397 -0.6581  1.2541
   83SAPS  C219 7824   1.487   1.652   9.106 -0.4059 -0.5202 -0.0530
   83SAPS  H19R 7825   1.489   1.763   9.102  0.5949 -0.4717  0.9941
   83SAPS  H19S 7826   1.381   1.622   9.121 -0.8253 -1.0158 -3.3699
   83SAPS  C220 7827   1.534   1.593   8.966  0.3769  0.2047 -0.1926
   83SAPS  H20R 7828   1.626   1.639   8.926  1.3570 -0.4850  1.1865
   83SAPS  H20S 7829   1.449   1.602   8.895 -0.1788  1.9514  0.6313
   83SAPS  H20T 7830   1.552   1.484   8.976  0.2618  0.3745  3.0264
   83SAPS   C33 7831   1.387   1.571  10.112 -0.0774 -0.1587  0.4770
   83SAPS   H3X 7832   1.290   1.518  10.112 -0.0492 -0.2364 -1.1687
   83SAPS   H3Y 7833   1.453   1.489  10.146  0.2845  0.3248  0.9734
   83SAPS   C34 7834   1.415   1.612   9.970  0.3836  0.5983 -0.0399
   83SAPS   H4X 7835   1.509   1.670   9.984  0.6363  0.5139 -1.2148
   83SAPS   H4Y 7836   1.340   1.685   9.932  0.8896 -0.4798 -3.5471
   83SAPS   C35 7837   1.422   1.504   9.867 -0.0882 -0.2167  0.0282
   83SAPS   H5X 7838   1.317   1.471   9.854 -0.6133 -0.2649  3.4766
   83SAPS   H5Y 7839   1.470   1.413   9.909  0.2163 -0.1708 -0.2133
   83SAPS   C36 7840   1.488   1.543   9.732 -0.4890  0.5972 -0.2172
   83SAPS   H6X 7841   1.592   1.582   9.738 -1.4921  3.4169  0.3133
   83SAPS   H6Y 7842   1.417   1.608   9.677  0.3341  1.0354 -0.7832
   83SAPS   C37 7843   1.512   1.412   9.647  0.5875  0.0888 -0.2685
   83SAPS   H7X 7844   1.548   1.450   9.549  0.2419  3.1707  0.6903
   83SAPS   H7Y 7845   1.416   1.357   9.634  1.0019 -0.5545 -0.6391
   83SAPS   C38 7846   1.625   1.325   9.707  0.4129 -0.5317 -0.2181
   83SAPS   H8X 7847   1.619   1.286   9.811  1.4202  1.1985  0.5274
   83SAPS   H8Y 7848   1.712   1.393   9.692 -1.6908  2.5314  0.6501
   83SAPS   C39 7849   1.655   1.200   9.618 -0.0560 -0.4979 -0.8078
   83SAPS   H9X 7850   1.753   1.170   9.661 -0.3758  0.7024  0.8873
   83SAPS   H9Y 7851   1.669   1.234   9.514 -0.6638  1.5236 -0.2891
   83SAPS  C310 7852   1.549   1.089   9.632 -0.2196 -0.1993 -0.1032
   83SAPS  H10X 7853   1.446   1.123   9.610 -0.6322 -1.5602 -0.3704
   83SAPS  H10Y 7854   1.546   1.057   9.738  0.5974 -1.8693 -0.5478
   83SAPS  C311 7855   1.573   0.975   9.535  0.2924 -0.5660  0.4581
   83SAPS  H11X 7856   1.486   0.906   9.529 -1.1836  1.2481 -0.0406
   83SAPS  H11Y 7857   1.660   0.911   9.559  2.1490  1.1764 -1.2413
   83SAPS  C312 7858   1.605   1.031   9.389  0.3647 -0.5493  0.5212
   83SAPS  H12X 7859   1.616   0.939   9.326 -1.6407  0.2457 -1.1053
   83SAPS  H12Y 7860   1.700   1.087   9.378  0.0780 -0.3139 -0.9647
   83SAPS  C313 7861   1.486   1.124   9.331 -0.3036  0.4752  0.0012
   83SAPS  H13X 7862   1.470   1.209   9.400 -1.3031  0.2767  0.0291
   83SAPS  H13Y 7863   1.401   1.054   9.312  0.3830 -0.6222  0.8446
   83SAPS  C314 7864   1.522   1.180   9.194 -0.0723  0.0616  0.1820
   83SAPS  H14X 7865   1.612   1.244   9.202 -0.1925  0.2756 -0.1549
   83SAPS  H14Y 7866   1.436   1.246   9.173 -0.3888 -0.5350 -0.4282
   83SAPS  C315 7867   1.541   1.075   9.088 -0.3874  0.1000 -0.1984
   83SAPS  H15X 7868   1.449   1.018   9.060  1.3702 -2.5159 -0.9544
   83SAPS  H15Y 7869   1.605   0.994   9.128 -0.5723  0.9256  1.9057
   83SAPS  C316 7870   1.610   1.143   8.964  0.6016 -0.0328  0.6173
   83SAPS  H16X 7871   1.687   1.220   8.986  1.6847 -0.3943 -1.6730
   83SAPS  H16Y 7872   1.532   1.194   8.905  1.9095  1.5807  0.2358
   83SAPS  C317 7873   1.665   1.031   8.879  0.4781  0.1217  0.0532
   83SAPS  H17X 7874   1.594   0.946   8.873 -1.2599  1.5685 -0.5302
   83SAPS  H17Y 7875   1.749   0.992   8.942  1.9117  0.1407 -1.7658
   83SAPS  C318 7876   1.723   1.070   8.748 -0.6391  0.7135 -0.1266
   83SAPS  H18X 7877   1.638   1.106   8.687  0.2543  1.4869 -0.9330
   83SAPS  H18Y 7878   1.766   0.982   8.697  0.7842  1.4107 -0.1663
   83SAPS  H18Z 7879   1.804   1.146   8.759  1.2593 -1.2529  0.1633
   84SAPS     N 7880   3.365   3.486  11.100 -0.1149  0.5324  0.0495
   84SAPS   HN1 7881   3.314   3.573  11.127  0.0448  0.2678  1.2250
   84SAPS   HN2 7882   3.448   3.486  11.163 -1.2530  0.4464  1.6052
   84SAPS   HN3 7883   3.388   3.502  10.999 -1.6885  0.3835 -0.3599
   84SAPS   C12 7884   3.288   3.357  11.133  0.2573  0.1452  0.3381
   84SAPS  H12A 7885   3.327   3.279  11.069  0.9090 -0.0353  0.9566
   84SAPS   C13 7886   3.310   3.323  11.272 -0.4270 -0.6778  0.2042
   84SAPS  O13A 7887   3.399   3.386  11.344 -0.0370  0.4607 -0.1691
   84SAPS  O13B 7888   3.247   3.220  11.318  0.6312 -0.1638  0.2719
   84SAPS   C11 7889   3.132   3.371  11.096 -0.0702 -0.4868 -0.3197
   84SAPS  H11A 7890   3.096   3.466  11.142  0.0712 -1.0403  0.9792
   84SAPS  H11B 7891   3.077   3.287  11.143  1.1578 -1.3326 -0.3553
   84SAPS     P 7892   3.009   3.295  10.873 -0.2345 -0.5949 -0.2507
   84SAPS   O13 7893   2.997   3.170  10.948  0.0229  0.0190 -0.2973
   84SAPS   O14 7894   2.885   3.365  10.854 -0.0472 -0.2898  0.1826
   84SAPS   O12 7895   3.109   3.388  10.952 -0.1082  0.4290 -0.3395
   84SAPS   O11 7896   3.084   3.268  10.730  0.4467 -0.1099  0.4046
   84SAPS    C1 7897   3.131   3.384  10.656  0.4762  0.0251  0.2374
   84SAPS    HA 7898   3.077   3.479  10.677  0.1287  0.5855 -2.7045
   84SAPS    HB 7899   3.232   3.401  10.699 -0.4631 -2.3062  3.7862
   84SAPS    C2 7900   3.135   3.348  10.506 -0.0621  0.4365  0.0923
   84SAPS    HS 7901   3.034   3.326  10.464  0.5169 -0.5536 -0.8396
   84SAPS   O21 7902   3.225   3.236  10.490  0.4193 -0.0702  0.0795
   84SAPS   C21 7903   3.177   3.116  10.463  0.1962 -0.0634  0.5977
   84SAPS   O22 7904   3.061   3.097  10.451  0.0932 -0.0792 -0.0714
   84SAPS   C22 7905   3.284   3.007  10.451  0.0317 -0.4823  0.7429
   84SAPS   H2R 7906   3.335   3.001  10.550  1.2321  0.7763  0.2326
   84SAPS   H2S 7907   3.228   2.918  10.416 -1.1421  1.0625 -1.5820
   84SAPS    C3 7908   3.201   3.463  10.437 -0.1941  0.5081  0.6528
   84SAPS    HX 7909   3.307   3.472  10.470 -0.9049 -0.7685  3.6063
   84SAPS    HY 7910   3.155   3.560  10.468 -1.6154  0.8786 -2.2802
   84SAPS   O31 7911   3.178   3.450  10.295 -0.3301 -0.1877 -0.6077
   84SAPS   C31 7912   3.279   3.450  10.205 -0.2056  0.4585  0.0484
   84SAPS   O32 7913   3.396   3.470  10.235  0.0971  0.3732  0.2609
   84SAPS   C32 7914   3.208   3.460  10.067  0.3695 -0.3230  0.1821
   84SAPS   H2X 7915   3.131   3.537  10.090  0.4013  0.0993 -1.0452
   84SAPS   H2Y 7916   3.146   3.369  10.052  1.0270 -0.7004 -0.3219
   84SAPS   C23 7917   3.394   3.031  10.341 -0.4144 -0.0268 -0.6972
   84SAPS   H3R 7918   3.423   2.926  10.318  1.5582  0.1100  0.9916
   84SAPS   H3S 7919   3.484   3.087  10.374 -1.2535  0.3171  1.1272
   84SAPS   C24 7920   3.339   3.098  10.215 -0.4486  0.0579  0.7001
   84SAPS   H4R 7921   3.311   3.201  10.245 -0.2047  0.9948 -1.9541
   84SAPS   H4S 7922   3.248   3.044  10.178 -0.1690 -1.3447  1.9723
   84SAPS   C25 7923   3.448   3.096  10.109  0.0021 -0.0597 -0.5957
   84SAPS   H5R 7924   3.510   3.186  10.120 -1.5059  1.1163 -1.4959
   84SAPS   C26 7925   3.457   3.019  10.003  0.4065  1.1125 -1.4560
   84SAPS   H6R 7926   3.547   3.047   9.948  0.8963  2.3833 -0.0964
   84SAPS   C27 7927   3.375   2.904   9.958 -0.5091  0.3760  0.9124
   84SAPS   H7R 7928   3.266   2.926   9.959 -1.6173 -4.1161  2.2841
   84SAPS   H7S 7929   3.386   2.815  10.024 -3.0551 -1.5693 -1.0505
   84SAPS   C28 7930   3.414   2.863   9.818  0.3732  0.4008  0.9549
   84SAPS   H8R 7931   3.456   2.762   9.816 -0.0047  0.1867  2.5295
   84SAPS   C29 7932   3.396   2.937   9.702  0.9208 -0.2847 -0.6636
   84SAPS   H9R 7933   3.422   2.888   9.607 -0.5312 -1.9735 -0.2501
   84SAPS  C210 7934   3.338   3.072   9.677  0.2949 -0.1599 -0.0361
   84SAPS  H10R 7935   3.284   3.104   9.769 -1.9482 -1.6809 -0.7315
   84SAPS  H10S 7936   3.264   3.058   9.595  0.2936 -2.0250  0.2601
   84SAPS  C211 7937   3.460   3.156   9.638  0.6711 -0.5413 -0.2612
   84SAPS  H11R 7938   3.507   3.202   9.726 -0.8141  1.2217 -0.3258
   84SAPS  C212 7939   3.475   3.202   9.511  0.0833 -0.0615 -0.7029
   84SAPS  H12R 7940   3.556   3.275   9.500  0.3270 -0.2828 -0.3853
   84SAPS  C213 7941   3.389   3.173   9.397  0.3352  0.6324  0.4341
   84SAPS  H13R 7942   3.383   3.270   9.342  2.3981 -0.1709 -1.3746
   84SAPS  H13S 7943   3.286   3.144   9.426  0.6591  0.2638  1.2349
   84SAPS  C214 7944   3.460   3.076   9.307 -0.4906  0.0824  0.3232
   84SAPS  H14R 7945   3.440   2.970   9.328  0.3118 -0.6684 -2.2363
   84SAPS  C215 7946   3.546   3.101   9.203  0.0138  0.7137  0.5198
   84SAPS  H15R 7947   3.605   3.019   9.160  2.1299  1.5112  1.7165
   84SAPS  C216 7948   3.590   3.239   9.161 -0.8293  0.7904 -0.4686
   84SAPS  H16R 7949   3.684   3.260   9.218 -0.7461 -3.5697  1.4152
   84SAPS  H16S 7950   3.518   3.312   9.204 -1.2514 -0.4508  1.0299
   84SAPS  C217 7951   3.616   3.271   9.011  0.4451 -0.1026  0.3327
   84SAPS  H17R 7952   3.684   3.191   8.974  1.7336  0.7881  0.7191
   84SAPS  H17S 7953   3.660   3.372   8.997 -1.3191  0.3603 -2.9909
   84SAPS  C218 7954   3.487   3.269   8.925 -0.4177  1.2326  0.2500
   84SAPS  H18R 7955   3.424   3.359   8.942 -3.2234 -0.4000 -0.8132
   84SAPS  H18S 7956   3.430   3.179   8.955  2.7061 -1.1934 -0.6649
   84SAPS  C219 7957   3.502   3.268   8.777  0.3836  1.1724 -0.0694
   84SAPS  H19R 7958   3.402   3.260   8.730  1.2667 -2.1294 -1.7459
   84SAPS  H19S 7959   3.541   3.166   8.757 -1.9938  0.2888 -0.4499
   84SAPS  C220 7960   3.590   3.362   8.702  0.3122 -0.4954  0.2502
   84SAPS  H20R 7961   3.700   3.345   8.714  0.1946 -0.5483  1.3552
   84SAPS  H20S 7962   3.589   3.470   8.727 -1.0972 -0.5853  0.6237
   84SAPS  H20T 7963   3.576   3.340   8.594  0.3679  0.2655  0.0840
   84SAPS   C33 7964   3.301   3.478   9.946 -0.2535  0.2232 -0.4785
   84SAPS   H3X 7965   3.359   3.383   9.941 -0.5324  0.0150  0.0357
   84SAPS   H3Y 7966   3.369   3.563   9.964  0.4976 -0.3979 -0.3327
   84SAPS   C34 7967   3.238   3.505   9.811  0.3509 -0.0274 -0.4185
   84SAPS   H4X 7968   3.325   3.520   9.744 -0.4234  0.2065 -1.4055
   84SAPS   H4Y 7969   3.184   3.603   9.808  0.5173  0.0512 -1.0405
   84SAPS   C35 7970   3.135   3.400   9.758 -0.4350 -0.2243  0.1380
   84SAPS   H5X 7971   3.043   3.419   9.818  0.5906  0.8050  1.4425
   84SAPS   H5Y 7972   3.171   3.297   9.782 -0.9268  0.1741  2.9179
   84SAPS   C36 7973   3.127   3.407   9.606 -0.1426 -0.7027 -0.2544
   84SAPS   H6X 7974   3.215   3.355   9.562  0.9086 -1.2378  2.3130
   84SAPS   H6Y 7975   3.125   3.514   9.576  1.2452 -0.8305 -0.9163
   84SAPS   C37 7976   3.001   3.332   9.548 -0.5823 -0.0512  0.6039
   84SAPS   H7X 7977   2.903   3.369   9.586  0.5598  0.8610  2.8073
   84SAPS   H7Y 7978   3.010   3.223   9.567 -0.3965 -0.2282 -0.4357
   84SAPS   C38 7979   3.008   3.340   9.390  1.0063  0.2912 -0.3846
   84SAPS   H8X 7980   3.111   3.317   9.357  0.5475 -2.2633 -0.2080
   84SAPS   H8Y 7981   2.996   3.449   9.369  1.9150  1.3531  3.6724
   84SAPS   C39 7982   2.893   3.261   9.328  0.3488  0.0651  0.0446
   84SAPS   H9X 7983   2.796   3.298   9.367 -0.2021  0.4733 -1.6291
   84SAPS   H9Y 7984   2.914   3.155   9.355  0.9650 -0.0631 -0.8761
   84SAPS  C310 7985   2.883   3.279   9.171  0.6638 -0.1191  0.2297
   84SAPS  H10X 7986   2.957   3.209   9.126 -2.1609 -2.1632 -1.5421
   84SAPS  H10Y 7987   2.917   3.380   9.142  1.1983 -0.1616  0.6818
   84SAPS  C311 7988   2.741   3.241   9.113 -0.2433 -0.2628  0.4864
   84SAPS  H11X 7989   2.665   3.313   9.151 -0.6665 -1.0756  1.1991
   84SAPS  H11Y 7990   2.704   3.139   9.134 -2.3343  0.8304  2.5887
   84SAPS  C312 7991   2.739   3.267   8.968 -0.5496 -0.0809 -0.2061
   84SAPS  H12X 7992   2.808   3.204   8.909 -0.9890 -0.1924 -0.6117
   84SAPS  H12Y 7993   2.757   3.373   8.941 -2.1401  0.0175 -1.0471
   84SAPS  C313 7994   2.597   3.232   8.908 -0.9821 -0.0460  0.3819
   84SAPS  H13X 7995   2.530   3.311   8.948  0.9530  0.8884  1.9472
   84SAPS  H13Y 7996   2.552   3.137   8.944 -1.1854  0.0733  0.4416
   84SAPS  C314 7997   2.616   3.241   8.755  0.0621  0.6575 -0.3073
   84SAPS  H14X 7998   2.722   3.227   8.724 -0.0925 -0.5637 -0.3087
   84SAPS  H14Y 7999   2.608   3.347   8.722  0.2304  0.1687 -1.9835
   84SAPS  C315 8000   2.533   3.137   8.685 -0.2381 -0.1493  0.8409
   84SAPS  H15X 8001   2.424   3.156   8.676 -0.0543  0.4901 -0.2524
   84SAPS  H15Y 8002   2.558   3.043   8.739 -0.7359  1.2416  3.6877
   84SAPS  C316 8003   2.577   3.123   8.536  0.1878 -0.6886  0.2937
   84SAPS  H16X 8004   2.683   3.147   8.515 -0.9126  3.2857 -1.7034
   84SAPS  H16Y 8005   2.527   3.206   8.481  0.6776 -0.8316 -0.3698
   84SAPS  C317 8006   2.538   2.984   8.478 -0.5752 -0.3972 -0.1287
   84SAPS  H17X 8007   2.609   2.915   8.526 -0.7303  0.3895  1.2873
   84SAPS  H17Y 8008   2.558   2.988   8.369  0.5693 -1.9224 -0.0000
   84SAPS  C318 8009   2.390   2.952   8.504 -0.7825 -0.4172 -0.7372
   84SAPS  H18X 8010   2.331   3.043   8.482 -0.6434 -0.0465  0.3584
   84SAPS  H18Y 8011   2.383   2.932   8.614 -0.3677  1.9320 -0.2384
   84SAPS  H18Z 8012   2.356   2.865   8.443  0.9421 -0.7687 -1.2619
   85SAPS     N 8013   6.749   3.953  10.782  0.4818  0.0007 -0.5991
   85SAPS   HN1 8014   6.671   4.005  10.737 -0.4837  0.6253  1.6519
   85SAPS   HN2 8015   6.823   3.956  10.709  1.4768 -2.6046  0.2056
   85SAPS   HN3 8016   6.712   3.856  10.794 -0.4627  0.1728 -1.9186
   85SAPS   C12 8017   6.782   4.016  10.910 -0.7871  0.0365 -0.1654
   85SAPS  H12A 8018   6.835   4.110  10.899  0.7261 -0.4959  1.9181
   85SAPS   C13 8019   6.664   4.064  10.999  0.3723  1.2653  0.0845
   85SAPS  O13A 8020   6.551   4.059  10.942  0.0307 -0.0396 -0.2808
   85SAPS  O13B 8021   6.677   4.134  11.099 -0.6413 -0.3939 -0.1174
   85SAPS   C11 8022   6.875   3.913  10.994 -0.0940 -0.6066 -0.2774
   85SAPS  H11A 8023   6.810   3.825  11.008 -1.7818  0.7146  0.4960
   85SAPS  H11B 8024   6.899   3.958  11.093  1.0718  0.3870 -0.9783
   85SAPS     P 8025   7.134   3.955  10.933  0.2062 -0.6488  0.3128
   85SAPS   O13 8026   7.134   4.054  11.041  0.4778 -0.2959 -0.3985
   85SAPS   O14 8027   7.241   3.857  10.928  0.1152  0.3139 -0.2871
   85SAPS   O12 8028   6.999   3.881  10.928  0.0301  0.1567 -0.2684
   85SAPS   O11 8029   7.122   4.024  10.792  0.5124  0.1176  0.0371
   85SAPS    C1 8030   7.243   4.061  10.720 -0.5962  0.5539  0.4783
   85SAPS    HA 8031   7.255   4.171  10.728 -0.3198  0.4688  1.2932
   85SAPS    HB 8032   7.338   4.018  10.759 -0.5929 -0.1434 -0.2711
   85SAPS    C2 8033   7.257   4.010  10.572 -0.0413  0.5810  0.0150
   85SAPS    HS 8034   7.364   4.014  10.543 -0.3555  2.7698 -1.0933
   85SAPS   O21 8035   7.190   4.106  10.483  0.2210 -0.0964  0.2182
   85SAPS   C21 8036   7.246   4.112  10.371 -0.3796  0.0720  0.3855
   85SAPS   O22 8037   7.340   4.049  10.323 -0.1884  0.3938  0.7797
   85SAPS   C22 8038   7.198   4.248  10.305 -0.1604  0.8819  0.8197
   85SAPS   H2R 8039   7.229   4.325  10.379 -0.3631 -0.4726  2.3829
   85SAPS   H2S 8040   7.253   4.262  10.210  2.3933 -1.3206  1.8344
   85SAPS    C3 8041   7.195   3.866  10.562  0.1573  0.6074  0.9893
   85SAPS    HX 8042   7.097   3.864  10.615 -0.5258 -2.7874 -0.1318
   85SAPS    HY 8043   7.268   3.802  10.616  1.1488 -0.6343 -1.6295
   85SAPS   O31 8044   7.177   3.822  10.426  0.1281  0.2867  0.2659
   85SAPS   C31 8045   7.261   3.729  10.379  0.1180  0.0011 -0.3821
   85SAPS   O32 8046   7.367   3.695  10.432 -0.3712  0.3630  0.3391
   85SAPS   C32 8047   7.205   3.680  10.243 -0.3491 -0.2220 -0.2970
   85SAPS   H2X 8048   7.137   3.760  10.208 -0.2518  1.3787  2.7830
   85SAPS   H2Y 8049   7.167   3.576  10.258  1.2962 -1.1608 -2.1527
   85SAPS   C23 8050   7.050   4.254  10.266 -0.4391 -0.8369 -0.1175
   85SAPS   H3R 8051   7.034   4.342  10.200 -0.4344 -0.2397  0.6537
   85SAPS   H3S 8052   6.993   4.270  10.360  0.4693  0.1234  0.2905
   85SAPS   C24 8053   6.986   4.139  10.189  0.5605  0.1697 -0.3022
   85SAPS   H4R 8054   6.876   4.152  10.174  0.6606  1.0209 -0.3089
   85SAPS   H4S 8055   6.996   4.047  10.251  1.0152  0.8269  0.6117
   85SAPS   C25 8056   7.061   4.117  10.064 -0.0650 -0.0803 -0.0778
   85SAPS   H5R 8057   7.156   4.065  10.080 -0.0713 -0.1075 -0.1299
   85SAPS   C26 8058   7.029   4.155   9.939 -0.4406 -0.4306  0.2265
   85SAPS   H6R 8059   7.104   4.150   9.859  0.1644  2.1226  0.5315
   85SAPS   C27 8060   6.900   4.231   9.896 -0.5069  1.1076 -0.1996
   85SAPS   H7R 8061   6.830   4.213   9.980  1.5457 -1.9005  1.0496
   85SAPS   H7S 8062   6.848   4.178   9.814  3.2332  0.1751 -2.1885
   85SAPS   C28 8063   6.917   4.375   9.860  0.0046  0.5484 -0.0925
   85SAPS   H8R 8064   6.975   4.434   9.932 -0.5631 -0.5568  1.3207
   85SAPS   C29 8065   6.890   4.436   9.744 -0.0024  0.5072  1.0427
   85SAPS   H9R 8066   6.902   4.546   9.737  0.4194  0.3572 -2.2192
   85SAPS  C210 8067   6.826   4.375   9.617 -0.2618  0.1763 -0.0600
   85SAPS  H10R 8068   6.715   4.364   9.628  0.0048 -1.4524  1.5326
   85SAPS  H10S 8069   6.864   4.270   9.614  0.2717  0.3555  0.3032
   85SAPS  C211 8070   6.859   4.454   9.492  0.2513  0.2297 -0.4904
   85SAPS  H11R 8071   6.934   4.534   9.497 -1.2019  1.8379 -2.4527
   85SAPS  C212 8072   6.812   4.430   9.369  1.1093 -0.2842  0.3351
   85SAPS  H12R 8073   6.838   4.481   9.275  0.4587  1.8713  1.2769
   85SAPS  C213 8074   6.714   4.317   9.340 -0.8316 -0.0596  0.6890
   85SAPS  H13R 8075   6.630   4.365   9.286 -0.5124 -0.8648 -0.5630
   85SAPS  H13S 8076   6.673   4.275   9.434  0.7356 -0.9496  1.0121
   85SAPS  C214 8077   6.761   4.202   9.252 -0.0754 -0.8101 -0.3972
   85SAPS  H14R 8078   6.806   4.117   9.305 -0.1140  0.6812  2.1979
   85SAPS  C215 8079   6.745   4.193   9.120 -0.4070 -0.4069 -0.3070
   85SAPS  H15R 8080   6.792   4.107   9.069  0.0121 -3.0221  4.0545
   85SAPS  C216 8081   6.683   4.302   9.041  0.4311  0.3769  0.0640
   85SAPS  H16R 8082   6.759   4.378   9.014 -0.1685  0.9932  0.0749
   85SAPS  H16S 8083   6.605   4.367   9.087 -2.3256 -0.8513 -2.5573
   85SAPS  C217 8084   6.616   4.256   8.908  0.5164  0.6323 -0.5268
   85SAPS  H17R 8085   6.557   4.344   8.875 -0.6201  0.2144  0.3118
   85SAPS  H17S 8086   6.540   4.176   8.922 -1.4033  2.3948 -0.4096
   85SAPS  C218 8087   6.713   4.209   8.800 -0.0258 -0.1763  0.6155
   85SAPS  H18R 8088   6.761   4.113   8.830 -2.1425 -2.1345 -1.7987
   85SAPS  H18S 8089   6.794   4.284   8.787 -0.1852 -0.3596 -1.8902
   85SAPS  C219 8090   6.636   4.180   8.665  0.9600 -0.3769  0.1776
   85SAPS  H19R 8091   6.718   4.185   8.591  0.9229  0.7653  0.1982
   85SAPS  H19S 8092   6.571   4.266   8.637  1.5864  0.0576  0.0511
   85SAPS  C220 8093   6.575   4.043   8.661 -0.1546  0.1569 -0.1248
   85SAPS  H20R 8094   6.493   4.024   8.734  2.2565 -2.4797  2.1626
   85SAPS  H20S 8095   6.659   3.970   8.671  1.2843  1.7085 -0.3652
   85SAPS  H20T 8096   6.551   4.025   8.554  1.2427  0.5812 -0.5390
   85SAPS   C33 8097   7.318   3.674  10.138 -0.3883 -0.4216 -0.2425
   85SAPS   H3X 8098   7.401   3.616  10.184 -2.5148 -2.2170  1.6288
   85SAPS   H3Y 8099   7.343   3.775  10.101  1.3271 -1.2460 -1.4746
   85SAPS   C34 8100   7.270   3.606  10.010  0.5936  0.5845  0.2702
   85SAPS   H4X 8101   7.189   3.670   9.969 -0.7661 -0.9378  0.4572
   85SAPS   H4Y 8102   7.225   3.507  10.035 -0.3688  0.7953 -0.5402
   85SAPS   C35 8103   7.385   3.586   9.907  0.8415  0.0261 -1.3498
   85SAPS   H5X 8104   7.472   3.527   9.943 -0.2744 -1.3975 -0.8897
   85SAPS   H5Y 8105   7.417   3.689   9.878 -0.0595  0.6163 -0.3235
   85SAPS   C36 8106   7.330   3.511   9.788 -0.0522 -0.1622  1.0321
   85SAPS   H6X 8107   7.241   3.561   9.745  0.7902 -0.5890 -1.3425
   85SAPS   H6Y 8108   7.308   3.404   9.811 -2.6588  0.3442  1.1606
   85SAPS   C37 8109   7.431   3.522   9.667  0.5657  0.1605 -0.5980
   85SAPS   H7X 8110   7.525   3.465   9.682 -0.3596 -1.1280  0.6067
   85SAPS   H7Y 8111   7.464   3.625   9.646  2.2514 -0.4755 -1.2071
   85SAPS   C38 8112   7.368   3.465   9.542  0.0988  0.3247 -0.3636
   85SAPS   H8X 8113   7.297   3.542   9.506  2.0109  2.3800  0.0291
   85SAPS   H8Y 8114   7.315   3.368   9.554  1.2507 -0.2425  0.3577
   85SAPS   C39 8115   7.480   3.435   9.435 -0.0779  0.1798 -0.4922
   85SAPS   H9X 8116   7.542   3.348   9.465 -0.1203 -1.2675 -4.1359
   85SAPS   H9Y 8117   7.556   3.516   9.439 -0.0450  0.0961  1.8098
   85SAPS  C310 8118   7.428   3.406   9.290  0.1187 -0.3772 -0.4432
   85SAPS  H10X 8119   7.332   3.355   9.316  0.2146  0.1584  1.0911
   85SAPS  H10Y 8120   7.500   3.339   9.238  0.3219  1.8688 -3.3395
   85SAPS  C311 8121   7.408   3.523   9.196 -0.5381 -0.1532  0.2506
   85SAPS  H11X 8122   7.344   3.599   9.245 -0.4428 -0.9821  1.7237
   85SAPS  H11Y 8123   7.350   3.482   9.111 -1.9385  0.7526  0.7343
   85SAPS  C312 8124   7.535   3.599   9.146 -0.6018  0.1795  0.0702
   85SAPS  H12X 8125   7.584   3.522   9.082  0.9883 -0.3851  1.8676
   85SAPS  H12Y 8126   7.604   3.628   9.228 -1.1542  2.1939 -0.1232
   85SAPS  C313 8127   7.505   3.720   9.067 -0.2793 -0.7467  0.0525
   85SAPS  H13X 8128   7.437   3.781   9.129  3.0690  3.7094 -0.1185
   85SAPS  H13Y 8129   7.446   3.683   8.980 -0.4495  2.0400 -1.0993
   85SAPS  C314 8130   7.610   3.813   9.017  0.1210 -0.1590 -0.1499
   85SAPS  H14X 8131   7.703   3.817   9.078  0.2962  1.7841 -0.4868
   85SAPS  H14Y 8132   7.560   3.912   9.020  0.0106 -0.2291  0.7133
   85SAPS  C315 8133   7.664   3.779   8.875 -0.1834  0.1788 -0.9054
   85SAPS  H15X 8134   7.582   3.770   8.801 -0.7986  1.3368 -0.3961
   85SAPS  H15Y 8135   7.710   3.678   8.883  1.9625  1.0803 -1.2731
   85SAPS  C316 8136   7.778   3.871   8.824 -0.2557 -0.2235 -0.5862
   85SAPS  H16X 8137   7.868   3.849   8.885 -1.2264  0.7559  1.3239
   85SAPS  H16Y 8138   7.741   3.975   8.841 -1.6677 -0.6450 -0.9003
   85SAPS  C317 8139   7.823   3.843   8.682  0.3160  0.1950 -0.1847
   85SAPS  H17X 8140   7.740   3.871   8.615 -1.5368  2.2010  2.7065
   85SAPS  H17Y 8141   7.842   3.733   8.680  0.5944  0.1680  1.6576
   85SAPS  C318 8142   7.950   3.926   8.651  0.3794 -0.0079  0.4289
   85SAPS  H18X 8143   7.922   4.033   8.657  2.3586  0.4920  1.7432
   85SAPS  H18Y 8144   7.986   3.904   8.549 -2.0627  0.7769 -0.6696
   85SAPS  H18Z 8145   8.026   3.902   8.729  0.2897  0.4724  0.6672
   86SAPS     N 8146   2.496   5.081  10.797  0.0750 -0.0172  0.0987
   86SAPS   HN1 8147   2.554   5.031  10.727  1.6675  1.0114  0.6454
   86SAPS   HN2 8148   2.405   5.101  10.750  0.8891 -0.2402 -1.6702
   86SAPS   HN3 8149   2.554   5.167  10.796 -0.2623  0.2276 -1.4917
   86SAPS   C12 8150   2.504   5.010  10.928  0.2348  0.5124  1.5048
   86SAPS  H12A 8151   2.608   4.993  10.949  0.0942 -0.7710  1.2457
   86SAPS   C13 8152   2.445   5.087  11.043  0.1270 -0.4184 -0.2140
   86SAPS  O13A 8153   2.367   5.179  11.014  0.3631 -0.8527 -0.1764
   86SAPS  O13B 8154   2.469   5.045  11.160 -0.6229 -0.2399 -0.1310
   86SAPS   C11 8155   2.431   4.870  10.922  0.5369 -0.6136 -0.5353
   86SAPS  H11A 8156   2.322   4.889  10.928  0.4718 -1.3745  1.5251
   86SAPS  H11B 8157   2.472   4.814  11.008 -0.3537  1.9357  1.6919
   86SAPS     P 8158   2.450   4.668  10.767  0.0831  0.0517 -0.1516
   86SAPS   O13 8159   2.579   4.629  10.705  0.7511 -0.4550  0.7918
   86SAPS   O14 8160   2.414   4.584  10.885  0.1211 -0.6520  0.3703
   86SAPS   O12 8161   2.454   4.817  10.795  0.2381  0.0857  0.2928
   86SAPS   O11 8162   2.337   4.672  10.654 -0.0491  0.4851  0.4008
   86SAPS    C1 8163   2.310   4.783  10.564 -0.0005 -0.0296 -0.2272
   86SAPS    HA 8164   2.204   4.780  10.530 -0.3168 -1.4756  0.7804
   86SAPS    HB 8165   2.336   4.880  10.611 -0.6741  0.1214 -0.1570
   86SAPS    C2 8166   2.386   4.756  10.435 -0.0980 -0.0364 -0.0140
   86SAPS    HS 8167   2.495   4.760  10.457  0.4340  0.8148 -2.4572
   86SAPS   O21 8168   2.355   4.858  10.339  0.1942 -0.0302  0.5140
   86SAPS   C21 8169   2.401   4.978  10.362  0.5414 -0.0959  0.0244
   86SAPS   O22 8170   2.469   5.016  10.459 -0.1670 -0.0786  0.2502
   86SAPS   C22 8171   2.367   5.069  10.238 -0.4557  0.3930  0.4462
   86SAPS   H2R 8172   2.259   5.055  10.214  0.1200 -0.2992 -2.0269
   86SAPS   H2S 8173   2.376   5.175  10.267 -1.2394  0.8181 -0.7897
   86SAPS    C3 8174   2.356   4.620  10.363  0.4946  0.3369 -0.3079
   86SAPS    HX 8175   2.247   4.625  10.343  0.0367 -0.4259  1.7551
   86SAPS    HY 8176   2.358   4.530  10.427 -0.1441  1.5575  1.5055
   86SAPS   O31 8177   2.444   4.594  10.252  0.7746 -0.0135  0.3316
   86SAPS   C31 8178   2.396   4.532  10.145 -0.3613  0.8579  0.9686
   86SAPS   O32 8179   2.284   4.495  10.130 -0.2491 -0.7256  0.2497
   86SAPS   C32 8180   2.516   4.505  10.049  0.4445  0.1774 -1.0667
   86SAPS   H2X 8181   2.606   4.476  10.109 -0.5774 -0.3408  0.2736
   86SAPS   H2Y 8182   2.534   4.602   9.999  1.4044  1.1425  1.0357
   86SAPS   C23 8183   2.469   5.039  10.123 -0.3412  0.3071  0.3114
   86SAPS   H3R 8184   2.577   5.044  10.151 -0.3105  0.6665  0.1337
   86SAPS   H3S 8185   2.453   5.117  10.046  0.5305 -0.4444 -0.6555
   86SAPS   C24 8186   2.443   4.907  10.055 -1.1396 -0.0459 -0.8615
   86SAPS   H4R 8187   2.463   4.819  10.120  1.0479  0.3592 -0.9005
   86SAPS   H4S 8188   2.518   4.896   9.973  1.0524  0.8608  0.9161
   86SAPS   C25 8189   2.309   4.895   9.999  0.5843  0.3753 -0.4985
   86SAPS   H5R 8190   2.232   4.884  10.077  1.6023  2.5004  0.9005
   86SAPS   C26 8191   2.277   4.887   9.869  0.8343  0.0274 -0.9540
   86SAPS   H6R 8192   2.172   4.865   9.849  0.9775  0.1516 -1.8872
   86SAPS   C27 8193   2.366   4.905   9.749 -0.3742  0.9424  0.4220
   86SAPS   H7R 8194   2.405   4.803   9.728 -1.0085  0.9145 -0.6684
   86SAPS   H7S 8195   2.450   4.976   9.767 -1.3619  1.9515  1.1842
   86SAPS   C28 8196   2.287   4.945   9.627 -0.3512  0.1098 -0.4559
   86SAPS   H8R 8197   2.221   5.030   9.652  1.3916  1.2538  0.4148
   86SAPS   C29 8198   2.286   4.893   9.505  0.0390 -0.6112  0.0083
   86SAPS   H9R 8199   2.223   4.946   9.431 -0.6493  0.5476  1.3503
   86SAPS  C210 8200   2.359   4.774   9.465 -0.1135 -0.4037  0.4614
   86SAPS  H10R 8201   2.305   4.715   9.389 -1.2553  1.0024  0.1280
   86SAPS  H10S 8202   2.364   4.708   9.554 -0.9710  0.3595  1.1030
   86SAPS  C211 8203   2.496   4.822   9.406  0.7410  0.1767 -0.3966
   86SAPS  H11R 8204   2.533   4.920   9.439 -0.5808  1.0523 -1.4344
   86SAPS  C212 8205   2.576   4.751   9.323  0.1350 -0.4318 -0.5678
   86SAPS  H12R 8206   2.665   4.802   9.283  0.1201  1.2401  1.3555
   86SAPS  C213 8207   2.531   4.626   9.259  0.3807 -0.2380  0.6211
   86SAPS  H13R 8208   2.454   4.575   9.321 -0.3722  2.0107  1.6476
   86SAPS  H13S 8209   2.612   4.551   9.243  0.3543  0.2652 -2.5116
   86SAPS  C214 8210   2.464   4.653   9.124  0.0001 -0.0295  0.1822
   86SAPS  H14R 8211   2.382   4.725   9.140  3.4449  3.7427  2.7595
   86SAPS  C215 8212   2.503   4.626   8.997  0.1700 -0.2457 -0.1059
   86SAPS  H15R 8213   2.430   4.640   8.916  0.8207 -0.1096 -0.6723
   86SAPS  C216 8214   2.629   4.549   8.956 -0.5845 -0.0197  0.8233
   86SAPS  H16R 8215   2.664   4.485   9.039  1.2500 -1.4399 -0.9284
   86SAPS  H16S 8216   2.706   4.619   8.916 -0.1843 -1.1019 -0.3777
   86SAPS  C217 8217   2.599   4.448   8.846  0.6492 -0.2800 -0.5530
   86SAPS  H17R 8218   2.511   4.391   8.885  0.4452 -1.0634 -2.0688
   86SAPS  H17S 8219   2.683   4.382   8.815 -0.4690 -1.5589 -0.9513
   86SAPS  C218 8220   2.549   4.511   8.713 -0.1389  0.0469  0.2100
   86SAPS  H18R 8221   2.475   4.591   8.737  1.5156  1.5909  0.3478
   86SAPS  H18S 8222   2.496   4.430   8.659  1.4168 -0.1684 -1.0478
   86SAPS  C219 8223   2.663   4.560   8.626  0.3337  0.7519 -0.5540
   86SAPS  H19R 8224   2.723   4.472   8.596 -0.9085 -0.6007  0.7544
   86SAPS  H19S 8225   2.745   4.612   8.681 -0.5446 -0.6416  2.2970
   86SAPS  C220 8226   2.618   4.633   8.498 -0.5444  0.2130  0.0933
   86SAPS  H20R 8227   2.571   4.570   8.419 -0.9002  1.9959 -1.1692
   86SAPS  H20S 8228   2.705   4.678   8.445 -2.3736  4.1770  0.1506
   86SAPS  H20T 8229   2.544   4.712   8.522 -1.0102 -0.1589 -0.0899
   86SAPS   C33 8230   2.465   4.394   9.958 -0.2240  0.3869 -0.5724
   86SAPS   H3X 8231   2.410   4.319  10.019  1.1937  1.3384  2.0234
   86SAPS   H3Y 8232   2.556   4.342   9.920 -1.5167 -1.7414 -0.9591
   86SAPS   C34 8233   2.381   4.433   9.831 -0.3667  0.1115 -0.1621
   86SAPS   H4X 8234   2.447   4.500   9.773 -0.6561  1.1985  0.7472
   86SAPS   H4Y 8235   2.292   4.491   9.860 -0.0210  1.1703 -1.1693
   86SAPS   C35 8236   2.343   4.317   9.739  0.3049  0.7550  0.0879
   86SAPS   H5X 8237   2.283   4.245   9.799  1.7846 -1.2325 -0.6992
   86SAPS   H5Y 8238   2.435   4.262   9.709 -0.4201 -0.1369 -0.6027
   86SAPS   C36 8239   2.266   4.346   9.611  0.0830  0.4130  0.2901
   86SAPS   H6X 8240   2.320   4.411   9.539  0.9754  0.0402  0.6149
   86SAPS   H6Y 8241   2.176   4.398   9.651  0.0418  0.2439  0.4192
   86SAPS   C37 8242   2.235   4.219   9.532 -0.4265  0.4151  0.6928
   86SAPS   H7X 8243   2.190   4.144   9.600 -2.8524  0.8481 -0.3484
   86SAPS   H7Y 8244   2.328   4.175   9.489 -0.9863  0.6110 -0.7542
   86SAPS   C38 8245   2.140   4.240   9.414 -0.1918 -0.6175 -0.5501
   86SAPS   H8X 8246   2.041   4.278   9.448 -0.5579 -2.8831  1.1331
   86SAPS   H8Y 8247   2.122   4.136   9.382 -2.2356  0.2859 -2.6381
   86SAPS   C39 8248   2.195   4.320   9.296 -0.2117  0.0050  0.5133
   86SAPS   H9X 8249   2.294   4.275   9.271 -1.6337 -2.7087 -0.6781
   86SAPS   H9Y 8250   2.217   4.425   9.325 -0.0016  0.2934 -0.6468
   86SAPS  C310 8251   2.108   4.327   9.171  0.8581 -0.4340 -0.4330
   86SAPS  H10X 8252   2.081   4.228   9.128 -1.8777  0.4360 -0.9183
   86SAPS  H10Y 8253   2.172   4.389   9.105 -0.1748  2.0256  0.7360
   86SAPS  C311 8254   1.976   4.395   9.204 -0.5030 -0.1201  0.0609
   86SAPS  H11X 8255   1.990   4.500   9.239  2.0767 -0.6904  1.0008
   86SAPS  H11Y 8256   1.926   4.336   9.284 -1.6180 -0.0286 -0.5433
   86SAPS  C312 8257   1.885   4.389   9.074 -0.1717  0.0755  0.6199
   86SAPS  H12X 8258   1.942   4.370   8.981 -1.3136  0.4390 -0.1843
   86SAPS  H12Y 8259   1.835   4.485   9.049 -2.6082 -1.5706 -1.2519
   86SAPS  C313 8260   1.771   4.290   9.092  0.3253  0.3009  0.1593
   86SAPS  H13X 8261   1.707   4.318   9.178 -1.8640 -0.8875 -0.9691
   86SAPS  H13Y 8262   1.818   4.190   9.104 -0.6353 -0.2341 -0.4099
   86SAPS  C314 8263   1.670   4.304   8.982  0.0598  0.0084 -0.7879
   86SAPS  H14X 8264   1.633   4.409   8.983 -0.1155 -0.0529 -0.7618
   86SAPS  H14Y 8265   1.583   4.238   9.002 -0.5071  0.5533 -1.3796
   86SAPS  C315 8266   1.715   4.264   8.846 -0.3004 -0.3873  0.1731
   86SAPS  H15X 8267   1.738   4.156   8.850  0.7125 -0.1541  0.8922
   86SAPS  H15Y 8268   1.802   4.323   8.808 -1.3078  0.4381 -0.9464
   86SAPS  C316 8269   1.621   4.296   8.736  0.6531  0.2796 -0.9085
   86SAPS  H16X 8270   1.662   4.260   8.639  3.9538 -2.0892  1.1414
   86SAPS  H16Y 8271   1.612   4.406   8.732  2.0613  0.4237 -0.7830
   86SAPS  C317 8272   1.484   4.235   8.753  0.2631  0.7318 -0.4154
   86SAPS  H17X 8273   1.426   4.266   8.663  1.8445  1.2017 -1.3050
   86SAPS  H17Y 8274   1.428   4.269   8.843 -1.0021 -2.3619  0.0976
   86SAPS  C318 8275   1.489   4.083   8.762 -0.2454 -0.7391  0.0298
   86SAPS  H18X 8276   1.558   4.042   8.839  0.8385  0.2864 -0.3762
   86SAPS  H18Y 8277   1.520   4.043   8.664 -2.0794 -1.0763 -0.4603
   86SAPS  H18Z 8278   1.384   4.050   8.781 -2.1482  4.7003  0.5688
   87SAPS     N 8279   3.294   6.548  10.811 -0.1376 -0.3032 -0.1727
   87SAPS   HN1 8280   3.220   6.498  10.758 -0.8560  0.3815  0.1742
   87SAPS   HN2 8281   3.266   6.545  10.911  0.7315  2.3105  0.2312
   87SAPS   HN3 8282   3.310   6.648  10.786  1.9071  0.2530  2.8070
   87SAPS   C12 8283   3.423   6.476  10.789 -0.1397 -0.1378  0.2980
   87SAPS  H12A 8284   3.459   6.487  10.688 -0.4923 -0.6985  0.1031
   87SAPS   C13 8285   3.545   6.517  10.878 -0.1097  0.0907  0.4183
   87SAPS  O13A 8286   3.520   6.584  10.982  0.0931  0.0445  0.0239
   87SAPS  O13B 8287   3.654   6.462  10.855  0.2472 -0.2726 -0.4667
   87SAPS   C11 8288   3.391   6.326  10.822  0.2568  0.1034  0.2295
   87SAPS  H11A 8289   3.382   6.306  10.931 -5.8850 -0.5624 -0.0754
   87SAPS  H11B 8290   3.475   6.269  10.778 -0.3029  2.5208 -4.6570
   87SAPS     P 8291   3.219   6.144  10.746  0.1302  0.0620  0.1156
   87SAPS   O13 8292   3.275   6.063  10.861  0.2962 -0.5810 -0.0459
   87SAPS   O14 8293   3.073   6.144  10.717  0.7942  0.1304 -0.5353
   87SAPS   O12 8294   3.267   6.291  10.760 -0.2578 -0.1851  0.5548
   87SAPS   O11 8295   3.299   6.103  10.615 -0.3730  0.1114  0.1576
   87SAPS    C1 8296   3.266   6.158  10.490 -0.3681  0.8699  0.2177
   87SAPS    HA 8297   3.223   6.260  10.497  1.5813  1.9192 -1.7952
   87SAPS    HB 8298   3.358   6.154  10.428 -0.5775 -1.3159 -0.0410
   87SAPS    C2 8299   3.176   6.060  10.415 -0.0932 -0.0277 -0.3231
   87SAPS    HS 8300   3.096   6.023  10.482  0.1236 -0.5332 -0.3392
   87SAPS   O21 8301   3.255   5.955  10.354  0.6591  0.0953  0.2773
   87SAPS   C21 8302   3.191   5.840  10.333  0.4772 -0.3792 -0.1655
   87SAPS   O22 8303   3.073   5.814  10.361  0.0825 -0.3001 -0.3668
   87SAPS   C22 8304   3.274   5.745  10.249  0.0208 -0.3488 -0.1847
   87SAPS   H2R 8305   3.297   5.798  10.154 -0.6900  0.8279  0.2775
   87SAPS   H2S 8306   3.363   5.727  10.313 -0.1559  0.0156  0.1698
   87SAPS    C3 8307   3.106   6.125  10.297 -0.3180  0.4124  1.0630
   87SAPS    HX 8308   3.046   6.208  10.339 -1.4193 -0.5647  1.4815
   87SAPS    HY 8309   3.026   6.060  10.256  0.9526  0.6379 -2.0581
   87SAPS   O31 8310   3.200   6.164  10.192 -0.1752 -0.4916  0.4935
   87SAPS   C31 8311   3.220   6.080  10.087  0.2947  0.4908  0.2813
   87SAPS   O32 8312   3.147   5.993  10.055 -0.4680  0.3422  0.4431
   87SAPS   C32 8313   3.339   6.131  10.013 -0.5037 -0.5804 -0.0906
   87SAPS   H2X 8314   3.425   6.150  10.081 -2.0469  0.9684  1.5161
   87SAPS   H2Y 8315   3.320   6.225   9.957  1.2908  1.6588  2.7609
   87SAPS   C23 8316   3.216   5.615  10.196  0.1296  0.0451 -0.3475
   87SAPS   H3R 8317   3.113   5.622  10.157  0.7534  1.2375 -1.9090
   87SAPS   H3S 8318   3.224   5.544  10.281 -2.0507 -0.4961 -0.5550
   87SAPS   C24 8319   3.300   5.558  10.085 -0.3064 -0.0733  1.1450
   87SAPS   H4R 8320   3.291   5.447  10.082  1.3474 -0.2062 -0.9178
   87SAPS   H4S 8321   3.405   5.579  10.114 -0.3558  0.3441  1.0305
   87SAPS   C25 8322   3.272   5.624   9.950 -0.5312  0.2273 -0.1990
   87SAPS   H5R 8323   3.299   5.730   9.965 -0.2959  0.0147  1.0182
   87SAPS   C26 8324   3.227   5.575   9.831 -0.9329  0.6985 -0.2751
   87SAPS   H6R 8325   3.206   5.644   9.748  0.7348 -0.9736 -2.1799
   87SAPS   C27 8326   3.182   5.430   9.816 -0.1099 -0.8237  0.3504
   87SAPS   H7R 8327   3.098   5.416   9.744  2.6117  0.4721 -3.3929
   87SAPS   H7S 8328   3.137   5.396   9.912  0.5424 -3.6636 -0.2368
   87SAPS   C28 8329   3.299   5.342   9.796  0.2341  0.3400 -0.2207
   87SAPS   H8R 8330   3.340   5.314   9.894 -1.1913 -0.2012  0.2583
   87SAPS   C29 8331   3.347   5.293   9.679  0.0009  0.3320 -0.3566
   87SAPS   H9R 8332   3.446   5.246   9.676  0.3898  0.9223  1.3909
   87SAPS  C210 8333   3.291   5.343   9.546  0.3123 -0.2606 -0.2361
   87SAPS  H10R 8334   3.373   5.385   9.484 -2.1063  0.9809 -2.8201
   87SAPS  H10S 8335   3.217   5.424   9.558  1.2947  0.5820  0.3025
   87SAPS  C211 8336   3.234   5.229   9.463 -0.2006 -0.1186 -0.2799
   87SAPS  H11R 8337   3.182   5.158   9.529  0.7258 -0.2200  0.3630
   87SAPS  C212 8338   3.230   5.219   9.330  0.0364 -0.0609  0.9545
   87SAPS  H12R 8339   3.170   5.140   9.282 -0.2299 -0.3984  1.8371
   87SAPS  C213 8340   3.291   5.313   9.231  0.6608  1.1054 -0.8151
   87SAPS  H13R 8341   3.275   5.275   9.128 -1.2721  3.6865 -1.5817
   87SAPS  H13S 8342   3.401   5.316   9.237  1.0132 -3.1952 -1.7414
   87SAPS  C214 8343   3.241   5.459   9.236 -0.0513  0.2926 -0.4712
   87SAPS  H14R 8344   3.182   5.497   9.321 -1.6773 -1.3498 -0.8048
   87SAPS  C215 8345   3.277   5.541   9.130  0.6488  0.2828 -0.4211
   87SAPS  H15R 8346   3.232   5.641   9.135 -1.0965 -0.4997  0.5027
   87SAPS  C216 8347   3.351   5.505   9.002  0.1877 -0.1429 -0.5168
   87SAPS  H16R 8348   3.314   5.408   8.962 -1.3492 -0.0188  0.5069
   87SAPS  H16S 8349   3.460   5.494   9.021  0.0552 -0.7021 -0.0329
   87SAPS  C217 8350   3.334   5.619   8.904 -0.1622 -0.5941 -0.0613
   87SAPS  H17R 8351   3.393   5.708   8.935 -2.0426  0.3316  1.0182
   87SAPS  H17S 8352   3.227   5.644   8.888  0.0351  0.7029  0.5682
   87SAPS  C218 8353   3.391   5.577   8.771  1.0004 -0.9933 -0.6970
   87SAPS  H18R 8354   3.315   5.509   8.726  0.8242 -0.0750 -1.8541
   87SAPS  H18S 8355   3.487   5.524   8.786  0.4466 -1.6655  0.6068
   87SAPS  C219 8356   3.419   5.688   8.666  0.1338 -0.8037 -0.0956
   87SAPS  H19R 8357   3.329   5.753   8.665  0.2753 -0.5853 -1.7997
   87SAPS  H19S 8358   3.437   5.636   8.569  1.7410  0.5931 -0.6002
   87SAPS  C220 8359   3.548   5.765   8.693 -0.5192 -0.1022  0.6131
   87SAPS  H20R 8360   3.546   5.807   8.796  0.1966 -2.2847  1.5755
   87SAPS  H20S 8361   3.569   5.835   8.610  0.6512 -1.4144 -0.2462
   87SAPS  H20T 8362   3.636   5.697   8.699  2.2791  3.2863  1.0411
   87SAPS   C33 8363   3.387   6.026   9.907  0.0162  0.5877 -0.0511
   87SAPS   H3X 8364   3.404   5.927   9.955 -1.6348  1.0988  1.7648
   87SAPS   H3Y 8365   3.478   6.071   9.863 -1.5500  1.8010 -2.1895
   87SAPS   C34 8366   3.277   6.009   9.797  0.3465 -0.2368  0.2023
   87SAPS   H4X 8367   3.233   6.109   9.779  0.4793 -0.1676  0.2591
   87SAPS   H4Y 8368   3.197   5.936   9.820  0.9320 -1.2035 -0.7198
   87SAPS   C35 8369   3.338   5.965   9.662 -0.0130  0.0847  0.5698
   87SAPS   H5X 8370   3.377   5.861   9.667  0.7453  0.2628 -0.7983
   87SAPS   H5Y 8371   3.424   6.032   9.637  0.0505 -0.5240 -0.9956
   87SAPS   C36 8372   3.229   5.958   9.554 -0.0752 -0.0317 -1.0557
   87SAPS   H6X 8373   3.194   6.063   9.542  2.0548  0.7399 -0.8582
   87SAPS   H6Y 8374   3.150   5.882   9.573 -0.3463 -0.0183 -2.0804
   87SAPS   C37 8375   3.281   5.903   9.426 -0.5045  0.0577  0.4817
   87SAPS   H7X 8376   3.215   5.838   9.364  0.9487 -1.4842  0.4892
   87SAPS   H7Y 8377   3.363   5.830   9.442 -0.3070  0.1029 -0.2826
   87SAPS   C38 8378   3.321   6.012   9.331  0.2510 -0.7771  0.2148
   87SAPS   H8X 8379   3.413   6.054   9.375 -1.0299  2.0013  0.4638
   87SAPS   H8Y 8380   3.246   6.095   9.327 -0.7618 -1.6729  0.1160
   87SAPS   C39 8381   3.356   5.952   9.191  0.2917  0.0317 -0.9540
   87SAPS   H9X 8382   3.271   5.891   9.154  0.5817 -0.7627 -0.3507
   87SAPS   H9Y 8383   3.439   5.881   9.208  0.0622 -0.1715 -0.6586
   87SAPS  C310 8384   3.398   6.051   9.091 -0.1216  0.3807  0.3169
   87SAPS  H10X 8385   3.464   6.000   9.017 -0.4686  2.7958 -1.8187
   87SAPS  H10Y 8386   3.456   6.143   9.115  0.8453 -0.0777 -0.1956
   87SAPS  C311 8387   3.284   6.107   9.003 -0.1126  0.4140 -0.5261
   87SAPS  H11X 8388   3.288   6.218   9.010 -2.3752  0.5476 -0.5523
   87SAPS  H11Y 8389   3.188   6.070   9.046  0.4291 -1.0692 -0.5204
   87SAPS  C312 8390   3.276   6.064   8.854 -0.3587 -0.1744  0.2410
   87SAPS  H12X 8391   3.230   5.964   8.842 -0.6526 -0.4041  2.8034
   87SAPS  H12Y 8392   3.375   6.068   8.802 -0.1137  0.2429  0.7249
   87SAPS  C313 8393   3.189   6.168   8.776  0.3585 -0.4753 -0.2747
   87SAPS  H13X 8394   3.247   6.257   8.743 -0.3031 -1.1541 -3.6576
   87SAPS  H13Y 8395   3.112   6.195   8.852  0.8408 -0.4165  0.1987
   87SAPS  C314 8396   3.110   6.107   8.666 -0.4496  0.0262  0.0829
   87SAPS  H14X 8397   3.038   6.032   8.705 -1.0588 -0.4665 -1.8737
   87SAPS  H14Y 8398   3.181   6.048   8.604 -0.9280  2.1547 -2.6819
   87SAPS  C315 8399   3.040   6.208   8.575 -0.2238 -0.4674  0.0539
   87SAPS  H15X 8400   3.118   6.282   8.546  2.0161 -1.0634  3.7786
   87SAPS  H15Y 8401   2.952   6.258   8.621 -1.8708 -0.0212 -3.3092
   87SAPS  C316 8402   2.979   6.154   8.440 -0.2135 -0.5830 -0.0784
   87SAPS  H16X 8403   3.065   6.113   8.383  1.7335 -2.8889  4.0520
   87SAPS  H16Y 8404   2.928   6.241   8.393  1.0298  1.2838  1.8490
   87SAPS  C317 8405   2.872   6.047   8.461  0.3242 -0.5991  0.6673
   87SAPS  H17X 8406   2.801   6.096   8.531 -0.4455 -1.5986  0.6146
   87SAPS  H17Y 8407   2.904   5.962   8.526  1.4460  1.4283  2.9123
   87SAPS  C318 8408   2.810   6.004   8.334  0.5920  0.3197 -0.6344
   87SAPS  H18X 8409   2.710   5.958   8.345  1.6497 -1.6325  1.5637
   87SAPS  H18Y 8410   2.878   5.933   8.281 -2.8230 -2.3787 -1.7558
   87SAPS  H18Z 8411   2.802   6.090   8.263  0.5051 -0.6528 -1.8401
   88SAPS     N 8412   5.247   2.467  11.010  0.1582 -0.3131  0.4412
   88SAPS   HN1 8413   5.280   2.369  10.996  1.3677  0.0612  0.5675
   88SAPS   HN2 8414   5.150   2.469  11.047 -0.4312 -0.0583 -1.0572
   88SAPS   HN3 8415   5.238   2.517  10.919 -0.0222 -1.6018 -0.2679
   88SAPS   C12 8416   5.335   2.537  11.103 -0.5192  0.0664 -0.1999
   88SAPS  H12A 8417   5.277   2.614  11.151 -2.0196 -0.0613 -1.7304
   88SAPS   C13 8418   5.419   2.459  11.206 -0.1012  0.2681 -0.0868
   88SAPS  O13A 8419   5.398   2.332  11.212 -0.2895 -0.8422  0.4437
   88SAPS  O13B 8420   5.497   2.513  11.284  0.5191  0.2116 -0.6285
   88SAPS   C11 8421   5.436   2.626  11.014 -0.2745 -0.1132  0.1657
   88SAPS  H11A 8422   5.497   2.562  10.946 -0.4659  2.0394 -2.1962
   88SAPS  H11B 8423   5.502   2.678  11.087 -0.8671 -0.5222  1.0116
   88SAPS     P 8424   5.321   2.857  10.921  0.1135 -0.0211  0.3359
   88SAPS   O13 8425   5.185   2.867  10.871 -0.4524  0.3188 -0.0695
   88SAPS   O14 8426   5.348   2.926  11.049 -0.5549 -0.1999  0.9933
   88SAPS   O12 8427   5.355   2.702  10.925  0.7509 -0.1865  0.3172
   88SAPS   O11 8428   5.408   2.915  10.809 -0.5841 -0.1513  0.2755
   88SAPS    C1 8429   5.543   2.868  10.784 -0.3270  0.0444 -0.1679
   88SAPS    HA 8430   5.612   2.952  10.806 -0.9818  0.2221  1.3293
   88SAPS    HB 8431   5.578   2.788  10.852  0.1080 -0.0532 -0.5031
   88SAPS    C2 8432   5.587   2.829  10.640  0.2407 -0.6816  0.5492
   88SAPS    HS 8433   5.697   2.815  10.646  0.4319  0.6002  0.3163
   88SAPS   O21 8434   5.546   2.934  10.556  0.2467  0.8536  0.5428
   88SAPS   C21 8435   5.635   2.968  10.466  0.1288  0.7889 -0.1435
   88SAPS   O22 8436   5.745   2.924  10.450 -0.4758  0.2565 -0.4957
   88SAPS   C22 8437   5.568   3.078  10.388  0.2181 -0.1759 -0.3652
   88SAPS   H2R 8438   5.479   3.028  10.343  0.6222 -0.7783 -0.5022
   88SAPS   H2S 8439   5.544   3.157  10.462  3.3554  0.3766  0.2094
   88SAPS    C3 8440   5.519   2.706  10.596  0.0102 -0.3682  0.0260
   88SAPS    HX 8441   5.411   2.720  10.617  0.8612  3.3887  3.0903
   88SAPS    HY 8442   5.543   2.627  10.669 -2.0286 -2.1652 -1.1180
   88SAPS   O31 8443   5.558   2.657  10.466  0.0426 -0.8151 -0.2225
   88SAPS   C31 8444   5.670   2.584  10.459  1.0958 -0.8609 -0.1939
   88SAPS   O32 8445   5.748   2.564  10.550  0.5149  0.4605 -0.0875
   88SAPS   C32 8446   5.690   2.553  10.309  0.5387 -0.0358 -0.2913
   88SAPS   H2X 8447   5.589   2.522  10.272  0.7327  0.0854 -0.9307
   88SAPS   H2Y 8448   5.751   2.461  10.298  0.6067 -0.2088  1.2729
   88SAPS   C23 8449   5.659   3.143  10.284  0.1623  1.0865  0.2015
   88SAPS   H3R 8450   5.762   3.170  10.314 -0.0687  3.3603 -0.8160
   88SAPS   H3S 8451   5.615   3.241  10.254 -1.7692  0.1360 -0.2462
   88SAPS   C24 8452   5.676   3.070  10.148 -0.1033  1.0078  0.1459
   88SAPS   H4R 8453   5.580   3.033  10.105 -0.4578  1.2101  0.7389
   88SAPS   H4S 8454   5.732   2.980  10.182 -0.2572  1.4807  1.7471
   88SAPS   C25 8455   5.749   3.147  10.045 -0.8649  0.3176  0.5769
   88SAPS   H5R 8456   5.816   3.221  10.091  2.3853 -1.9283 -0.1882
   88SAPS   C26 8457   5.727   3.138   9.916 -0.4890 -0.0600  0.5084
   88SAPS   H6R 8458   5.789   3.196   9.846  0.1063 -0.5148  0.6467
   88SAPS   C27 8459   5.625   3.047   9.856 -0.5852  0.0942 -0.5170
   88SAPS   H7R 8460   5.526   3.066   9.905 -0.8107  0.9016 -1.2456
   88SAPS   H7S 8461   5.662   2.943   9.864  1.8054  0.5952 -3.3119
   88SAPS   C28 8462   5.619   3.076   9.702  0.9085  0.4558 -0.5752
   88SAPS   H8R 8463   5.650   3.179   9.678  2.1683  0.5386  1.1865
   88SAPS   C29 8464   5.593   2.992   9.601  1.0365 -0.4381  0.2247
   88SAPS   H9R 8465   5.593   3.025   9.496  0.6909 -0.6880  0.1436
   88SAPS  C210 8466   5.557   2.851   9.617 -0.0680 -0.2476  0.0154
   88SAPS  H10R 8467   5.449   2.834   9.639 -0.2107  0.9157  0.2352
   88SAPS  H10S 8468   5.622   2.814   9.700  1.2105  2.9310  0.5781
   88SAPS  C211 8469   5.592   2.779   9.494 -0.2118 -0.1140  0.1566
   88SAPS  H11R 8470   5.696   2.745   9.479 -0.2863 -0.6008  0.7279
   88SAPS  C212 8471   5.501   2.723   9.407  0.7320  0.1649 -0.4341
   88SAPS  H12R 8472   5.544   2.651   9.336  0.5191 -0.6756  0.2790
   88SAPS  C213 8473   5.352   2.737   9.405  0.0288  0.1459  0.8035
   88SAPS  H13R 8474   5.310   2.741   9.508  1.6341 -1.3351  1.5638
   88SAPS  H13S 8475   5.296   2.649   9.365 -0.9524  1.1714 -0.1446
   88SAPS  C214 8476   5.313   2.860   9.322  0.6102 -0.3607  0.1022
   88SAPS  H14R 8477   5.338   2.959   9.363 -1.8123 -0.6515  2.6080
   88SAPS  C215 8478   5.252   2.861   9.202  0.7487 -0.4863  0.2252
   88SAPS  H15R 8479   5.245   2.958   9.149  0.7387 -0.9111 -0.5748
   88SAPS  C216 8480   5.213   2.740   9.114  0.1429 -0.7683  0.4026
   88SAPS  H16R 8481   5.104   2.723   9.100  0.0729  0.2928 -0.3731
   88SAPS  H16S 8482   5.254   2.645   9.156  1.1999  0.2555  1.7991
   88SAPS  C217 8483   5.287   2.760   8.977  0.2944 -0.9868  0.6360
   88SAPS  H17R 8484   5.281   2.857   8.924  3.3292 -1.0691 -0.0508
   88SAPS  H17S 8485   5.235   2.690   8.908 -1.7870  2.0221 -1.0537
   88SAPS  C218 8486   5.441   2.733   8.976  0.6250 -0.3659  0.4672
   88SAPS  H18R 8487   5.475   2.636   9.020 -0.0059  0.2229  2.3337
   88SAPS  H18S 8488   5.481   2.826   9.022 -1.5743  0.5518  0.6334
   88SAPS  C219 8489   5.507   2.753   8.837 -0.2068 -0.7251 -0.0942
   88SAPS  H19R 8490   5.493   2.853   8.792  0.7512 -1.4339 -2.1429
   88SAPS  H19S 8491   5.475   2.678   8.761 -0.0954 -0.2962 -0.5755
   88SAPS  C220 8492   5.655   2.724   8.858  0.2676  0.2031  0.2386
   88SAPS  H20R 8493   5.698   2.815   8.905 -3.0830  1.9494  0.1950
   88SAPS  H20S 8494   5.705   2.723   8.759 -1.4422 -2.1179 -0.6804
   88SAPS  H20T 8495   5.671   2.634   8.921 -2.3689  0.1336  0.9304
   88SAPS   C33 8496   5.745   2.658  10.206  0.1324  0.1914  0.5829
   88SAPS   H3X 8497   5.844   2.698  10.236  0.4565 -1.0511  1.2155
   88SAPS   H3Y 8498   5.671   2.741  10.215  1.4997  1.5163  0.0361
   88SAPS   C34 8499   5.743   2.606  10.061  0.3235 -1.0264 -0.0644
   88SAPS   H4X 8500   5.766   2.694   9.997 -0.4719 -0.5817  0.2448
   88SAPS   H4Y 8501   5.641   2.578  10.026  0.7835 -1.6608 -0.9191
   88SAPS   C35 8502   5.842   2.505  10.026 -0.7617  0.1713  0.0291
   88SAPS   H5X 8503   5.852   2.411  10.084  0.0984  0.0317 -0.3182
   88SAPS   H5Y 8504   5.945   2.546  10.022 -1.2456  1.4036 -0.0672
   88SAPS   C36 8505   5.817   2.460   9.880 -0.0822  0.5811 -0.1238
   88SAPS   H6X 8506   5.834   2.551   9.818 -0.8181  1.2002  0.5562
   88SAPS   H6Y 8507   5.719   2.411   9.863  0.9775 -0.9358 -2.4414
   88SAPS   C37 8508   5.925   2.362   9.828 -0.2478  0.4331  0.5340
   88SAPS   H7X 8509   5.918   2.276   9.899 -1.2230  0.7074  0.7898
   88SAPS   H7Y 8510   6.027   2.403   9.847  0.7340 -1.8005  0.4486
   88SAPS   C38 8511   5.913   2.317   9.680 -0.8894  0.5294  0.3129
   88SAPS   H8X 8512   5.889   2.407   9.619  1.1409  0.2655 -0.9554
   88SAPS   H8Y 8513   5.821   2.255   9.667 -0.4718  0.2638 -1.8159
   88SAPS   C39 8514   6.041   2.246   9.633 -0.3323 -0.1863  0.3551
   88SAPS   H9X 8515   6.036   2.140   9.667 -0.5407 -0.2924  0.0049
   88SAPS   H9Y 8516   6.139   2.283   9.669  0.2085 -0.5157 -0.7366
   88SAPS  C310 8517   6.045   2.231   9.475  0.5221 -0.1198 -1.9046
   88SAPS  H10X 8518   6.015   2.328   9.430 -1.8584  0.5363  0.8078
   88SAPS  H10Y 8519   5.968   2.157   9.442 -0.0485  0.6600 -2.3745
   88SAPS  C311 8520   6.176   2.185   9.414  0.1198 -0.1579 -0.2639
   88SAPS  H11X 8521   6.207   2.088   9.456 -1.3043 -0.0834  1.0771
   88SAPS  H11Y 8522   6.251   2.263   9.439 -0.9705 -0.0616  3.4142
   88SAPS  C312 8523   6.169   2.176   9.269  0.6369 -0.3763  0.2471
   88SAPS  H12X 8524   6.173   2.276   9.221 -1.3091 -0.6958 -0.6680
   88SAPS  H12Y 8525   6.077   2.123   9.238  1.1337 -0.9344 -0.2917
   88SAPS  C313 8526   6.284   2.091   9.217  0.2039 -0.3845 -0.3923
   88SAPS  H13X 8527   6.285   1.993   9.269 -0.6032 -0.6501 -0.8586
   88SAPS  H13Y 8528   6.381   2.143   9.234 -1.5682  2.5294  1.6040
   88SAPS  C314 8529   6.263   2.057   9.066  0.2095 -0.1331  0.5393
   88SAPS  H14X 8530   6.262   2.159   9.020 -2.1527 -0.2256  0.2427
   88SAPS  H14Y 8531   6.166   2.005   9.050 -0.1848  0.7987 -0.2514
   88SAPS  C315 8532   6.380   1.969   9.009  1.3187  0.0449 -0.0699
   88SAPS  H15X 8533   6.361   1.871   9.058  2.2310 -0.6290 -0.9945
   88SAPS  H15Y 8534   6.472   2.022   9.040  2.1262 -1.5640  0.4269
   88SAPS  C316 8535   6.385   1.974   8.850 -0.5504 -0.6020  0.0025
   88SAPS  H16X 8536   6.409   2.081   8.828 -1.1175  0.0763  2.3613
   88SAPS  H16Y 8537   6.285   1.952   8.808 -0.3880 -0.9111 -0.2215
   88SAPS  C317 8538   6.472   1.872   8.782  0.0367  0.4578  0.0514
   88SAPS  H17X 8539   6.411   1.831   8.699 -1.0233  2.6854 -0.3469
   88SAPS  H17Y 8540   6.491   1.785   8.849 -1.9988  1.3234  1.8487
   88SAPS  C318 8541   6.606   1.927   8.721 -0.3077 -0.5461 -0.1683
   88SAPS  H18X 8542   6.630   1.885   8.622  1.6584 -0.2000  0.1198
   88SAPS  H18Y 8543   6.682   1.910   8.801 -0.5500 -0.0861  0.1683
   88SAPS  H18Z 8544   6.597   2.038   8.714 -2.9588 -0.6450  0.6067
   89SAPS     N 8545   4.939   5.567  10.578 -0.2865  0.5520 -0.0669
   89SAPS   HN1 8546   5.016   5.548  10.511 -0.5409 -0.7685  0.0019
   89SAPS   HN2 8547   4.899   5.473  10.595  0.8376 -0.2023 -1.4018
   89SAPS   HN3 8548   4.869   5.629  10.531  0.3525  1.3745  0.0311
   89SAPS   C12 8549   4.994   5.630  10.700  0.5230  0.8481 -0.1038
   89SAPS  H12A 8550   5.035   5.553  10.763  0.2445  1.7353  1.2058
   89SAPS   C13 8551   5.107   5.743  10.687 -0.4327 -0.0546  0.1723
   89SAPS  O13A 8552   5.164   5.759  10.576  0.3291 -0.3173 -0.4894
   89SAPS  O13B 8553   5.170   5.759  10.796  0.6130 -0.3505  0.2058
   89SAPS   C11 8554   4.867   5.685  10.783  0.1062 -0.0560  0.4476
   89SAPS  H11A 8555   4.892   5.696  10.891  1.0692 -0.2918  0.2545
   89SAPS  H11B 8556   4.778   5.619  10.779 -0.5375  0.8245 -0.4711
   89SAPS     P 8557   4.705   5.824  10.632  0.4040 -0.0300 -0.1545
   89SAPS   O13 8558   4.592   5.735  10.673  0.3018 -0.6572  0.1364
   89SAPS   O14 8559   4.673   5.972  10.623 -0.9920  0.3079  0.1321
   89SAPS   O12 8560   4.826   5.812  10.730 -0.1603  0.5613  0.0142
   89SAPS   O11 8561   4.777   5.771  10.499 -0.1206 -0.6115 -0.4076
   89SAPS    C1 8562   4.863   5.866  10.435  0.1346  0.1466 -0.8879
   89SAPS    HA 8563   4.917   5.923  10.513  0.5379 -2.6487  0.9838
   89SAPS    HB 8564   4.943   5.811  10.382  1.9943 -1.4189  3.1667
   89SAPS    C2 8565   4.789   5.957  10.336  0.0622  0.3792  0.1359
   89SAPS    HS 8566   4.718   6.017  10.396 -0.8483  0.0036 -0.5374
   89SAPS   O21 8567   4.734   5.875  10.239  0.0760  0.1759 -0.2371
   89SAPS   C21 8568   4.620   5.914  10.191  0.0628 -0.0155  0.6413
   89SAPS   O22 8569   4.542   5.999  10.231 -0.4885 -0.6275 -0.6739
   89SAPS   C22 8570   4.606   5.838  10.059  0.4590  0.3990  0.2515
   89SAPS   H2R 8571   4.694   5.857   9.994 -1.4429  0.7744 -2.3311
   89SAPS   H2S 8572   4.599   5.731  10.086 -3.7654  1.2294  3.3997
   89SAPS    C3 8573   4.890   6.056  10.268 -0.2381  0.0080  0.6696
   89SAPS    HX 8574   4.960   5.995  10.206 -0.0625 -1.1771  1.9957
   89SAPS    HY 8575   4.939   6.117  10.347  0.2987 -0.1720  0.4834
   89SAPS   O31 8576   4.817   6.141  10.171 -0.3059 -0.2564 -0.0611
   89SAPS   C31 8577   4.776   6.259  10.218 -0.1990 -0.0333  0.0045
   89SAPS   O32 8578   4.803   6.301  10.332  0.1485 -0.4527  0.2429
   89SAPS   C32 8579   4.689   6.334  10.119  0.6655  1.2221  0.2319
   89SAPS   H2X 8580   4.712   6.440  10.141  3.4970  0.5244  1.1071
   89SAPS   H2Y 8581   4.582   6.320  10.144  0.0846  1.4208 -1.9875
   89SAPS   C23 8582   4.477   5.881   9.972 -1.0481 -0.4188  0.0609
   89SAPS   H3R 8583   4.487   5.984   9.934 -0.8663 -1.3550 -2.6164
   89SAPS   H3S 8584   4.391   5.877  10.042  0.0768 -2.4953  1.4806
   89SAPS   C24 8585   4.448   5.781   9.862 -0.1565  0.0945 -0.5965
   89SAPS   H4R 8586   4.432   5.681   9.907 -0.1634  0.5777  0.5058
   89SAPS   H4S 8587   4.543   5.772   9.805  1.2023  2.0002  1.1930
   89SAPS   C25 8588   4.337   5.819   9.776 -0.5982 -0.2106 -0.3405
   89SAPS   H5R 8589   4.244   5.827   9.835 -0.5778 -1.1552 -0.1679
   89SAPS   C26 8590   4.331   5.840   9.645 -0.0981 -0.2372 -0.5103
   89SAPS   H6R 8591   4.245   5.884   9.593  1.2076  1.1777 -1.5591
   89SAPS   C27 8592   4.452   5.826   9.553  0.0506  0.2107 -0.5181
   89SAPS   H7R 8593   4.414   5.741   9.492 -0.9630  0.9400 -0.9388
   89SAPS   H7S 8594   4.546   5.804   9.608  0.8872  3.9509 -0.1722
   89SAPS   C28 8595   4.485   5.949   9.477  0.5335  0.3100  0.3034
   89SAPS   H8R 8596   4.541   6.028   9.529  2.3300 -0.9812  0.4387
   89SAPS   C29 8597   4.457   5.960   9.344 -0.1737 -0.2405 -0.4474
   89SAPS   H9R 8598   4.483   6.051   9.288 -0.0792 -1.1642 -1.9682
   89SAPS  C210 8599   4.393   5.854   9.259 -0.2930 -0.6866 -0.0439
   89SAPS  H10R 8600   4.337   5.780   9.320  1.4873 -1.8307  0.2778
   89SAPS  H10S 8601   4.467   5.791   9.205  0.4102 -1.2229  1.4931
   89SAPS  C211 8602   4.304   5.938   9.167 -0.1401 -0.3197 -0.2605
   89SAPS  H11R 8603   4.201   5.946   9.207  0.1691  0.5109  0.4053
   89SAPS  C212 8604   4.341   5.999   9.048  0.0111  0.0933  0.3672
   89SAPS  H12R 8605   4.267   6.049   8.984  1.5290  1.9423 -0.0410
   89SAPS  C213 8606   4.477   5.987   8.989  0.3489  0.3245 -0.7170
   89SAPS  H13R 8607   4.479   5.916   8.904 -1.0899 -1.2377  0.4812
   89SAPS  H13S 8608   4.553   5.937   9.054  0.4921  0.3919 -0.8324
   89SAPS  C214 8609   4.552   6.114   8.966 -0.0944 -0.4783  0.3352
   89SAPS  H14R 8610   4.617   6.150   9.048 -2.4424 -0.6343  2.3965
   89SAPS  C215 8611   4.558   6.187   8.856 -0.0403 -0.0808  0.6812
   89SAPS  H15R 8612   4.609   6.284   8.865  0.2845 -0.0541 -1.0399
   89SAPS  C216 8613   4.492   6.155   8.725 -0.3072  0.1601  0.2618
   89SAPS  H16R 8614   4.446   6.245   8.679 -1.0792 -0.7850 -0.8951
   89SAPS  H16S 8615   4.423   6.068   8.730  1.9032 -1.7034  0.0329
   89SAPS  C217 8616   4.597   6.101   8.618 -0.1177 -0.7528 -0.7538
   89SAPS  H17R 8617   4.556   6.041   8.534  2.0324 -1.2693 -1.5009
   89SAPS  H17S 8618   4.667   6.027   8.664  1.6171  1.5697  0.5344
   89SAPS  C218 8619   4.680   6.208   8.553 -0.4511 -0.1514 -0.5876
   89SAPS  H18R 8620   4.754   6.244   8.627 -1.3136 -0.3652  0.4030
   89SAPS  H18S 8621   4.613   6.294   8.529  0.6939  0.4802 -1.6562
   89SAPS  C219 8622   4.747   6.155   8.425  0.0277  0.6251 -0.0698
   89SAPS  H19R 8623   4.666   6.153   8.350 -0.4253 -0.2805  0.4202
   89SAPS  H19S 8624   4.775   6.049   8.446 -0.4939  0.5125  0.0934
   89SAPS  C220 8625   4.877   6.223   8.381  0.0157 -0.0457 -0.4341
   89SAPS  H20R 8626   4.956   6.177   8.444  2.7927  2.7298 -1.5884
   89SAPS  H20S 8627   4.883   6.328   8.416  0.0225 -0.3749  0.5741
   89SAPS  H20T 8628   4.896   6.207   8.272  0.2503  1.2301 -0.5958
   89SAPS   C33 8629   4.730   6.325   9.969  0.7929 -0.0205 -0.3305
   89SAPS   H3X 8630   4.739   6.219   9.937  1.5147  0.6778 -2.6834
   89SAPS   H3Y 8631   4.826   6.374   9.943  0.7028 -0.4442 -1.5168
   89SAPS   C34 8632   4.622   6.387   9.880 -0.5250 -0.2807 -0.0120
   89SAPS   H4X 8633   4.611   6.492   9.914  0.6832  0.4149 -1.6041
   89SAPS   H4Y 8634   4.524   6.335   9.883 -1.4105  1.3293  0.4576
   89SAPS   C35 8635   4.653   6.385   9.724  0.3540 -0.5289 -0.2734
   89SAPS   H5X 8636   4.613   6.290   9.683  0.8791 -0.5761 -0.6880
   89SAPS   H5Y 8637   4.763   6.394   9.707  0.2664  1.6777  0.0129
   89SAPS   C36 8638   4.604   6.502   9.643  0.4659 -0.2815  0.1881
   89SAPS   H6X 8639   4.659   6.598   9.660 -0.8375  0.5166  0.0667
   89SAPS   H6Y 8640   4.502   6.504   9.687  0.0901 -1.9631 -0.5460
   89SAPS   C37 8641   4.596   6.457   9.496 -0.6996  0.2651 -0.1488
   89SAPS   H7X 8642   4.534   6.364   9.492 -0.5388  0.1684 -0.4016
   89SAPS   H7Y 8643   4.700   6.430   9.471 -0.3769  1.2940  0.0632
   89SAPS   C38 8644   4.555   6.571   9.399  0.0010  0.3037 -0.2941
   89SAPS   H8X 8645   4.631   6.651   9.411 -1.9670  1.9866  1.7151
   89SAPS   H8Y 8646   4.452   6.608   9.419  0.7689  1.7369  1.2182
   89SAPS   C39 8647   4.580   6.533   9.248  0.5329  0.1761  0.2651
   89SAPS   H9X 8648   4.500   6.459   9.225 -2.0430  2.9427 -0.3283
   89SAPS   H9Y 8649   4.680   6.486   9.241  0.8069  0.5830  1.2619
   89SAPS  C310 8650   4.573   6.667   9.178 -0.3658 -0.3096  0.6495
   89SAPS  H10X 8651   4.662   6.727   9.207  1.3116 -1.1776 -2.2979
   89SAPS  H10Y 8652   4.478   6.720   9.196 -1.4489 -2.2625  1.0074
   89SAPS  C311 8653   4.579   6.654   9.026  0.5012 -0.0293 -0.0239
   89SAPS  H11X 8654   4.518   6.732   8.975  0.4556  2.0986  2.9543
   89SAPS  H11Y 8655   4.542   6.552   9.002  3.0424 -0.9493 -0.3688
   89SAPS  C312 8656   4.720   6.662   8.971 -0.1058 -0.1610 -0.1033
   89SAPS  H12X 8657   4.778   6.580   9.020  0.3923 -0.2513 -0.8360
   89SAPS  H12Y 8658   4.766   6.757   9.005 -2.4436  1.3136 -0.8942
   89SAPS  C313 8659   4.740   6.669   8.824  0.5697  0.1180  0.5580
   89SAPS  H13X 8660   4.667   6.743   8.784  2.0351  2.9267  2.6908
   89SAPS  H13Y 8661   4.725   6.570   8.777 -1.2684  0.7216 -0.2369
   89SAPS  C314 8662   4.885   6.728   8.784  0.3134 -0.6873  0.1074
   89SAPS  H14X 8663   4.955   6.654   8.828 -1.3973 -0.4008  3.6430
   89SAPS  H14Y 8664   4.890   6.828   8.832 -3.3883  0.7544 -2.0429
   89SAPS  C315 8665   4.914   6.740   8.627  0.1157 -0.5100  0.0360
   89SAPS  H15X 8666   4.894   6.638   8.587 -1.1744 -0.1298 -0.3475
   89SAPS  H15Y 8667   5.019   6.770   8.607 -0.3030  2.2641  1.5705
   89SAPS  C316 8668   4.822   6.831   8.539 -0.3582 -0.2539 -0.3855
   89SAPS  H16X 8669   4.808   6.934   8.578  2.3829  1.4024 -3.3413
   89SAPS  H16Y 8670   4.721   6.784   8.548 -1.4751  1.9526 -0.7062
   89SAPS  C317 8671   4.868   6.840   8.391  0.3945  0.1585 -0.3074
   89SAPS  H17X 8672   4.947   6.918   8.403 -1.2079  2.2901 -2.5193
   89SAPS  H17Y 8673   4.795   6.891   8.324 -0.3041  0.5231  0.6983
   89SAPS  C318 8674   4.926   6.710   8.332  0.0308 -0.1455 -0.4036
   89SAPS  H18X 8675   4.965   6.731   8.230  0.2545  1.2978 -0.0388
   89SAPS  H18Y 8676   4.854   6.626   8.330 -1.2450  0.8638  0.9016
   89SAPS  H18Z 8677   5.010   6.663   8.388  0.6971  1.8767  0.3765
   90SAPS     N 8678   0.907   0.389  10.818  0.1281 -0.6313  0.6239
   90SAPS   HN1 8679   0.848   0.427  10.895 -0.0524 -0.5301  0.4379
   90SAPS   HN2 8680   1.002   0.400  10.860  1.1701  1.3959 -1.9557
   90SAPS   HN3 8681   0.915   0.457  10.740 -0.2026 -0.4234  0.7713
   90SAPS   C12 8682   0.849   0.257  10.760 -0.7830  0.2147 -0.3240
   90SAPS  H12A 8683   0.913   0.243  10.674 -1.5253  0.2842 -0.8951
   90SAPS   C13 8684   0.864   0.134  10.855 -0.0835  0.2177 -0.5993
   90SAPS  O13A 8685   0.918   0.141  10.969  0.0643 -1.1488  0.2814
   90SAPS  O13B 8686   0.817   0.020  10.813  0.1939 -0.8645  0.2776
   90SAPS   C11 8687   0.702   0.267  10.729  0.2366 -0.7209 -0.2619
   90SAPS  H11A 8688   0.652   0.280  10.827  2.1921  0.8283  0.6071
   90SAPS  H11B 8689   0.670   0.180  10.669 -2.6912  0.7503 -1.0027
   90SAPS     P 8690   0.552   0.438  10.590 -0.2974  0.0595 -0.1440
   90SAPS   O13 8691   0.444   0.337  10.614 -0.1015  0.2620  0.1742
   90SAPS   O14 8692   0.517   0.574  10.638 -0.1800 -0.7892  0.3812
   90SAPS   O12 8693   0.687   0.392  10.657 -0.0521  0.5572 -0.0892
   90SAPS   O11 8694   0.597   0.451  10.437  0.0176  0.2978  0.2194
   90SAPS    C1 8695   0.730   0.453  10.386  0.4455  0.4702 -0.2529
   90SAPS    HA 8696   0.731   0.547  10.326  0.4511  0.2653 -0.5731
   90SAPS    HB 8697   0.810   0.478  10.460  2.7607  0.0686 -2.4913
   90SAPS    C2 8698   0.769   0.328  10.306 -0.3699 -0.2308 -0.6206
   90SAPS    HS 8699   0.874   0.340  10.273  0.5220  0.4446  2.2255
   90SAPS   O21 8700   0.692   0.307  10.194  0.1961 -0.1461 -0.1678
   90SAPS   C21 8701   0.696   0.401  10.101 -0.6566 -0.0605  0.7054
   90SAPS   O22 8702   0.786   0.484  10.084 -0.0381 -0.5675  0.6761
   90SAPS   C22 8703   0.570   0.389  10.006  0.1083  0.0567  0.6909
   90SAPS   H2R 8704   0.495   0.330  10.062 -1.2522  1.2323  0.1529
   90SAPS   H2S 8705   0.533   0.493   9.997  1.4127  0.4965  0.1761
   90SAPS    C3 8706   0.769   0.200  10.397 -0.1167  0.4126  0.4120
   90SAPS    HX 8707   0.669   0.192  10.444  0.0233  0.2194  0.6775
   90SAPS    HY 8708   0.853   0.211  10.468  0.9055  1.4237 -0.8956
   90SAPS   O31 8709   0.804   0.090  10.313  0.1820  0.0699 -0.2568
   90SAPS   C31 8710   0.727  -0.021  10.308  0.1958 -0.4365 -0.1994
   90SAPS   O32 8711   0.624  -0.041  10.376 -0.6124 -0.5785 -0.7416
   90SAPS   C32 8712   0.781  -0.132  10.220 -0.4479 -0.1572 -0.0113
   90SAPS   H2X 8713   0.798  -0.222  10.283 -0.1181  1.1578  1.8368
   90SAPS   H2Y 8714   0.884  -0.111  10.187 -1.3216  1.4292 -1.8969
   90SAPS   C23 8715   0.600   0.339   9.865 -0.1767 -0.1438 -0.0720
   90SAPS   H3R 8716   0.511   0.330   9.798  1.7876 -0.0895 -2.8796
   90SAPS   H3S 8717   0.640   0.237   9.880  0.9841  0.3242  0.0865
   90SAPS   C24 8718   0.700   0.422   9.783 -0.1415 -0.3596 -0.0812
   90SAPS   H4R 8719   0.738   0.350   9.707  1.2636 -1.0617  1.2340
   90SAPS   H4S 8720   0.793   0.443   9.840 -1.4857  1.5767  1.5516
   90SAPS   C25 8721   0.651   0.556   9.736  0.3127  0.2280 -0.0267
   90SAPS   H5R 8722   0.682   0.644   9.792 -1.7808  0.4815  0.8480
   90SAPS   C26 8723   0.614   0.574   9.606  0.6591 -0.0179 -0.7937
   90SAPS   H6R 8724   0.592   0.676   9.572 -1.6188 -0.5539 -1.1003
   90SAPS   C27 8725   0.590   0.467   9.505  0.3907  0.2404  0.3269
   90SAPS   H7R 8726   0.506   0.499   9.441  0.8967  0.5822 -0.1750
   90SAPS   H7S 8727   0.560   0.368   9.546  1.0577 -0.7403 -1.4474
   90SAPS   C28 8728   0.706   0.453   9.414 -0.0203  0.1560 -0.1428
   90SAPS   H8R 8729   0.800   0.426   9.464  0.0194 -2.0017 -1.2403
   90SAPS   C29 8730   0.719   0.484   9.284  0.3278 -0.0106  0.3136
   90SAPS   H9R 8731   0.814   0.470   9.231  2.6177  0.3810  3.9742
   90SAPS  C210 8732   0.605   0.532   9.193 -0.6569  0.5235 -0.4094
   90SAPS  H10R 8733   0.506   0.520   9.243 -0.6622  1.6692 -0.1294
   90SAPS  H10S 8734   0.594   0.456   9.113  2.0880 -0.8789  0.4095
   90SAPS  C211 8735   0.623   0.673   9.157  0.0159  0.3459 -0.1324
   90SAPS  H11R 8736   0.661   0.742   9.234  0.6783  0.6584 -0.7372
   90SAPS  C212 8737   0.580   0.732   9.043  0.5766  0.2733  0.0909
   90SAPS  H12R 8738   0.597   0.837   9.014  3.8208 -0.5253 -1.3004
   90SAPS  C213 8739   0.493   0.655   8.943  0.5502  0.2659  1.1408
   90SAPS  H13R 8740   0.402   0.715   8.924  1.5080  0.9487 -1.8218
   90SAPS  H13S 8741   0.454   0.562   8.989 -0.1443  0.1600  0.3644
   90SAPS  C214 8742   0.584   0.617   8.827 -0.6129  0.1398  0.1533
   90SAPS  H14R 8743   0.689   0.594   8.853  0.1820  3.9819  1.0624
   90SAPS  C215 8744   0.555   0.630   8.690  0.2467  0.1221  0.3109
   90SAPS  H15R 8745   0.634   0.592   8.623  1.1076 -1.3399  2.0564
   90SAPS  C216 8746   0.414   0.670   8.631  0.3976 -0.5579  0.7353
   90SAPS  H16R 8747   0.343   0.643   8.713  2.0574  0.0182  2.4516
   90SAPS  H16S 8748   0.379   0.616   8.541  1.1783  0.5193 -0.2469
   90SAPS  C217 8749   0.402   0.824   8.609  0.9293  0.5343 -0.0273
   90SAPS  H17R 8750   0.447   0.882   8.692 -2.5950  2.1966  0.9236
   90SAPS  H17S 8751   0.295   0.855   8.609  0.4137 -1.1302  0.5542
   90SAPS  C218 8752   0.473   0.858   8.479  0.5333 -0.1615  0.7654
   90SAPS  H18R 8753   0.457   0.781   8.401 -1.4547  0.6333  0.3318
   90SAPS  H18S 8754   0.581   0.860   8.505  0.4325  1.1817  1.1382
   90SAPS  C219 8755   0.437   0.998   8.427  0.4635  0.8511  0.3269
   90SAPS  H19R 8756   0.331   0.985   8.397 -0.0981 -1.3062  2.8698
   90SAPS  H19S 8757   0.500   0.998   8.335  0.1101 -0.6118  0.0641
   90SAPS  C220 8758   0.454   1.121   8.516  0.5501 -0.3864 -0.3185
   90SAPS  H20R 8759   0.528   1.105   8.598  0.1189  2.3786  0.7220
   90SAPS  H20S 8760   0.357   1.141   8.565 -0.7649 -0.7436 -2.6545
   90SAPS  H20T 8761   0.500   1.195   8.448  1.5290 -0.1060  0.6111
   90SAPS   C33 8762   0.686  -0.164  10.097  0.4598 -0.6775 -0.1768
   90SAPS   H3X 8763   0.594  -0.209  10.140  0.4384 -1.4346 -0.9700
   90SAPS   H3Y 8764   0.743  -0.246  10.048  3.2942  0.6145  0.7693
   90SAPS   C34 8765   0.663  -0.050   9.999 -0.1832  0.6312  0.0432
   90SAPS   H4X 8766   0.734   0.034  10.017  2.2734 -1.0112 -1.2934
   90SAPS   H4Y 8767   0.561  -0.007  10.006  0.1494  1.2488  1.4477
   90SAPS   C35 8768   0.686  -0.096   9.852  0.0754 -0.0809  0.0108
   90SAPS   H5X 8769   0.606  -0.166   9.817  0.4808  0.2785 -1.7136
   90SAPS   H5Y 8770   0.782  -0.151   9.855  0.1559  0.0796  0.5174
   90SAPS   C36 8771   0.686   0.013   9.752 -0.0599  0.1403 -0.4017
   90SAPS   H6X 8772   0.776   0.075   9.770 -0.5776  0.6822  0.3456
   90SAPS   H6Y 8773   0.594   0.062   9.789 -0.4001 -3.0252  3.7045
   90SAPS   C37 8774   0.678  -0.035   9.613 -0.0689  0.0060 -0.1802
   90SAPS   H7X 8775   0.575  -0.077   9.602 -0.6456  0.9576  1.2866
   90SAPS   H7Y 8776   0.757  -0.109   9.586  0.1209 -0.2788  1.1126
   90SAPS   C38 8777   0.685   0.083   9.507  0.1706 -0.4597  0.0778
   90SAPS   H8X 8778   0.770   0.151   9.529 -0.7256  0.4531  0.8423
   90SAPS   H8Y 8779   0.598   0.148   9.532  1.7731  2.1940 -0.8076
   90SAPS   C39 8780   0.677   0.024   9.359 -0.4408  0.6358 -0.4801
   90SAPS   H9X 8781   0.574  -0.017   9.349 -0.3001 -0.1522  0.9976
   90SAPS   H9Y 8782   0.745  -0.064   9.352 -1.0536  0.1928 -0.9795
   90SAPS  C310 8783   0.705   0.121   9.245  0.9613 -0.1478  0.2782
   90SAPS  H10X 8784   0.810   0.157   9.249  0.7750  0.4810 -0.3234
   90SAPS  H10Y 8785   0.639   0.209   9.254  2.3309  0.9322  0.1964
   90SAPS  C311 8786   0.700   0.066   9.099  0.1915 -0.4248  0.3545
   90SAPS  H11X 8787   0.597   0.031   9.077  1.1060 -2.5408 -0.8416
   90SAPS  H11Y 8788   0.783  -0.008   9.096 -0.4188 -1.0970 -1.3987
   90SAPS  C312 8789   0.736   0.168   8.985  0.4498 -0.1545 -0.4678
   90SAPS  H12X 8790   0.844   0.189   8.992  0.0356  1.7389  1.0178
   90SAPS  H12Y 8791   0.681   0.261   9.007 -1.0242 -1.1634  0.3066
   90SAPS  C313 8792   0.714   0.109   8.845 -0.6543 -0.0288  0.0186
   90SAPS  H13X 8793   0.716  -0.002   8.846  2.2689 -0.0864 -1.0109
   90SAPS  H13Y 8794   0.801   0.145   8.785 -0.8650  0.0229 -0.2609
   90SAPS  C314 8795   0.584   0.163   8.784  0.2256 -0.2260 -0.2192
   90SAPS  H14X 8796   0.573   0.273   8.793 -1.5201 -0.3949 -0.0564
   90SAPS  H14Y 8797   0.508   0.118   8.852 -0.0093 -1.7578 -1.4225
   90SAPS  C315 8798   0.583   0.117   8.637  0.7840  0.5738 -0.0714
   90SAPS  H15X 8799   0.588   0.006   8.648  4.0021  0.6245  0.0126
   90SAPS  H15Y 8800   0.673   0.147   8.578  1.0767 -1.2931 -0.6421
   90SAPS  C316 8801   0.457   0.172   8.561  0.5151  0.5513  0.2360
   90SAPS  H16X 8802   0.445   0.281   8.577 -0.2041  0.4671  0.2920
   90SAPS  H16Y 8803   0.365   0.118   8.591 -1.9920  2.8125 -2.7109
   90SAPS  C317 8804   0.457   0.150   8.408 -0.0534 -0.2262  0.5103
   90SAPS  H17X 8805   0.529   0.222   8.365 -0.3541 -0.1982  0.0446
   90SAPS  H17Y 8806   0.353   0.174   8.377  0.2531  1.5827  0.7670
   90SAPS  C318 8807   0.498   0.007   8.372  0.6990 -1.3849 -0.8779
   90SAPS  H18X 8808   0.456  -0.066   8.445 -0.5130 -0.6415 -0.7969
   90SAPS  H18Y 8809   0.608  -0.000   8.377  0.5719 -3.8571 -0.4465
   90SAPS  H18Z 8810   0.457  -0.017   8.272 -2.3850  3.0268 -0.9965
   91SAPS     N 8811   0.009   3.306   6.189 -0.3632  0.1526 -0.1171
   91SAPS   HN1 8812   0.019   3.373   6.267  0.8913  0.4356 -0.4967
   91SAPS   HN2 8813  -0.089   3.276   6.168 -0.1089 -0.9462  0.2163
   91SAPS   HN3 8814   0.061   3.219   6.212 -1.6647 -0.5428  0.2908
   91SAPS   C12 8815   0.066   3.365   6.062 -0.0716 -0.4734  0.4079
   91SAPS  H12A 8816   0.156   3.421   6.085 -1.7415  2.5235  0.0467
   91SAPS   C13 8817   0.125   3.261   5.957 -0.4028 -0.0257  0.1355
   91SAPS  O13A 8818   0.104   3.142   5.981 -0.2421  0.3438  0.0376
   91SAPS  O13B 8819   0.188   3.294   5.855  0.3559  0.1293  1.0405
   91SAPS   C11 8820  -0.034   3.460   5.997  0.1011 -0.7948  0.0963
   91SAPS  H11A 8821  -0.133   3.416   5.974 -0.1871  0.4819 -1.2127
   91SAPS  H11B 8822   0.007   3.476   5.895 -1.0525 -0.8629 -0.3865
   91SAPS     P 8823  -0.160   3.620   6.182 -0.3093  0.1401 -0.3838
   91SAPS   O13 8824  -0.179   3.764   6.169  0.5869 -0.0796  0.9088
   91SAPS   O14 8825  -0.273   3.523   6.176  0.2025  0.5460 -0.2444
   91SAPS   O12 8826  -0.053   3.586   6.063 -0.4287  0.3642  0.7345
   91SAPS   O11 8827  -0.080   3.592   6.317 -0.0674  0.7654  0.5890
   91SAPS    C1 8828   0.055   3.645   6.321 -0.6040  0.1792 -0.1644
   91SAPS    HA 8829   0.129   3.563   6.304  2.4004  2.2741  1.8300
   91SAPS    HB 8830   0.078   3.727   6.249 -1.2724  0.4375 -0.0859
   91SAPS    C2 8831   0.091   3.707   6.457  0.4855 -0.0781  0.4258
   91SAPS    HS 8832   0.198   3.739   6.464  0.9920 -1.1152 -1.7770
   91SAPS   O21 8833   0.072   3.605   6.548 -0.3531  0.1006  0.4674
   91SAPS   C21 8834   0.142   3.597   6.661  0.5882  0.6709 -0.1595
   91SAPS   O22 8835   0.218   3.678   6.709  0.3049 -0.2712 -0.2639
   91SAPS   C22 8836   0.096   3.466   6.731  0.4512  0.7730  0.6315
   91SAPS   H2R 8837  -0.004   3.478   6.779  1.0467  1.0670  1.8427
   91SAPS   H2S 8838   0.086   3.399   6.643  1.4259 -0.1002  1.1628
   91SAPS    C3 8839   0.005   3.826   6.503 -0.0657 -0.0853  0.0825
   91SAPS    HX 8840  -0.100   3.791   6.511 -0.4502  1.4039  2.9298
   91SAPS    HY 8841  -0.016   3.897   6.421  0.9366  3.0541  2.3248
   91SAPS   O31 8842   0.066   3.903   6.614 -0.4054 -0.0787  0.7822
   91SAPS   C31 8843  -0.001   3.880   6.727  0.9454 -0.3213 -0.2863
   91SAPS   O32 8844  -0.101   3.812   6.741 -0.5009  0.1842 -0.6133
   91SAPS   C32 8845   0.078   3.937   6.847 -0.4278 -0.3335 -0.2333
   91SAPS   H2X 8846   0.064   4.046   6.860  1.8797  0.0520 -0.5935
   91SAPS   H2Y 8847   0.186   3.940   6.822 -0.5086  0.6116 -0.4832
   91SAPS   C23 8848   0.185   3.402   6.832  0.2542 -0.1201  0.0723
   91SAPS   H3R 8849   0.291   3.424   6.805 -0.0624 -0.3037 -1.4419
   91SAPS   H3S 8850   0.157   3.295   6.836  0.8308 -0.2464  1.0830
   91SAPS   C24 8851   0.177   3.464   6.976  0.1611 -0.1709 -0.2314
   91SAPS   H4R 8852   0.195   3.574   6.980  0.1674 -0.1425 -0.9006
   91SAPS   H4S 8853   0.266   3.424   7.029  0.4630 -0.4011 -0.8922
   91SAPS   C25 8854   0.054   3.446   7.063 -0.3023  0.2849 -0.4106
   91SAPS   H5R 8855  -0.041   3.459   7.010 -1.0800 -0.9555  0.5949
   91SAPS   C26 8856   0.045   3.419   7.199 -0.8898  0.5067  0.3830
   91SAPS   H6R 8857  -0.053   3.393   7.243 -0.5408 -0.7940  0.4272
   91SAPS   C27 8858   0.161   3.406   7.296 -0.1336 -0.1100 -0.4785
   91SAPS   H7R 8859   0.234   3.488   7.276 -1.1772  0.1674 -3.7094
   91SAPS   H7S 8860   0.215   3.309   7.289  0.3032  0.1503 -0.7715
   91SAPS   C28 8861   0.112   3.443   7.434  0.3570 -0.0130  0.9847
   91SAPS   H8R 8862   0.012   3.488   7.442  1.1314  1.6094  1.7968
   91SAPS   C29 8863   0.188   3.440   7.543  0.3094 -0.0700 -0.2316
   91SAPS   H9R 8864   0.147   3.457   7.643  0.8540 -0.6405  0.0989
   91SAPS  C210 8865   0.337   3.412   7.550  0.1441 -0.7762  0.8280
   91SAPS  H10R 8866   0.383   3.499   7.600 -0.7604  0.8621 -1.0464
   91SAPS  H10S 8867   0.374   3.408   7.445 -0.5810  1.5951  0.4294
   91SAPS  C211 8868   0.352   3.282   7.627  0.3374 -0.5783 -0.1992
   91SAPS  H11R 8869   0.353   3.184   7.578 -0.4183 -1.0442  0.6896
   91SAPS  C212 8870   0.380   3.275   7.759  0.8631 -0.3353  0.3653
   91SAPS  H12R 8871   0.387   3.177   7.810  1.6035 -0.5891 -0.2083
   91SAPS  C213 8872   0.397   3.390   7.854  0.8183 -0.6381 -0.0234
   91SAPS  H13R 8873   0.338   3.370   7.946 -0.0638  2.1778  0.1120
   91SAPS  H13S 8874   0.356   3.482   7.808  2.1305 -0.0349 -0.0328
   91SAPS  C214 8875   0.538   3.412   7.896 -0.6404 -0.1823 -0.3382
   91SAPS  H14R 8876   0.607   3.401   7.811  0.1095  1.1225  0.0857
   91SAPS  C215 8877   0.597   3.412   8.013  0.4284  1.2080  0.4219
   91SAPS  H15R 8878   0.706   3.400   8.014  0.2385 -1.2292 -0.7094
   91SAPS  C216 8879   0.536   3.405   8.144 -0.6749  0.0505 -0.5387
   91SAPS  H16R 8880   0.578   3.312   8.188 -1.2831  0.2443  0.4999
   91SAPS  H16S 8881   0.426   3.386   8.138 -0.8723  0.6321  0.7573
   91SAPS  C217 8882   0.557   3.529   8.234  0.0674 -0.2010 -0.4579
   91SAPS  H17R 8883   0.665   3.554   8.229  0.4093 -0.6440  2.5006
   91SAPS  H17S 8884   0.527   3.501   8.337 -1.2905 -1.5329 -1.1756
   91SAPS  C218 8885   0.476   3.649   8.194  0.1492 -0.3777 -0.4829
   91SAPS  H18R 8886   0.368   3.636   8.218 -0.1659  2.6383  0.1690
   91SAPS  H18S 8887   0.477   3.651   8.083  3.8897  0.4421 -0.5630
   91SAPS  C219 8888   0.518   3.779   8.258  0.1697 -0.1103  0.4697
   91SAPS  H19R 8889   0.621   3.807   8.229  0.0870  2.8021  2.5761
   91SAPS  H19S 8890   0.521   3.764   8.369 -1.4834 -0.8112  0.4582
   91SAPS  C220 8891   0.417   3.894   8.222 -0.3927 -0.2159 -0.3789
   91SAPS  H20R 8892   0.399   3.901   8.112 -1.2585 -0.0701 -0.2360
   91SAPS  H20S 8893   0.472   3.982   8.261  1.8696 -0.9239 -1.7918
   91SAPS  H20T 8894   0.319   3.881   8.273  0.6322  0.2884  1.8530
   91SAPS   C33 8895   0.046   3.869   6.983 -0.1039  0.2110 -0.2277
   91SAPS   H3X 8896   0.075   3.763   6.964 -1.6343 -0.3076  0.2326
   91SAPS   H3Y 8897  -0.064   3.870   6.993 -0.1361  3.5539  0.1510
   91SAPS   C34 8898   0.118   3.932   7.100  0.2388  0.1346  0.0522
   91SAPS   H4X 8899   0.089   4.039   7.106 -3.8575 -0.8414  0.8363
   91SAPS   H4Y 8900   0.228   3.928   7.085  0.4690 -1.5152  1.8509
   91SAPS   C35 8901   0.082   3.860   7.230 -0.2385 -0.5885  0.4576
   91SAPS   H5X 8902   0.132   3.761   7.241 -1.7671 -1.4214  0.3235
   91SAPS   H5Y 8903  -0.028   3.843   7.227 -0.6953  1.8108  1.3382
   91SAPS   C36 8904   0.119   3.939   7.363 -0.0171  0.4258 -0.0194
   91SAPS   H6X 8905   0.068   4.038   7.368  0.7521  0.7950  3.0519
   91SAPS   H6Y 8906   0.229   3.951   7.376 -0.3471  1.5301  2.3649
   91SAPS   C37 8907   0.077   3.858   7.485 -0.5793  0.0841  0.3375
   91SAPS   H7X 8908   0.115   3.753   7.482  1.2792  0.7678 -1.5889
   91SAPS   H7Y 8909  -0.034   3.857   7.495 -0.5327 -1.0773  0.9415
   91SAPS   C38 8910   0.126   3.923   7.614  0.4216 -0.2860  0.0456
   91SAPS   H8X 8911   0.083   4.023   7.636  1.3499 -0.2502  1.9024
   91SAPS   H8Y 8912   0.233   3.944   7.592  0.3881 -1.9352 -1.9721
   91SAPS   C39 8913   0.120   3.833   7.736 -0.2744 -0.8075  0.4259
   91SAPS   H9X 8914   0.185   3.882   7.811  0.4340 -1.2646  0.1255
   91SAPS   H9Y 8915   0.181   3.743   7.714  2.1782  0.4571  1.7064
   91SAPS  C310 8916  -0.026   3.793   7.777 -0.5024  0.1670 -0.1807
   91SAPS  H10X 8917  -0.063   3.722   7.700 -1.6369  0.2732  0.2425
   91SAPS  H10Y 8918  -0.096   3.879   7.786 -2.6542 -1.6550  2.1227
   91SAPS  C311 8919  -0.033   3.724   7.911  0.0502 -0.3811 -0.1996
   91SAPS  H11X 8920  -0.133   3.736   7.958  0.6357  0.8781  0.7987
   91SAPS  H11Y 8921   0.033   3.779   7.981 -1.8860  1.0263  0.6169
   91SAPS  C312 8922   0.007   3.574   7.905 -0.7703 -0.0302 -0.3951
   91SAPS  H12X 8923   0.101   3.570   7.846 -0.0958 -1.6707  0.6990
   91SAPS  H12Y 8924  -0.072   3.515   7.854 -0.1220  0.0480 -1.5079
   91SAPS  C313 8925   0.041   3.505   8.041  0.3566 -0.3609  0.3080
   91SAPS  H13X 8926   0.090   3.578   8.109  0.7161  3.0364 -3.2681
   91SAPS  H13Y 8927   0.113   3.422   8.023  1.1639 -0.5435  3.6234
   91SAPS  C314 8928  -0.086   3.449   8.110 -0.2460  0.7089 -0.9444
   91SAPS  H14X 8929  -0.129   3.378   8.036  1.7508 -1.5295 -0.1011
   91SAPS  H14Y 8930  -0.160   3.531   8.123 -2.3324 -1.0132 -1.2820
   91SAPS  C315 8931  -0.061   3.374   8.243 -0.0764  0.3165  0.2055
   91SAPS  H15X 8932  -0.014   3.456   8.301 -0.0221  0.2193  0.2983
   91SAPS  H15Y 8933   0.014   3.293   8.231 -0.1316 -0.0036  1.8164
   91SAPS  C316 8934  -0.194   3.312   8.291 -0.1733 -0.0278  0.3651
   91SAPS  H16X 8935  -0.220   3.230   8.221  1.7299 -0.7049  0.3726
   91SAPS  H16Y 8936  -0.272   3.391   8.289 -0.8213 -0.6493 -1.9387
   91SAPS  C317 8937  -0.164   3.256   8.430  0.0084 -0.3619 -0.4723
   91SAPS  H17X 8938  -0.129   3.336   8.498 -1.8210  0.8894 -0.9112
   91SAPS  H17Y 8939  -0.077   3.188   8.426  0.3994  0.0235  0.9982
   91SAPS  C318 8940  -0.281   3.189   8.492  0.1843  0.4043  0.4236
   91SAPS  H18X 8941  -0.260   3.183   8.601  0.7690 -1.5950  0.2356
   91SAPS  H18Y 8942  -0.291   3.084   8.458 -2.1131  0.3801  1.0691
   91SAPS  H18Z 8943  -0.380   3.230   8.465  0.4632  0.6245 -0.2987
   92SAPS     N 8944   4.982   4.277   6.185 -0.7298  0.0582 -0.3411
   92SAPS   HN1 8945   5.078   4.291   6.222 -0.9562  0.6410  0.0363
   92SAPS   HN2 8946   4.969   4.332   6.098  0.8715 -1.7508 -1.8295
   92SAPS   HN3 8947   4.905   4.281   6.255 -0.8768 -2.3663 -0.2756
   92SAPS   C12 8948   4.969   4.134   6.134 -0.1768 -0.8498  0.1338
   92SAPS  H12A 8949   4.936   4.070   6.214 -0.3605  1.6089  2.1453
   92SAPS   C13 8950   4.862   4.124   6.026  0.2212  0.0381 -0.6523
   92SAPS  O13A 8951   4.797   4.227   5.994  0.5284  0.1082  0.2473
   92SAPS  O13B 8952   4.842   4.016   5.966 -0.1899 -0.2072  0.4421
   92SAPS   C11 8953   5.103   4.087   6.066 -0.6488 -1.1713  0.4670
   92SAPS  H11A 8954   5.125   4.144   5.973  2.7529 -4.4138 -0.9793
   92SAPS  H11B 8955   5.090   3.987   6.019  1.2663 -0.8386 -0.8914
   92SAPS     P 8956   5.262   3.967   6.240 -0.1302  0.2784  0.0890
   92SAPS   O13 8957   5.145   3.929   6.327  0.1676  0.0594 -0.2112
   92SAPS   O14 8958   5.313   3.864   6.149  0.0203  0.2440  0.2564
   92SAPS   O12 8959   5.221   4.101   6.154  0.1384  0.0400 -0.5210
   92SAPS   O11 8960   5.379   4.012   6.340 -0.4600  0.1327 -0.0570
   92SAPS    C1 8961   5.356   4.123   6.428  0.7088 -0.1255  0.5761
   92SAPS    HA 8962   5.414   4.203   6.377  0.2980 -0.0294  0.2619
   92SAPS    HB 8963   5.257   4.172   6.430  1.3968  1.3363  2.0691
   92SAPS    C2 8964   5.425   4.123   6.564  1.1215 -0.6211 -0.6390
   92SAPS    HS 8965   5.525   4.075   6.565  1.7115  0.4665 -2.5952
   92SAPS   O21 8966   5.344   4.046   6.655  0.5527 -0.8114  0.2025
   92SAPS   C21 8967   5.342   3.910   6.650 -0.2700  0.1367 -0.2414
   92SAPS   O22 8968   5.409   3.839   6.583 -0.3580  0.1394  0.2278
   92SAPS   C22 8969   5.239   3.872   6.758  0.4133 -0.4638  0.3989
   92SAPS   H2R 8970   5.256   3.930   6.851  0.1477  0.8387 -0.3511
   92SAPS   H2S 8971   5.136   3.888   6.720  1.0904  4.7965  0.1379
   92SAPS    C3 8972   5.448   4.269   6.627 -0.1179  0.0261  0.2494
   92SAPS    HX 8973   5.369   4.340   6.595 -1.2189 -1.2415  0.0280
   92SAPS    HY 8974   5.545   4.293   6.579  0.8036 -0.5536  1.7592
   92SAPS   O31 8975   5.465   4.263   6.774 -0.2118 -0.0825  0.2701
   92SAPS   C31 8976   5.518   4.374   6.831 -0.5486  0.2980  0.1888
   92SAPS   O32 8977   5.547   4.475   6.771  0.1160 -0.1518 -0.8059
   92SAPS   C32 8978   5.501   4.364   6.980  0.0748 -0.4803  1.0297
   92SAPS   H2X 8979   5.515   4.258   7.010  0.4469 -1.1873 -1.4247
   92SAPS   H2Y 8980   5.396   4.391   7.003 -0.9974 -2.4004 -1.2252
   92SAPS   C23 8981   5.234   3.720   6.785 -0.1521  0.3132  0.5019
   92SAPS   H3R 8982   5.210   3.668   6.690  0.7887 -0.9068  0.8962
   92SAPS   H3S 8983   5.149   3.704   6.856  0.2010 -0.2882  0.7998
   92SAPS   C24 8984   5.354   3.649   6.842 -0.2997  0.2775 -1.4452
   92SAPS   H4R 8985   5.439   3.677   6.775 -0.6127  1.9428 -1.1856
   92SAPS   H4S 8986   5.333   3.540   6.834 -1.0808  0.3211 -0.1507
   92SAPS   C25 8987   5.397   3.685   6.988 -0.8909  0.5392 -0.0253
   92SAPS   H5R 8988   5.332   3.635   7.061 -0.0042 -1.4371 -0.5245
   92SAPS   C26 8989   5.501   3.753   7.032  0.4899 -0.3815  0.0993
   92SAPS   H6R 8990   5.529   3.762   7.138  2.8751 -0.9088 -0.4239
   92SAPS   C27 8991   5.606   3.825   6.956  0.4638  1.3953 -0.3702
   92SAPS   H7R 8992   5.578   3.843   6.850 -0.3227 -1.0962 -0.6654
   92SAPS   H7S 8993   5.694   3.758   6.960  1.5515  2.6890 -1.6053
   92SAPS   C28 8994   5.649   3.954   7.028 -0.2992 -0.7512 -0.5510
   92SAPS   H8R 8995   5.574   4.034   7.021  0.2726 -0.1180  0.3712
   92SAPS   C29 8996   5.741   3.982   7.121 -0.6097 -0.0496 -0.6938
   92SAPS   H9R 8997   5.748   4.088   7.147  0.2346 -0.2937  0.1749
   92SAPS  C210 8998   5.847   3.898   7.185 -0.2062  0.2433 -0.0934
   92SAPS  H10R 8999   5.849   3.798   7.137  1.6631 -0.2670  0.9359
   92SAPS  H10S 9000   5.818   3.885   7.292  0.9331  1.6538  0.4199
   92SAPS  C211 9001   5.982   3.954   7.159  0.2723  0.0609 -1.1957
   92SAPS  H11R 9002   6.010   3.968   7.054 -0.5821  1.4318 -1.2745
   92SAPS  C212 9003   6.077   3.992   7.252  0.2143  0.3868  0.2777
   92SAPS  H12R 9004   6.179   4.023   7.227  1.5678 -2.7456  1.3438
   92SAPS  C213 9005   6.063   3.984   7.397  0.5133  0.3237  0.0469
   92SAPS  H13R 9006   6.164   3.956   7.436  0.2129 -1.1262 -0.1444
   92SAPS  H13S 9007   5.996   3.904   7.436  0.6121  0.1629 -0.1122
   92SAPS  C214 9008   6.008   4.112   7.459  0.0650  0.2428 -0.5896
   92SAPS  H14R 9009   5.965   4.183   7.388  0.2971 -1.6898 -2.7699
   92SAPS  C215 9010   6.006   4.145   7.590  0.2966  0.6380  0.0266
   92SAPS  H15R 9011   5.958   4.241   7.611  0.6181  1.0038 -0.8498
   92SAPS  C216 9012   6.047   4.073   7.720  0.2988 -0.0968 -0.2410
   92SAPS  H16R 9013   6.098   3.977   7.697  0.6848  0.1754 -0.5287
   92SAPS  H16S 9014   5.956   4.060   7.782 -0.8321 -0.9401 -2.0222
   92SAPS  C217 9015   6.146   4.156   7.806 -0.4679  0.4703  0.3539
   92SAPS  H17R 9016   6.105   4.259   7.812 -0.7486  0.3478  0.5687
   92SAPS  H17S 9017   6.240   4.156   7.748 -1.9246  0.4304 -2.1802
   92SAPS  C218 9018   6.175   4.085   7.939  0.9822 -0.4564  0.1739
   92SAPS  H18R 9019   6.249   4.005   7.917  3.4553  2.2303 -2.1987
   92SAPS  H18S 9020   6.084   4.035   7.979  1.9888 -0.1396  3.1316
   92SAPS  C219 9021   6.236   4.179   8.039 -0.0210  0.2098  0.2372
   92SAPS  H19R 9022   6.184   4.277   8.033  1.3852  0.9136 -1.1500
   92SAPS  H19S 9023   6.345   4.190   8.019  0.0192  0.2082  0.4524
   92SAPS  C220 9024   6.227   4.116   8.183 -0.3189  0.3936  0.6277
   92SAPS  H20R 9025   6.274   4.187   8.254 -1.8669  0.6459  1.4510
   92SAPS  H20S 9026   6.284   4.021   8.179  0.3306  0.8144 -0.6445
   92SAPS  H20T 9027   6.119   4.106   8.207 -0.8866 -0.2844 -1.8897
   92SAPS   C33 9028   5.602   4.455   7.059 -0.8451  0.0389  0.3928
   92SAPS   H3X 9029   5.564   4.558   7.036 -0.4163  0.5620  1.9127
   92SAPS   H3Y 9030   5.700   4.461   7.007 -1.7108  0.2089 -1.2993
   92SAPS   C34 9031   5.609   4.422   7.205 -0.1371 -0.6789 -0.0363
   92SAPS   H4X 9032   5.599   4.313   7.223  0.7895 -0.6613  0.5862
   92SAPS   H4Y 9033   5.512   4.454   7.250  1.9442  2.0360  2.9473
   92SAPS   C35 9034   5.720   4.486   7.294  0.1207 -0.3623 -0.2310
   92SAPS   H5X 9035   5.731   4.594   7.269  0.2693 -0.5788 -1.1715
   92SAPS   H5Y 9036   5.812   4.431   7.265  0.3488  0.5319 -1.2507
   92SAPS   C36 9037   5.683   4.486   7.445  0.9370  0.1155 -0.5870
   92SAPS   H6X 9038   5.771   4.523   7.501 -0.8103  0.4467  2.1427
   92SAPS   H6Y 9039   5.656   4.382   7.472  2.2640 -0.3059 -0.8218
   92SAPS   C37 9040   5.575   4.592   7.493 -0.2949  0.1701 -0.1924
   92SAPS   H7X 9041   5.496   4.582   7.416 -0.0942 -4.2772 -0.0952
   92SAPS   H7Y 9042   5.613   4.696   7.486 -0.9658  0.3386 -1.7563
   92SAPS   C38 9043   5.534   4.572   7.637 -0.2586  0.0815  0.7725
   92SAPS   H8X 9044   5.623   4.566   7.703 -0.9940  1.6920  1.9774
   92SAPS   H8Y 9045   5.470   4.482   7.647  2.5158 -2.0031  0.7225
   92SAPS   C39 9046   5.454   4.696   7.685  0.5844 -0.1834  0.1974
   92SAPS   H9X 9047   5.346   4.700   7.658  0.7013 -3.1474 -1.0054
   92SAPS   H9Y 9048   5.507   4.781   7.636 -1.2240  0.6917 -0.3357
   92SAPS  C310 9049   5.460   4.710   7.834  0.1851 -0.5022  0.4384
   92SAPS  H10X 9050   5.448   4.814   7.873  3.2936 -0.1348  0.6638
   92SAPS  H10Y 9051   5.566   4.698   7.864  0.5878  3.8171  1.4322
   92SAPS  C311 9052   5.381   4.606   7.917 -0.0176  0.2062  0.4374
   92SAPS  H11X 9053   5.398   4.502   7.881  1.1798 -0.3739  2.5480
   92SAPS  H11Y 9054   5.274   4.636   7.921  0.5588  2.3614  0.6294
   92SAPS  C312 9055   5.433   4.592   8.056 -0.2869 -0.8807 -0.1444
   92SAPS  H12X 9056   5.521   4.525   8.069  1.1687  0.9704 -0.0179
   92SAPS  H12Y 9057   5.354   4.547   8.120 -0.6690  1.0517  0.8237
   92SAPS  C313 9058   5.456   4.725   8.139 -0.2218  0.2558 -0.2781
   92SAPS  H13X 9059   5.365   4.788   8.130  0.4370  1.4428  1.0020
   92SAPS  H13Y 9060   5.548   4.780   8.111 -0.5905  1.1340  0.1937
   92SAPS  C314 9061   5.469   4.690   8.288 -0.4989 -0.0781 -0.2729
   92SAPS  H14X 9062   5.559   4.628   8.311 -0.7287  0.4819  2.4350
   92SAPS  H14Y 9063   5.388   4.625   8.328 -1.5014  1.8515  1.0040
   92SAPS  C315 9064   5.484   4.820   8.375 -1.0820  0.5379  0.4942
   92SAPS  H15X 9065   5.421   4.901   8.332 -1.1243  0.5541  0.5871
   92SAPS  H15Y 9066   5.591   4.837   8.352 -1.1173  0.9021  0.6031
   92SAPS  C316 9067   5.473   4.808   8.535 -0.2443 -0.0737  0.6639
   92SAPS  H16X 9068   5.371   4.773   8.560 -0.7563  2.0917  1.9222
   92SAPS  H16Y 9069   5.479   4.910   8.579 -2.4492  0.5312 -0.2930
   92SAPS  C317 9070   5.571   4.709   8.596 -0.2831 -0.7198 -0.5045
   92SAPS  H17X 9071   5.673   4.749   8.578  0.1468 -1.8600 -0.6381
   92SAPS  H17Y 9072   5.573   4.609   8.549  0.8456 -0.8314 -0.2359
   92SAPS  C318 9073   5.555   4.696   8.753 -0.1066  0.4905 -0.0719
   92SAPS  H18X 9074   5.639   4.641   8.801 -1.1534 -0.3409  0.8517
   92SAPS  H18Y 9075   5.464   4.637   8.770  1.2829 -1.6416  0.3171
   92SAPS  H18Z 9076   5.554   4.800   8.792  2.1886  0.0651  1.3337
   93SAPS     N 9077   0.439   3.207   6.481  0.3462  0.4746 -0.7684
   93SAPS   HN1 9078   0.421   3.293   6.427 -0.0915  0.7577 -0.1807
   93SAPS   HN2 9079   0.509   3.232   6.554 -0.4532 -0.8285  0.5227
   93SAPS   HN3 9080   0.492   3.156   6.407  0.0569  1.0408 -1.3781
   93SAPS   C12 9081   0.305   3.162   6.525  0.1662  0.4715  0.8151
   93SAPS  H12A 9082   0.276   3.243   6.591 -0.3366  0.0367  1.1325
   93SAPS   C13 9083   0.209   3.157   6.400 -0.4463 -0.7958 -0.0340
   93SAPS  O13A 9084   0.246   3.178   6.282  0.5178  0.8845  0.2372
   93SAPS  O13B 9085   0.085   3.145   6.426 -0.0250 -0.7170 -0.0948
   93SAPS   C11 9086   0.311   3.017   6.594  0.9346  0.0719  0.8437
   93SAPS  H11A 9087   0.205   2.997   6.621  0.0688  2.0975 -0.8159
   93SAPS  H11B 9088   0.378   3.012   6.683  4.2679  0.6631 -1.4116
   93SAPS     P 9089   0.317   2.766   6.523  0.2189  0.2171 -0.2738
   93SAPS   O13 9090   0.208   2.757   6.422  0.3419  0.0167 -0.2985
   93SAPS   O14 9091   0.432   2.677   6.506 -0.2248  0.0445  0.3456
   93SAPS   O12 9092   0.354   2.915   6.507 -0.2697 -0.0685 -0.2549
   93SAPS   O11 9093   0.264   2.757   6.667 -0.1535 -0.4321 -0.2443
   93SAPS    C1 9094   0.190   2.651   6.724 -0.6801 -0.4361  0.4411
   93SAPS    HA 9095   0.190   2.568   6.650  3.3032 -1.6294  1.5401
   93SAPS    HB 9096   0.240   2.601   6.810 -3.5715 -3.9085  0.3679
   93SAPS    C2 9097   0.050   2.696   6.767  0.2680 -1.1337  0.3909
   93SAPS    HS 9098  -0.011   2.711   6.676 -1.1669  3.2186  1.8323
   93SAPS   O21 9099   0.067   2.820   6.842  0.1527 -0.4802 -0.1222
   93SAPS   C21 9100  -0.028   2.904   6.815 -0.4062 -0.2005  0.0789
   93SAPS   O22 9101  -0.119   2.887   6.735  0.0067 -0.1392 -0.2903
   93SAPS   C22 9102  -0.011   3.033   6.902 -0.1027 -0.0204 -0.0217
   93SAPS   H2R 9103   0.011   3.114   6.831  0.9561  1.1128  1.5395
   93SAPS   H2S 9104  -0.112   3.055   6.944 -0.0153 -1.2161  0.8929
   93SAPS    C3 9105  -0.026   2.598   6.860 -0.7037  0.2931  0.0448
   93SAPS    HX 9106  -0.036   2.502   6.807 -1.9372  0.2366  0.3455
   93SAPS    HY 9107  -0.128   2.642   6.863 -1.3679 -1.2423  0.5090
   93SAPS   O31 9108   0.026   2.570   6.996  1.0560 -0.3641  0.7618
   93SAPS   C31 9109  -0.078   2.545   7.078  0.0364  0.2119 -0.2761
   93SAPS   O32 9110  -0.187   2.506   7.042  0.0142 -0.0082 -0.0201
   93SAPS   C32 9111  -0.045   2.595   7.218 -0.0030  0.1242 -0.8896
   93SAPS   H2X 9112  -0.094   2.691   7.244  2.7359  0.9115  2.0144
   93SAPS   H2Y 9113   0.065   2.611   7.219 -0.1333  1.1784 -1.4070
   93SAPS   C23 9114   0.092   3.022   7.019 -0.0019  0.2929 -0.5355
   93SAPS   H3R 9115   0.088   3.117   7.076  0.7520  0.6881 -1.1087
   93SAPS   H3S 9116   0.196   3.012   6.981 -0.4619  0.1670 -1.8202
   93SAPS   C24 9117   0.071   2.909   7.124 -0.5693 -0.4283  0.1233
   93SAPS   H4R 9118   0.103   2.821   7.065 -1.5181  0.3993 -1.7264
   93SAPS   H4S 9119  -0.035   2.898   7.154 -0.6629 -1.7185 -0.6246
   93SAPS   C25 9120   0.174   2.945   7.230  0.3896 -0.8205 -0.9734
   93SAPS   H5R 9121   0.277   2.923   7.201  0.1546 -2.1240 -0.8745
   93SAPS   C26 9122   0.137   3.001   7.350 -0.6078 -0.3892  0.2602
   93SAPS   H6R 9123   0.217   3.020   7.424  0.4173 -0.4655 -0.7996
   93SAPS   C27 9124   0.007   3.036   7.408 -0.6557  0.0397  0.8577
   93SAPS   H7R 9125  -0.050   2.940   7.407 -1.0791  0.2144  2.9057
   93SAPS   H7S 9126  -0.047   3.104   7.339  1.3313 -0.3503 -1.1962
   93SAPS   C28 9127   0.027   3.100   7.544 -0.1110  0.9246  0.7376
   93SAPS   H8R 9128   0.087   3.192   7.537  0.5792  0.3329 -2.0302
   93SAPS   C29 9129  -0.029   3.075   7.664  0.2936  0.5130 -0.1406
   93SAPS   H9R 9130   0.002   3.145   7.743 -1.7811  0.9548  0.3558
   93SAPS  C210 9131  -0.126   2.963   7.694 -0.7951  0.3277 -0.2500
   93SAPS  H10R 9132  -0.186   2.934   7.605 -2.0029 -0.5438  0.8001
   93SAPS  H10S 9133  -0.206   2.991   7.766 -2.3680 -1.4239 -1.2098
   93SAPS  C211 9134  -0.047   2.846   7.753  0.3081 -0.3432 -0.0555
   93SAPS  H11R 9135  -0.001   2.781   7.678  0.7215 -0.9148  0.6827
   93SAPS  C212 9136  -0.023   2.846   7.888  0.6885  0.2636  0.1772
   93SAPS  H12R 9137   0.023   2.756   7.931  0.1907 -0.4682 -0.8033
   93SAPS  C213 9138  -0.064   2.956   7.984  0.8227  0.0930 -1.0164
   93SAPS  H13R 9139  -0.106   3.045   7.932 -0.3938  0.4575  0.5124
   93SAPS  H13S 9140   0.022   2.992   8.045  0.2781  1.7039 -1.1498
   93SAPS  C214 9141  -0.169   2.902   8.082 -0.0712 -0.2461  0.5416
   93SAPS  H14R 9142  -0.269   2.900   8.036  0.2083  2.4465 -0.3695
   93SAPS  C215 9143  -0.148   2.860   8.207 -0.4054  0.0749  0.1727
   93SAPS  H15R 9144  -0.234   2.816   8.260 -0.1483 -0.7244 -0.0669
   93SAPS  C216 9145  -0.023   2.866   8.291 -0.4703 -0.5524  0.0747
   93SAPS  H16R 9146  -0.034   2.942   8.371 -4.4490  1.2256 -1.8612
   93SAPS  H16S 9147   0.063   2.902   8.231 -1.4967  2.2511  0.1341
   93SAPS  C217 9148   0.015   2.725   8.345 -0.6296  0.6571  0.3935
   93SAPS  H17R 9149  -0.072   2.674   8.390 -0.5028  1.2909  1.3828
   93SAPS  H17S 9150   0.094   2.735   8.423  1.3006  1.2576 -1.5354
   93SAPS  C218 9151   0.068   2.636   8.235  0.0947  0.2496  0.4057
   93SAPS  H18R 9152   0.154   2.692   8.194 -0.6689  1.2252  0.0916
   93SAPS  H18S 9153   0.003   2.619   8.146  0.0956 -0.4841  0.5421
   93SAPS  C219 9154   0.120   2.499   8.292  0.5424  1.0073  0.6409
   93SAPS  H19R 9155   0.036   2.453   8.348  0.3351  1.2313  0.5213
   93SAPS  H19S 9156   0.208   2.516   8.358  0.9190  1.4187  0.0459
   93SAPS  C220 9157   0.174   2.400   8.186 -0.0045  0.0940 -0.2326
   93SAPS  H20R 9158   0.105   2.387   8.099 -0.6295  0.1132  0.2558
   93SAPS  H20S 9159   0.191   2.303   8.236 -1.6782  1.5223  3.4412
   93SAPS  H20T 9160   0.269   2.436   8.142  1.1867 -1.8315  0.6491
   93SAPS   C33 9161  -0.077   2.489   7.329  0.4849  0.9636 -0.1609
   93SAPS   H3X 9162  -0.023   2.396   7.302 -0.1518  0.6266 -0.2929
   93SAPS   H3Y 9163  -0.186   2.467   7.327  0.6785  0.0404 -1.2753
   93SAPS   C34 9164  -0.027   2.522   7.469 -0.3108  0.1043  0.2090
   93SAPS   H4X 9165  -0.098   2.598   7.509 -1.0243  0.2679 -1.3012
   93SAPS   H4Y 9166   0.069   2.576   7.457 -1.9816  3.5195  0.9439
   93SAPS   C35 9167  -0.008   2.411   7.566  0.4125  0.3150  1.1303
   93SAPS   H5X 9168   0.061   2.341   7.513 -0.1779  1.2517 -0.9723
   93SAPS   H5Y 9169  -0.106   2.359   7.571  0.0229  0.8952 -0.0712
   93SAPS   C36 9170   0.042   2.463   7.697 -0.2434  0.0773 -0.2790
   93SAPS   H6X 9171  -0.013   2.555   7.725  0.7371  0.4050  0.6297
   93SAPS   H6Y 9172   0.144   2.505   7.697 -0.5179  0.7696  0.3239
   93SAPS   C37 9173   0.032   2.355   7.808  0.2717  0.3654  0.2181
   93SAPS   H7X 9174  -0.073   2.353   7.841 -0.6143 -0.0867 -2.3726
   93SAPS   H7Y 9175   0.111   2.397   7.875  0.7698 -2.0052  1.2060
   93SAPS   C38 9176   0.089   2.215   7.778 -0.1569 -0.3905  0.4058
   93SAPS   H8X 9177   0.191   2.227   7.737  0.0160 -1.5079  0.4552
   93SAPS   H8Y 9178   0.027   2.151   7.711 -0.4637 -1.8449  2.0042
   93SAPS   C39 9179   0.114   2.122   7.905 -0.0375 -0.1622  0.0390
   93SAPS   H9X 9180   0.178   2.174   7.979 -1.7503  1.6123  0.3697
   93SAPS   H9Y 9181   0.169   2.037   7.860 -0.1609  0.0964 -0.6086
   93SAPS  C310 9182  -0.019   2.076   7.975 -0.5954  0.6019  0.5005
   93SAPS  H10X 9183  -0.097   2.063   7.896  0.6797  0.1791 -0.7393
   93SAPS  H10Y 9184  -0.057   2.150   8.048  0.1469  0.3758  1.1269
   93SAPS  C311 9185   0.018   1.948   8.051  0.3452  0.1672  0.0172
   93SAPS  H11X 9186   0.098   1.972   8.123  2.7470  2.3472 -3.0665
   93SAPS  H11Y 9187   0.052   1.865   7.985 -1.5110 -2.2709  1.9180
   93SAPS  C312 9188  -0.083   1.876   8.140  0.6913 -0.2662  0.1869
   93SAPS  H12X 9189  -0.159   1.820   8.082  4.1019 -5.2998 -0.0425
   93SAPS  H12Y 9190  -0.133   1.950   8.205 -0.0739 -0.5522 -0.0635
   93SAPS  C313 9191  -0.024   1.769   8.233 -0.2327  0.3748 -0.1106
   93SAPS  H13X 9192  -0.091   1.741   8.317  0.3469 -1.0332 -0.0828
   93SAPS  H13Y 9193   0.065   1.815   8.281 -0.1687  0.2516 -0.1114
   93SAPS  C314 9194   0.009   1.643   8.164  0.7251  1.1485  0.8000
   93SAPS  H14X 9195   0.095   1.661   8.096  0.0109 -1.4860 -0.9541
   93SAPS  H14Y 9196  -0.070   1.603   8.097  2.8015 -0.3960 -0.8683
   93SAPS  C315 9197   0.044   1.517   8.255 -0.9741 -0.1519 -0.7814
   93SAPS  H15X 9198  -0.046   1.515   8.321 -1.6014  0.6690 -1.5837
   93SAPS  H15Y 9199   0.129   1.540   8.323 -0.7565 -0.6500 -0.8741
   93SAPS  C316 9200   0.073   1.382   8.191  0.7317 -0.3073  0.1858
   93SAPS  H16X 9201   0.148   1.391   8.109 -0.3889 -2.6660 -1.2078
   93SAPS  H16Y 9202  -0.018   1.349   8.137 -0.4288  2.6946  0.1143
   93SAPS  C317 9203   0.114   1.265   8.289 -0.1111 -0.2795  0.5941
   93SAPS  H17X 9204   0.210   1.302   8.332  0.8826  0.4643 -2.0137
   93SAPS  H17Y 9205   0.143   1.183   8.221 -0.6447 -0.6913  0.8586
   93SAPS  C318 9206  -0.005   1.206   8.366 -0.2449 -0.4990 -0.0237
   93SAPS  H18X 9207  -0.049   1.289   8.427  1.4528  1.7596 -1.6971
   93SAPS  H18Y 9208   0.041   1.126   8.427  1.0236  1.0470  1.1380
   93SAPS  H18Z 9209  -0.089   1.174   8.300 -1.4968  0.3091  1.1089
   94SAPS     N 9210   6.499   4.980   5.903  0.6173 -0.7939 -0.4112
   94SAPS   HN1 9211   6.398   5.003   5.893  0.6785 -0.4402 -0.2138
   94SAPS   HN2 9212   6.527   4.920   5.822  1.2588 -0.2062 -0.6306
   94SAPS   HN3 9213   6.516   4.932   5.993  0.0289  1.7793  1.1620
   94SAPS   C12 9214   6.572   5.111   5.886 -0.3925 -1.0993 -1.3070
   94SAPS  H12A 9215   6.576   5.135   5.781  1.9861  1.0063 -0.8263
   94SAPS   C13 9216   6.515   5.234   5.969  0.6420 -0.0479  0.1457
   94SAPS  O13A 9217   6.413   5.224   6.040  0.5640  0.2509  0.5721
   94SAPS  O13B 9218   6.561   5.348   5.939  0.3776  0.1764  0.0040
   94SAPS   C11 9219   6.728   5.091   5.924 -0.6735  0.1481 -0.1754
   94SAPS  H11A 9220   6.733   5.083   6.034  0.0948 -2.6735 -0.3555
   94SAPS  H11B 9221   6.780   5.174   5.871 -1.1152  1.2063  0.9982
   94SAPS     P 9222   6.937   4.940   5.911  0.9709  0.4561 -0.1155
   94SAPS   O13 9223   6.974   4.808   5.852 -0.4191  0.1991  0.4997
   94SAPS   O14 9224   7.025   5.053   5.880 -0.2413 -0.0169  0.5000
   94SAPS   O12 9225   6.786   4.971   5.879  0.0340 -0.9391  0.0181
   94SAPS   O11 9226   6.938   4.934   6.069 -0.3577 -0.0291  0.2535
   94SAPS    C1 9227   6.867   4.829   6.137 -0.6016  0.1362  0.4960
   94SAPS    HA 9228   6.757   4.836   6.133 -0.7889 -2.2033  0.5798
   94SAPS    HB 9229   6.875   4.729   6.090  4.5043  0.2576  0.4576
   94SAPS    C2 9230   6.900   4.833   6.287  0.7290  0.4996 -0.0344
   94SAPS    HS 9231   6.817   4.789   6.347  1.8992  0.4576  1.6257
   94SAPS   O21 9232   6.918   4.966   6.339 -0.0264  0.3494 -0.7630
   94SAPS   C21 9233   6.805   5.042   6.355 -0.4935 -0.3431  0.4937
   94SAPS   O22 9234   6.698   5.003   6.323  0.3313  0.4796 -0.1393
   94SAPS   C22 9235   6.832   5.170   6.437 -1.1573  0.2895 -0.1684
   94SAPS   H2R 9236   6.932   5.159   6.483 -1.4510 -2.5748 -0.0628
   94SAPS   H2S 9237   6.836   5.263   6.376  0.1534  1.2764  1.3301
   94SAPS    C3 9238   7.031   4.753   6.313  0.7032  0.1873  0.1065
   94SAPS    HX 9239   7.108   4.790   6.242  0.5223 -1.8004 -1.1746
   94SAPS    HY 9240   7.006   4.650   6.283 -0.6599  0.5813 -0.1736
   94SAPS   O31 9241   7.062   4.760   6.457 -0.8729  0.4807 -0.8007
   94SAPS   C31 9242   7.151   4.858   6.492 -0.8306  0.4276  0.3391
   94SAPS   O32 9243   7.197   4.941   6.415 -0.0404  0.4711  0.6739
   94SAPS   C32 9244   7.157   4.866   6.640 -0.3705 -0.1563 -0.0788
   94SAPS   H2X 9245   7.262   4.898   6.658  0.2378 -1.1440 -1.6153
   94SAPS   H2Y 9246   7.147   4.770   6.694  1.6863 -0.3514  0.0399
   94SAPS   C23 9247   6.727   5.198   6.548 -0.2962 -0.2454 -0.9165
   94SAPS   H3R 9248   6.714   5.113   6.618 -0.5312 -0.0337 -0.6994
   94SAPS   H3S 9249   6.626   5.216   6.505 -0.2493  1.4689 -0.3951
   94SAPS   C24 9250   6.780   5.323   6.616 -0.0488 -0.1448 -0.2392
   94SAPS   H4R 9251   6.777   5.400   6.536 -0.0453  2.0763  1.7942
   94SAPS   H4S 9252   6.886   5.305   6.643  0.0044  0.7752  0.2115
   94SAPS   C25 9253   6.703   5.388   6.723  0.7908  0.1722  0.1285
   94SAPS   H5R 9254   6.633   5.465   6.688  2.1426  0.4706 -2.0932
   94SAPS   C26 9255   6.720   5.366   6.855 -0.2609 -0.9844 -0.0703
   94SAPS   H6R 9256   6.647   5.415   6.923  1.2542 -1.9998  2.4404
   94SAPS   C27 9257   6.826   5.277   6.915 -0.1447  0.3040  0.3261
   94SAPS   H7R 9258   6.926   5.325   6.907  0.1984 -0.5083 -0.3037
   94SAPS   H7S 9259   6.834   5.186   6.853  0.1768  0.9214 -0.5582
   94SAPS   C28 9260   6.801   5.242   7.065  0.1503  0.0114 -0.3891
   94SAPS   H8R 9261   6.809   5.132   7.069  0.3705  0.0244 -0.4166
   94SAPS   C29 9262   6.798   5.319   7.175 -0.3711  0.2237 -0.2627
   94SAPS   H9R 9263   6.764   5.273   7.269  1.4938  0.6919  0.6795
   94SAPS  C210 9264   6.825   5.465   7.177 -0.7740  0.3777  0.0105
   94SAPS  H10R 9265   6.857   5.503   7.078 -0.1372 -0.2330 -0.0299
   94SAPS  H10S 9266   6.902   5.484   7.254 -1.7791 -0.2953  1.2343
   94SAPS  C211 9267   6.692   5.534   7.209 -0.1129  0.0944  0.4173
   94SAPS  H11R 9268   6.633   5.551   7.118  1.7282  0.1866 -0.8160
   94SAPS  C212 9269   6.637   5.577   7.324  0.5148 -0.2895 -0.8864
   94SAPS  H12R 9270   6.533   5.612   7.331 -0.2802 -2.1562 -2.2543
   94SAPS  C213 9271   6.710   5.555   7.449  0.7121  0.1531  1.0037
   94SAPS  H13R 9272   6.733   5.654   7.496 -1.2093  1.2775 -0.2878
   94SAPS  H13S 9273   6.807   5.509   7.421  0.4121  0.4001 -0.5015
   94SAPS  C214 9274   6.629   5.463   7.531 -0.0633 -0.4892 -0.4116
   94SAPS  H14R 9275   6.575   5.375   7.491 -1.3593 -0.2595  0.7610
   94SAPS  C215 9276   6.627   5.469   7.669  1.2727 -0.3255 -0.7037
   94SAPS  H15R 9277   6.557   5.405   7.726 -0.8412  0.9763 -1.7074
   94SAPS  C216 9278   6.691   5.575   7.758  0.5872  0.4773  0.0609
   94SAPS  H16R 9279   6.721   5.665   7.699 -1.2628  1.0767 -0.0140
   94SAPS  H16S 9280   6.783   5.532   7.803 -0.6471 -2.4776 -0.0470
   94SAPS  C217 9281   6.595   5.635   7.868 -0.0158  0.4898  0.8490
   94SAPS  H17R 9282   6.509   5.684   7.818  0.3236 -2.1679 -2.7552
   94SAPS  H17S 9283   6.661   5.707   7.921  0.7519 -1.1958  2.3294
   94SAPS  C218 9284   6.550   5.532   7.970  0.2375 -0.0527 -0.3957
   94SAPS  H18R 9285   6.642   5.488   8.013 -0.4420 -2.0410 -0.8635
   94SAPS  H18S 9286   6.503   5.443   7.923 -1.3057  0.8976 -0.7105
   94SAPS  C219 9287   6.478   5.593   8.087  0.1461 -0.0230 -0.4133
   94SAPS  H19R 9288   6.381   5.631   8.047  0.0971 -1.7356 -2.0781
   94SAPS  H19S 9289   6.536   5.673   8.137  2.0031 -1.1871 -0.6254
   94SAPS  C220 9290   6.438   5.497   8.205 -0.0078  0.7083  0.5374
   94SAPS  H20R 9291   6.382   5.550   8.285 -1.1867 -0.5131  0.5548
   94SAPS  H20S 9292   6.530   5.463   8.258 -0.1128  1.0838  0.9731
   94SAPS  H20T 9293   6.381   5.415   8.157 -0.2106  0.9264  0.4002
   94SAPS   C33 9294   7.066   4.971   6.702  0.0934  0.9062  0.1192
   94SAPS   H3X 9295   6.962   4.937   6.681 -1.5877  3.6216  3.0455
   94SAPS   H3Y 9296   7.079   5.078   6.677  0.0258  0.8074 -0.3434
   94SAPS   C34 9297   7.086   4.967   6.855  0.5332  0.7738 -0.4758
   94SAPS   H4X 9298   7.062   5.063   6.906 -0.0175 -0.7347  2.2696
   94SAPS   H4Y 9299   7.189   4.934   6.876  0.8589  1.7485 -0.4838
   94SAPS   C35 9300   6.978   4.882   6.931  0.2508 -0.6531 -0.0260
   94SAPS   H5X 9301   6.953   4.796   6.865 -0.4111  1.0413 -2.1144
   94SAPS   H5Y 9302   6.886   4.940   6.954  0.8109 -0.3634  1.5514
   94SAPS   C36 9303   7.020   4.827   7.064  0.3965  0.7497  0.9776
   94SAPS   H6X 9304   7.107   4.762   7.041  1.9149  2.6999  0.8707
   94SAPS   H6Y 9305   6.928   4.767   7.081 -0.3580  1.8211  0.7883
   94SAPS   C37 9306   7.028   4.936   7.169 -0.3529 -0.3715  0.1456
   94SAPS   H7X 9307   6.958   5.018   7.143 -0.5885 -0.5096  0.3283
   94SAPS   H7Y 9308   7.126   4.985   7.155 -1.3019  0.9596 -2.4774
   94SAPS   C38 9309   7.008   4.888   7.314 -0.2785 -0.4364  0.3557
   94SAPS   H8X 9310   7.103   4.841   7.348 -0.4019 -0.8784  0.0924
   94SAPS   H8Y 9311   6.917   4.828   7.334 -0.7565  1.1222  3.4818
   94SAPS   C39 9312   6.990   5.015   7.397 -0.5318 -0.2061 -0.4427
   94SAPS   H9X 9313   6.908   5.080   7.360  0.5747  1.3813 -0.1970
   94SAPS   H9Y 9314   7.088   5.067   7.395  0.6582 -2.3156 -0.7441
   94SAPS  C310 9315   6.963   4.991   7.543 -0.4026 -0.0392 -0.4359
   94SAPS  H10X 9316   7.031   4.913   7.582  0.7885  0.3398 -1.6627
   94SAPS  H10Y 9317   6.858   4.955   7.556  0.0538 -1.2877 -0.0698
   94SAPS  C311 9318   6.977   5.114   7.632  0.2386 -0.0799  0.6421
   94SAPS  H11X 9319   6.891   5.179   7.604 -0.6526 -0.9312  1.3241
   94SAPS  H11Y 9320   7.069   5.171   7.609  1.1682 -1.2902  1.2502
   94SAPS  C312 9321   6.974   5.090   7.788 -0.5568 -0.0193  0.8184
   94SAPS  H12X 9322   7.062   5.025   7.808  0.2802  1.3719  1.7551
   94SAPS  H12Y 9323   6.884   5.035   7.821 -1.8470  0.8812 -1.0268
   94SAPS  C313 9324   6.994   5.217   7.866  0.2306 -0.2247  0.3531
   94SAPS  H13X 9325   6.898   5.271   7.849  0.3814  0.1671  0.7391
   94SAPS  H13Y 9326   7.074   5.289   7.841  1.3546 -1.5127  0.1151
   94SAPS  C314 9327   7.006   5.183   8.021 -0.3064 -0.2980  0.5123
   94SAPS  H14X 9328   6.934   5.104   8.053  0.2312 -0.9593  0.1208
   94SAPS  H14Y 9329   6.990   5.276   8.079 -0.1695  0.1377 -0.1398
   94SAPS  C315 9330   7.155   5.142   8.045 -0.2881 -0.3840 -0.1112
   94SAPS  H15X 9331   7.221   5.222   8.004  0.9717 -1.1122  0.4605
   94SAPS  H15Y 9332   7.175   5.047   7.991  0.1207 -2.8906  4.0018
   94SAPS  C316 9333   7.186   5.121   8.198  0.3384 -0.5471  0.2545
   94SAPS  H16X 9334   7.114   5.045   8.236 -0.2249  0.3634  1.0515
   94SAPS  H16Y 9335   7.156   5.215   8.250 -0.3639 -0.2362 -0.6771
   94SAPS  C317 9336   7.333   5.090   8.228 -0.3804 -0.1299  0.5656
   94SAPS  H17X 9337   7.393   5.158   8.164 -1.8269 -0.7028 -1.4703
   94SAPS  H17Y 9338   7.350   4.987   8.191 -1.1731 -0.2409  0.4973
   94SAPS  C318 9339   7.375   5.109   8.372  0.4284  0.3674  0.3669
   94SAPS  H18X 9340   7.309   5.037   8.426  0.3132  0.6872  0.6563
   94SAPS  H18Y 9341   7.345   5.208   8.410 -0.2164  0.2784  0.1102
   94SAPS  H18Z 9342   7.481   5.105   8.403  0.8471  3.7398 -0.2330
   95SAPS     N 9343   3.123   2.181   5.987 -0.8324  0.0995  0.5656
   95SAPS   HN1 9344   3.055   2.121   6.039 -2.1889  0.8862 -0.2489
   95SAPS   HN2 9345   3.202   2.125   5.948 -0.2549 -0.1855  2.0911
   95SAPS   HN3 9346   3.161   2.240   6.064 -1.4895 -0.4579  1.3394
   95SAPS   C12 9347   3.041   2.241   5.873  0.3362 -0.2802 -0.1863
   95SAPS  H12A 9348   3.097   2.323   5.833  2.8553 -1.1237  1.3643
   95SAPS   C13 9349   3.001   2.159   5.750 -1.1640  0.3790  0.3317
   95SAPS  O13A 9350   3.070   2.053   5.725  0.1837  0.1779  0.0125
   95SAPS  O13B 9351   2.946   2.229   5.659 -0.0781 -0.7224  0.3352
   95SAPS   C11 9352   2.910   2.296   5.931 -0.1968  0.1405 -0.0666
   95SAPS  H11A 9353   2.854   2.217   5.984 -0.9399 -2.2417 -4.0599
   95SAPS  H11B 9354   2.840   2.329   5.852 -0.0560 -0.0853 -0.2855
   95SAPS     P 9355   2.828   2.499   6.080  0.1445  0.2048 -0.3057
   95SAPS   O13 9356   2.898   2.626   6.071 -0.0028 -0.0925  0.0979
   95SAPS   O14 9357   2.698   2.482   6.010 -0.7676  0.4668 -0.2980
   95SAPS   O12 9358   2.937   2.395   6.026  0.2481  0.0131 -0.0389
   95SAPS   O11 9359   2.810   2.466   6.233  0.0942 -0.5801 -0.1125
   95SAPS    C1 9360   2.914   2.395   6.301  0.4191  0.6588  0.7184
   95SAPS    HA 9361   2.903   2.290   6.266 -2.3011  1.2636 -0.4842
   95SAPS    HB 9362   3.019   2.428   6.285  0.7642 -0.7702 -0.1692
   95SAPS    C2 9363   2.894   2.399   6.459  0.3886 -0.0417  0.1298
   95SAPS    HS 9364   2.811   2.327   6.476  0.8180  0.1844  3.9441
   95SAPS   O21 9365   2.858   2.533   6.499  0.3338  0.0819  0.1077
   95SAPS   C21 9366   2.790   2.535   6.622 -0.8610 -0.3351  0.7422
   95SAPS   O22 9367   2.741   2.433   6.671 -0.4674 -0.1140  0.1862
   95SAPS   C22 9368   2.777   2.684   6.666  0.8879 -0.2615 -0.0977
   95SAPS   H2R 9369   2.872   2.733   6.637  0.1064  1.3021 -0.1050
   95SAPS   H2S 9370   2.694   2.729   6.607  0.1459 -2.3627 -0.7470
   95SAPS    C3 9371   3.018   2.335   6.527 -0.0044  0.0567 -0.4084
   95SAPS    HX 9372   3.112   2.394   6.520 -0.1619  0.3311 -0.2058
   95SAPS    HY 9373   3.017   2.238   6.473 -2.1491  0.0833 -0.4925
   95SAPS   O31 9374   2.999   2.319   6.668  0.0830 -0.0522  0.2767
   95SAPS   C31 9375   2.928   2.218   6.705  0.4818 -0.0505 -0.3820
   95SAPS   O32 9376   2.859   2.144   6.636 -0.3193 -0.1876 -0.1047
   95SAPS   C32 9377   2.926   2.213   6.855 -0.3762 -0.0418 -0.2607
   95SAPS   H2X 9378   2.829   2.244   6.900 -0.6529 -2.0560  0.6361
   95SAPS   H2Y 9379   3.002   2.286   6.890 -1.5401  1.4564 -0.7421
   95SAPS   C23 9380   2.735   2.694   6.815  0.6786 -0.2017 -0.2771
   95SAPS   H3R 9381   2.651   2.623   6.833 -0.2690  0.1666 -2.8205
   95SAPS   H3S 9382   2.697   2.798   6.820  1.4181  0.1236 -1.0630
   95SAPS   C24 9383   2.862   2.684   6.904 -0.0603 -0.3458 -0.0540
   95SAPS   H4R 9384   2.933   2.758   6.862 -1.3679  0.6856 -0.5486
   95SAPS   H4S 9385   2.884   2.578   6.881 -2.4547 -0.4815 -2.1698
   95SAPS   C25 9386   2.855   2.708   7.051  0.4186 -0.5804  0.8261
   95SAPS   H5R 9387   2.847   2.813   7.084  3.3490 -0.5011  1.6142
   95SAPS   C26 9388   2.871   2.619   7.149  0.4350 -0.5399 -0.2373
   95SAPS   H6R 9389   2.851   2.662   7.248  4.2204  2.6032 -0.5881
   95SAPS   C27 9390   2.918   2.479   7.135 -0.3356  0.0935 -0.1015
   95SAPS   H7R 9391   2.904   2.425   7.039  0.5270 -1.2692  0.5040
   95SAPS   H7S 9392   2.852   2.420   7.202 -0.6772  0.1557 -0.3785
   95SAPS   C28 9393   3.062   2.456   7.176  0.0861 -0.9635 -0.1276
   95SAPS   H8R 9394   3.128   2.442   7.090  0.6794  4.2260 -0.8327
   95SAPS   C29 9395   3.115   2.455   7.301 -0.7121 -0.1576 -0.3640
   95SAPS   H9R 9396   3.223   2.438   7.315 -1.3243 -3.1044  1.9203
   95SAPS  C210 9397   3.041   2.478   7.439  0.7677  0.1052  0.7761
   95SAPS  H10R 9398   2.967   2.559   7.427  1.3621  0.8781  2.1273
   95SAPS  H10S 9399   3.103   2.523   7.520 -0.0034  2.4160  0.1543
   95SAPS  C211 9400   2.977   2.351   7.490 -0.2095 -0.4597  0.0712
   95SAPS  H11R 9401   2.959   2.272   7.416 -1.1198 -1.6699  1.5084
   95SAPS  C212 9402   2.940   2.334   7.618 -0.2381  0.3249 -0.3275
   95SAPS  H12R 9403   2.886   2.240   7.641 -0.9128  0.8178  0.1296
   95SAPS  C213 9404   2.938   2.424   7.737 -0.6706  0.1510  0.3427
   95SAPS  H13R 9405   2.953   2.531   7.710 -1.0090  0.5710  1.7249
   95SAPS  H13S 9406   3.023   2.400   7.803 -1.2456  0.7810  1.3364
   95SAPS  C214 9407   2.808   2.416   7.817  0.3682 -0.9772 -0.3204
   95SAPS  H14R 9408   2.737   2.493   7.784  0.4755 -0.6602  0.1697
   95SAPS  C215 9409   2.786   2.334   7.921 -0.3921 -0.4445 -0.6367
   95SAPS  H15R 9410   2.688   2.340   7.970  0.4427 -1.5297  1.2553
   95SAPS  C216 9411   2.880   2.234   7.984 -0.6227 -0.2223 -0.0796
   95SAPS  H16R 9412   2.978   2.225   7.932 -1.2245 -1.4047 -1.0653
   95SAPS  H16S 9413   2.839   2.131   7.995  0.3756 -0.3684  3.1080
   95SAPS  C217 9414   2.908   2.266   8.136  0.5287 -0.1780 -0.2006
   95SAPS  H17R 9415   2.814   2.259   8.196  0.5910  0.1431 -0.0633
   95SAPS  H17S 9416   2.949   2.368   8.151  1.1235 -0.5355  0.7097
   95SAPS  C218 9417   3.017   2.176   8.194  0.1191  0.1061 -0.2243
   95SAPS  H18R 9418   3.107   2.193   8.131  1.4686  0.1028  1.6112
   95SAPS  H18S 9419   2.993   2.068   8.186  1.2788 -0.1358 -0.6629
   95SAPS  C219 9420   3.042   2.217   8.341  0.2582 -0.1674 -0.5817
   95SAPS  H19R 9421   3.074   2.323   8.336 -0.8219  0.3421  1.8945
   95SAPS  H19S 9422   3.131   2.158   8.371  0.2750  0.0526 -0.1948
   95SAPS  C220 9423   2.937   2.207   8.449 -0.5828 -0.4600 -0.0004
   95SAPS  H20R 9424   2.910   2.102   8.470  2.4248 -1.2483  0.3211
   95SAPS  H20S 9425   2.842   2.254   8.416 -0.6322 -0.4757  0.1206
   95SAPS  H20T 9426   2.969   2.251   8.546  1.6905 -1.0497 -0.4231
   95SAPS   C33 9427   2.952   2.066   6.906 -0.5979  0.0475 -0.6498
   95SAPS   H3X 9428   3.061   2.052   6.885 -0.9958 -1.4562 -1.9560
   95SAPS   H3Y 9429   2.880   2.005   6.847 -0.8326 -2.9972  2.4655
   95SAPS   C34 9430   2.918   2.059   7.057  0.0982  0.2265 -0.0105
   95SAPS   H4X 9431   2.816   2.100   7.072  1.2409  2.8873  0.9298
   95SAPS   H4Y 9432   2.988   2.134   7.100  1.2374  0.1173 -1.5903
   95SAPS   C35 9433   2.941   1.923   7.125  0.1089 -0.2214  0.0152
   95SAPS   H5X 9434   3.043   1.887   7.099  0.4376  0.4761  0.2827
   95SAPS   H5Y 9435   2.864   1.854   7.087  0.4830  0.3435 -1.8612
   95SAPS   C36 9436   2.938   1.942   7.278 -0.7258 -1.0899 -0.2637
   95SAPS   H6X 9437   3.019   2.009   7.312 -0.2303 -1.7057 -0.1983
   95SAPS   H6Y 9438   2.961   1.844   7.325  1.4976 -0.6010 -0.2150
   95SAPS   C37 9439   2.807   1.999   7.335 -0.5193 -0.4092 -0.2989
   95SAPS   H7X 9440   2.720   1.942   7.295  0.7283 -3.0348  0.4980
   95SAPS   H7Y 9441   2.800   2.103   7.296  0.0543 -0.3198 -0.1676
   95SAPS   C38 9442   2.793   1.986   7.490 -0.0774 -0.2657 -0.7286
   95SAPS   H8X 9443   2.871   2.054   7.532 -0.7097  0.1034 -0.1261
   95SAPS   H8Y 9444   2.811   1.882   7.524 -2.0959 -0.0152  1.3732
   95SAPS   C39 9445   2.655   2.033   7.553 -1.1828  0.0012  0.0427
   95SAPS   H9X 9446   2.574   1.969   7.510  1.0644 -2.0728 -1.3674
   95SAPS   H9Y 9447   2.643   2.137   7.516 -2.5502  0.0011  0.4130
   95SAPS  C310 9448   2.660   2.024   7.700  0.4221  0.0281 -0.0882
   95SAPS  H10X 9449   2.734   2.092   7.748  0.3689  0.8838 -1.1849
   95SAPS  H10Y 9450   2.684   1.918   7.723 -1.9496 -0.3276  1.0062
   95SAPS  C311 9451   2.517   2.046   7.763 -0.4890 -0.4373  0.0070
   95SAPS  H11X 9452   2.447   1.982   7.705 -0.4648 -0.0433 -0.4596
   95SAPS  H11Y 9453   2.505   2.154   7.741 -1.2569 -0.6933 -0.8947
   95SAPS  C312 9454   2.503   2.001   7.910 -0.3148 -0.4020 -0.3943
   95SAPS  H12X 9455   2.589   2.042   7.968  0.2985 -0.6950 -1.0861
   95SAPS  H12Y 9456   2.522   1.892   7.908 -0.1297 -0.4311  1.1926
   95SAPS  C313 9457   2.373   2.064   7.969 -0.5167  0.5690  0.3554
   95SAPS  H13X 9458   2.340   2.002   8.055 -1.8012 -0.3248 -0.7280
   95SAPS  H13Y 9459   2.283   2.038   7.909 -0.3365  1.5329 -0.3683
   95SAPS  C314 9460   2.376   2.219   7.991 -1.1489 -0.2352 -0.1237
   95SAPS  H14X 9461   2.399   2.267   7.894  0.4524  3.4135  1.8879
   95SAPS  H14Y 9462   2.460   2.258   8.052 -1.1836  0.4271 -0.4993
   95SAPS  C315 9463   2.235   2.276   8.030 -0.4462 -0.6328  0.5134
   95SAPS  H15X 9464   2.171   2.307   7.944  1.1270  1.9279  0.1561
   95SAPS  H15Y 9465   2.251   2.372   8.085  0.0471  1.0406 -2.3186
   95SAPS  C316 9466   2.152   2.188   8.125  0.2510  0.1573 -0.1507
   95SAPS  H16X 9467   2.210   2.165   8.217 -0.6153 -0.0761  0.3436
   95SAPS  H16Y 9468   2.122   2.103   8.060 -0.5389  1.7451 -1.9767
   95SAPS  C317 9469   2.018   2.254   8.180  0.0643  0.3325  0.1700
   95SAPS  H17X 9470   1.957   2.275   8.090  2.5107  1.2666 -1.3620
   95SAPS  H17Y 9471   2.038   2.353   8.226  0.9299  0.1462  0.2021
   95SAPS  C318 9472   1.941   2.172   8.288 -0.1850 -0.2301  0.2232
   95SAPS  H18X 9473   1.835   2.205   8.298 -0.2439 -0.0132 -1.0058
   95SAPS  H18Y 9474   1.988   2.201   8.385 -1.8113  4.3264 -0.1009
   95SAPS  H18Z 9475   1.948   2.062   8.279 -1.8427 -0.4386  0.9385
   96SAPS     N 9476   3.712   4.982   6.244 -0.0517  0.1522  0.9656
   96SAPS   HN1 9477   3.788   5.042   6.284 -0.0763  0.8882 -0.0627
   96SAPS   HN2 9478   3.627   5.040   6.235  0.4370  0.7200 -0.1216
   96SAPS   HN3 9479   3.685   4.905   6.309 -2.6507 -0.2899 -0.4856
   96SAPS   C12 9480   3.752   4.920   6.111  0.2029 -0.3271 -0.0921
   96SAPS  H12A 9481   3.689   4.833   6.101  0.3801 -0.6633  1.4016
   96SAPS   C13 9482   3.717   5.009   5.994 -0.3562  0.8340 -0.5652
   96SAPS  O13A 9483   3.671   5.119   6.007 -0.6463 -0.8274  0.6933
   96SAPS  O13B 9484   3.726   4.955   5.875 -0.2568 -0.2529 -0.1868
   96SAPS   C11 9485   3.902   4.875   6.134  0.3517 -0.1469  0.0541
   96SAPS  H11A 9486   3.961   4.968   6.148 -1.4377  1.1604 -0.7123
   96SAPS  H11B 9487   3.935   4.817   6.046  0.0441 -2.0657  1.1628
   96SAPS     P 9488   4.026   4.691   6.260 -0.1223  0.2901  0.1497
   96SAPS   O13 9489   3.990   4.578   6.170 -0.2306 -0.1912 -0.1994
   96SAPS   O14 9490   4.152   4.758   6.233 -0.6362 -0.8358  0.3165
   96SAPS   O12 9491   3.905   4.793   6.252 -0.6236  0.1853  0.0527
   96SAPS   O11 9492   4.032   4.630   6.405 -0.4211 -0.1892  0.2941
   96SAPS    C1 9493   3.916   4.603   6.481  0.2481  0.6668 -0.0889
   96SAPS    HA 9494   3.835   4.675   6.458  0.5228  0.8310 -0.5612
   96SAPS    HB 9495   3.884   4.500   6.455  2.9000 -0.4630  0.7247
   96SAPS    C2 9496   3.941   4.616   6.633  0.3393 -0.0961 -0.5711
   96SAPS    HS 9497   3.851   4.624   6.697  0.2872  2.7703 -0.8730
   96SAPS   O21 9498   4.017   4.736   6.661  0.0685  0.3784  0.0412
   96SAPS   C21 9499   3.949   4.849   6.643  0.6476  0.5770  0.2730
   96SAPS   O22 9500   3.831   4.854   6.619  0.2685  0.1575  0.2825
   96SAPS   C22 9501   4.049   4.958   6.661 -0.7252 -0.1330 -0.3756
   96SAPS   H2R 9502   4.127   4.918   6.730  0.8726  0.3530 -1.8055
   96SAPS   H2S 9503   4.108   4.968   6.567  1.5647 -1.4468  0.8377
   96SAPS    C3 9504   4.014   4.488   6.685  0.1447  0.1985 -0.4050
   96SAPS    HX 9505   4.094   4.476   6.609 -0.3298 -0.4687 -0.8105
   96SAPS    HY 9506   3.953   4.395   6.677  0.8733 -0.1927 -1.6916
   96SAPS   O31 9507   4.050   4.512   6.826 -0.1300 -1.1439  0.6575
   96SAPS   C31 9508   4.177   4.529   6.857 -0.2176 -0.5415 -0.2232
   96SAPS   O32 9509   4.272   4.533   6.781  0.0209 -0.2266 -0.5216
   96SAPS   C32 9510   4.204   4.555   7.006  0.0449  0.0410 -0.8176
   96SAPS   H2X 9511   4.114   4.597   7.056 -0.5515 -1.9375 -0.1251
   96SAPS   H2Y 9512   4.280   4.634   7.024 -2.2648  2.1855  0.2152
   96SAPS   C23 9513   4.002   5.088   6.731  0.1673 -0.2396  0.2028
   96SAPS   H3R 9514   3.942   5.063   6.821 -0.1792 -1.6809 -0.4024
   96SAPS   H3S 9515   3.935   5.142   6.660 -1.4629 -1.1428  0.9860
   96SAPS   C24 9516   4.114   5.180   6.763 -0.4027 -1.4264 -0.2278
   96SAPS   H4R 9517   4.185   5.202   6.681 -0.1944 -1.5767 -0.0893
   96SAPS   H4S 9518   4.177   5.113   6.826 -0.4520 -3.4507 -2.2068
   96SAPS   C25 9519   4.088   5.322   6.825  0.5724  0.5621  0.1654
   96SAPS   H5R 9520   4.079   5.415   6.767  0.1458  1.1359  1.1262
   96SAPS   C26 9521   4.075   5.335   6.961  0.3285 -0.5145  0.4950
   96SAPS   H6R 9522   4.046   5.431   7.006 -0.4685 -0.8404  0.6910
   96SAPS   C27 9523   4.085   5.236   7.075  0.4571  0.0096  0.6246
   96SAPS   H7R 9524   4.189   5.216   7.107  1.2181  0.5020 -1.3870
   96SAPS   H7S 9525   4.056   5.141   7.026  2.1037 -0.1454 -0.1164
   96SAPS   C28 9526   4.010   5.265   7.205  0.4659  0.6135 -0.0425
   96SAPS   H8R 9527   3.939   5.349   7.194  1.0052  1.2876  1.4943
   96SAPS   C29 9528   4.026   5.200   7.323 -0.4837  0.2460 -0.5967
   96SAPS   H9R 9529   3.977   5.242   7.412 -0.0271 -0.6066  0.0825
   96SAPS  C210 9530   4.123   5.092   7.354  0.1022  0.1901 -0.5060
   96SAPS  H10R 9531   4.182   5.140   7.435 -0.7303 -0.3033  0.4282
   96SAPS  H10S 9532   4.207   5.089   7.282  0.2111  0.4603 -0.3902
   96SAPS  C211 9533   4.084   4.954   7.391  0.9953  0.3869 -0.2515
   96SAPS  H11R 9534   4.062   4.899   7.298  0.3487  2.2518 -1.2667
   96SAPS  C212 9535   4.071   4.900   7.519 -1.1275  0.0526  0.2821
   96SAPS  H12R 9536   4.053   4.794   7.539  1.6591 -0.5587 -0.1108
   96SAPS  C213 9537   4.114   4.983   7.646 -0.0481  0.1651 -0.2275
   96SAPS  H13R 9538   4.037   4.975   7.726  0.6357 -0.5729  0.3797
   96SAPS  H13S 9539   4.127   5.090   7.619  1.1138 -0.0961 -0.7479
   96SAPS  C214 9540   4.240   4.917   7.688 -0.2813  0.0755  0.0149
   96SAPS  H14R 9541   4.317   4.935   7.612 -1.1650 -1.3566 -1.2653
   96SAPS  C215 9542   4.267   4.848   7.806  0.2058 -0.5888 -0.0375
   96SAPS  H15R 9543   4.359   4.790   7.825  1.4047  1.3076  0.1194
   96SAPS  C216 9544   4.159   4.828   7.913 -0.3498  0.3898  0.0181
   96SAPS  H16R 9545   4.134   4.720   7.920  2.8388 -0.5185 -1.2338
   96SAPS  H16S 9546   4.063   4.882   7.894 -1.8976 -1.8362  0.9773
   96SAPS  C217 9547   4.215   4.853   8.047  0.2832  0.0185 -0.7775
   96SAPS  H17R 9548   4.261   4.954   8.048  1.5380 -0.5360 -0.4109
   96SAPS  H17S 9549   4.291   4.779   8.080 -0.1558 -1.0653 -2.0921
   96SAPS  C218 9550   4.103   4.850   8.158  0.4185 -0.1328 -0.0505
   96SAPS  H18R 9551   4.054   4.751   8.158  1.2967 -0.5914  1.0994
   96SAPS  H18S 9552   4.018   4.920   8.144  0.2198 -0.1905  0.7913
   96SAPS  C219 9553   4.170   4.880   8.292 -0.3029  0.1001  0.3838
   96SAPS  H19R 9554   4.235   4.967   8.272 -0.9425  0.6289  0.5839
   96SAPS  H19S 9555   4.232   4.789   8.309  1.9979  1.5947  0.4206
   96SAPS  C220 9556   4.076   4.907   8.414 -0.5390  0.2644  0.6018
   96SAPS  H20R 9557   4.137   4.917   8.506  0.0769 -0.7937  0.3197
   96SAPS  H20S 9558   4.020   4.812   8.425  1.6396 -1.2496 -0.5686
   96SAPS  H20T 9559   4.021   4.997   8.379  3.1605  1.5945 -2.4689
   96SAPS   C33 9560   4.254   4.424   7.065 -0.7969  0.2169 -0.0035
   96SAPS   H3X 9561   4.177   4.345   7.055 -0.8125 -0.2106  2.7554
   96SAPS   H3Y 9562   4.269   4.441   7.174 -0.4292  0.8490 -0.1448
   96SAPS   C34 9563   4.399   4.389   7.020  0.2101 -0.0815 -0.2371
   96SAPS   H4X 9564   4.452   4.486   7.005  2.0444 -1.2161 -1.3555
   96SAPS   H4Y 9565   4.398   4.335   6.924  0.5471 -0.2210 -0.1636
   96SAPS   C35 9566   4.460   4.279   7.112  0.0676  0.3133 -0.0135
   96SAPS   H5X 9567   4.548   4.237   7.059 -0.2580  1.1130 -1.2267
   96SAPS   H5Y 9568   4.391   4.199   7.147  1.3451  0.3911  3.0334
   96SAPS   C36 9569   4.516   4.330   7.249  0.1970  0.5932  0.3214
   96SAPS   H6X 9570   4.435   4.393   7.292  0.9126  2.0554 -0.4031
   96SAPS   H6Y 9571   4.607   4.387   7.220  0.0504  1.9051  2.2125
   96SAPS   C37 9572   4.548   4.213   7.350 -0.8816 -0.7757 -0.5013
   96SAPS   H7X 9573   4.597   4.125   7.303 -1.6040 -1.8957  0.7599
   96SAPS   H7Y 9574   4.455   4.173   7.397 -2.1973  0.1271 -2.1966
   96SAPS   C38 9575   4.636   4.266   7.468 -0.1870 -0.1501  0.1186
   96SAPS   H8X 9576   4.584   4.359   7.500  0.6796 -0.0162  1.1914
   96SAPS   H8Y 9577   4.741   4.286   7.438  0.1248 -2.2303 -0.3213
   96SAPS   C39 9578   4.659   4.158   7.577  0.3893  0.0836  0.1348
   96SAPS   H9X 9579   4.744   4.092   7.552  0.7935  0.6180  0.0843
   96SAPS   H9Y 9580   4.565   4.098   7.583 -0.7592  1.7761 -0.1415
   96SAPS  C310 9581   4.704   4.206   7.714  0.5441  0.0749  0.4171
   96SAPS  H10X 9582   4.632   4.282   7.753  0.0611  0.8505 -1.8092
   96SAPS  H10Y 9583   4.801   4.260   7.719 -0.5391  2.0848  0.9086
   96SAPS  C311 9584   4.706   4.091   7.816  0.6840 -0.5459  0.3032
   96SAPS  H11X 9585   4.778   4.018   7.773  1.2885  1.6805 -2.8482
   96SAPS  H11Y 9586   4.608   4.039   7.824 -0.0434  0.5690 -0.9607
   96SAPS  C312 9587   4.757   4.131   7.953  0.1590 -0.3309 -0.1023
   96SAPS  H12X 9588   4.695   4.209   8.002  1.4678 -0.0388  1.1718
   96SAPS  H12Y 9589   4.855   4.184   7.944 -0.3539  0.8434  0.8707
   96SAPS  C313 9590   4.789   4.004   8.041 -0.3282  0.6859  0.0742
   96SAPS  H13X 9591   4.862   3.948   7.980  1.9662  1.0635  2.2946
   96SAPS  H13Y 9592   4.702   3.935   8.042  0.1274 -0.0301  3.3470
   96SAPS  C314 9593   4.838   4.030   8.183 -0.7175  0.4755 -0.6458
   96SAPS  H14X 9594   4.935   4.082   8.172 -1.0000  1.0707 -0.3464
   96SAPS  H14Y 9595   4.841   3.922   8.210 -2.0604 -0.0512 -2.3819
   96SAPS  C315 9596   4.738   4.101   8.274 -0.4594  0.0331 -0.6271
   96SAPS  H15X 9597   4.648   4.037   8.283 -0.9279  0.7979  0.4121
   96SAPS  H15Y 9598   4.710   4.200   8.231 -1.7159  0.4964  1.1188
   96SAPS  C316 9599   4.786   4.125   8.420  0.3335 -0.4091 -0.1629
   96SAPS  H16X 9600   4.698   4.162   8.477  1.0750  0.8936  0.1862
   96SAPS  H16Y 9601   4.869   4.199   8.428  0.6000 -0.4574 -2.0707
   96SAPS  C317 9602   4.839   3.998   8.490 -0.3972  0.4189  0.2460
   96SAPS  H17X 9603   4.930   3.963   8.436 -0.4049 -0.9724  1.0854
   96SAPS  H17Y 9604   4.765   3.915   8.485  0.1499 -0.0575 -0.0654
   96SAPS  C318 9605   4.876   4.018   8.633  0.4570  0.0544 -0.7152
   96SAPS  H18X 9606   4.792   4.076   8.676 -1.7231 -3.0322 -0.4353
   96SAPS  H18Y 9607   4.970   4.075   8.629  1.5748 -1.5287  1.1420
   96SAPS  H18Z 9608   4.898   3.928   8.693 -1.1528  0.5456  0.6791
   97SAPS     N 9609   6.238   0.986   6.100 -0.4960  0.2531 -0.0017
   97SAPS   HN1 9610   6.321   1.048   6.110  1.0852 -1.6721 -0.5968
   97SAPS   HN2 9611   6.260   0.901   6.156  0.6967  1.9465  2.2834
   97SAPS   HN3 9612   6.221   0.965   6.000 -1.7751  1.6586 -0.1237
   97SAPS   C12 9613   6.130   1.064   6.170 -0.4573 -0.0670  0.7332
   97SAPS  H12A 9614   6.121   1.160   6.121  2.8406 -0.1190 -0.1817
   97SAPS   C13 9615   5.985   1.004   6.158 -0.4676  0.4353 -0.5515
   97SAPS  O13A 9616   5.965   0.911   6.076 -0.3536  0.2112 -0.5054
   97SAPS  O13B 9617   5.902   1.043   6.240 -0.0254 -0.1412 -0.4271
   97SAPS   C11 9618   6.165   1.089   6.321 -0.1615 -0.0368  0.2039
   97SAPS  H11A 9619   6.157   0.991   6.373 -1.4492 -0.3309 -0.5072
   97SAPS  H11B 9620   6.086   1.150   6.369  0.1111  1.4314 -1.1151
   97SAPS     P 9621   6.288   1.308   6.363 -0.2691 -0.2681 -0.1747
   97SAPS   O13 9622   6.427   1.347   6.386 -0.4636 -0.0019 -0.6200
   97SAPS   O14 9623   6.213   1.366   6.247 -0.3981 -0.1846 -0.1399
   97SAPS   O12 9624   6.291   1.150   6.342 -0.0965  0.3998  0.1922
   97SAPS   O11 9625   6.200   1.333   6.489 -0.0448 -0.9514  0.1995
   97SAPS    C1 9626   6.227   1.277   6.623 -0.2938 -0.1436  0.4978
   97SAPS    HA 9627   6.138   1.306   6.684 -0.4820  0.3716 -0.0110
   97SAPS    HB 9628   6.240   1.167   6.628 -0.5412 -0.3390 -1.9787
   97SAPS    C2 9629   6.336   1.343   6.704 -0.0825  0.0496  0.9175
   97SAPS    HS 9630   6.438   1.321   6.667 -1.2219 -1.1272 -1.9025
   97SAPS   O21 9631   6.321   1.319   6.842 -0.1021 -0.1321  0.6538
   97SAPS   C21 9632   6.388   1.212   6.878  0.1066 -0.1341  0.3019
   97SAPS   O22 9633   6.434   1.128   6.804  0.7030  0.0797  0.2330
   97SAPS   C22 9634   6.409   1.229   7.029  0.1197 -0.0450 -0.4345
   97SAPS   H2R 9635   6.403   1.337   7.054 -0.6242 -0.6154  2.0867
   97SAPS   H2S 9636   6.315   1.188   7.071  0.7526 -2.0484 -0.8726
   97SAPS    C3 9637   6.329   1.496   6.691 -0.1873 -0.6753  0.1176
   97SAPS    HX 9638   6.230   1.535   6.723 -0.6605 -0.0929 -1.8952
   97SAPS    HY 9639   6.348   1.512   6.582  0.8311 -2.3462  0.0209
   97SAPS   O31 9640   6.436   1.561   6.762 -0.5548 -0.4520  1.0771
   97SAPS   C31 9641   6.406   1.682   6.804 -0.7130 -0.3447  0.2339
   97SAPS   O32 9642   6.317   1.758   6.761 -0.0190  0.2380  0.0689
   97SAPS   C32 9643   6.497   1.723   6.921 -0.0412  0.4535  0.2017
   97SAPS   H2X 9644   6.516   1.830   6.899 -1.9135  1.2312  2.0002
   97SAPS   H2Y 9645   6.589   1.661   6.909 -1.7720 -2.6684  1.6549
   97SAPS   C23 9646   6.520   1.135   7.085  0.0136  0.3221 -0.8871
   97SAPS   H3R 9647   6.525   1.031   7.046  1.8284  1.0084 -2.7288
   97SAPS   H3S 9648   6.519   1.137   7.196 -1.4809 -0.5584 -0.8630
   97SAPS   C24 9649   6.666   1.189   7.066  0.0534  0.4976  0.0534
   97SAPS   H4R 9650   6.721   1.133   7.145 -0.8987 -0.5099  0.0192
   97SAPS   H4S 9651   6.656   1.295   7.099 -0.8721  0.2527  0.5747
   97SAPS   C25 9652   6.720   1.179   6.924  0.4084 -0.7192  0.5095
   97SAPS   H5R 9653   6.655   1.204   6.839  2.2989 -0.9906 -1.0833
   97SAPS   C26 9654   6.844   1.133   6.893  0.5021 -0.8776  0.0784
   97SAPS   H6R 9655   6.883   1.131   6.791  3.3373  2.2338  0.9362
   97SAPS   C27 9656   6.945   1.089   6.995  0.1709  0.1118  0.0608
   97SAPS   H7R 9657   6.902   1.026   7.076 -0.1586  1.7500  1.2112
   97SAPS   H7S 9658   6.980   1.174   7.057  1.6661 -1.0620  0.8798
   97SAPS   C28 9659   7.062   1.012   6.938 -0.3842  0.2028 -0.9957
   97SAPS   H8R 9660   7.106   1.045   6.843  2.3124 -3.3913 -1.2009
   97SAPS   C29 9661   7.111   0.901   6.998 -0.2244 -0.1967 -0.3333
   97SAPS   H9R 9662   7.197   0.849   6.952  0.1641  0.5413 -0.4600
   97SAPS  C210 9663   7.072   0.829   7.124 -0.2236  0.8089 -0.1710
   97SAPS  H10R 9664   7.022   0.734   7.096  0.2533  0.4640  0.1289
   97SAPS  H10S 9665   7.002   0.890   7.185  2.0811  1.1030  2.3960
   97SAPS  C211 9666   7.194   0.801   7.211 -0.0160  0.1083  0.3480
   97SAPS  H11R 9667   7.285   0.861   7.193  0.2986 -1.0571 -2.4642
   97SAPS  C212 9668   7.208   0.706   7.307  0.5433  1.0522 -0.1510
   97SAPS  H12R 9669   7.301   0.700   7.365 -0.1799  0.7702  1.0054
   97SAPS  C213 9670   7.101   0.602   7.333 -0.3047 -0.4472  0.7230
   97SAPS  H13R 9671   7.017   0.605   7.261  1.3522  0.1565 -1.2996
   97SAPS  H13S 9672   7.060   0.637   7.431  2.6017  3.1040  0.8904
   97SAPS  C214 9673   7.154   0.464   7.337 -0.1730  0.0843  0.0807
   97SAPS  H14R 9674   7.205   0.430   7.428  0.1505 -0.6737 -0.3759
   97SAPS  C215 9675   7.124   0.370   7.242  0.5153 -0.2501 -0.7478
   97SAPS  H15R 9676   7.166   0.268   7.251 -0.4694 -0.6917 -1.0012
   97SAPS  C216 9677   7.034   0.380   7.120  0.2944 -0.7933  0.4463
   97SAPS  H16R 9678   6.989   0.480   7.098 -2.4332 -1.9908  0.1030
   97SAPS  H16S 9679   6.941   0.323   7.143 -0.9288  1.2552  0.9385
   97SAPS  C217 9680   7.100   0.339   6.987 -0.3581 -0.2460  0.0449
   97SAPS  H17R 9681   7.029   0.308   6.908  0.4411 -1.9976 -0.0579
   97SAPS  H17S 9682   7.166   0.250   7.005  2.0904  1.3922 -0.3634
   97SAPS  C218 9683   7.189   0.451   6.927  0.1774  0.0924  0.0003
   97SAPS  H18R 9684   7.276   0.449   6.997 -0.5666 -0.7909  0.9362
   97SAPS  H18S 9685   7.140   0.551   6.931 -0.9759 -0.4469 -0.3187
   97SAPS  C219 9686   7.231   0.411   6.792 -0.6170 -0.7882 -0.4073
   97SAPS  H19R 9687   7.134   0.422   6.737  0.3624  0.6751 -1.9583
   97SAPS  H19S 9688   7.272   0.308   6.794 -4.4816 -2.5180  1.6291
   97SAPS  C220 9689   7.324   0.525   6.739  0.2015  0.1951 -0.2635
   97SAPS  H20R 9690   7.402   0.550   6.814 -1.9122  2.4591  1.3206
   97SAPS  H20S 9691   7.265   0.619   6.736  1.1913  1.0695  2.8468
   97SAPS  H20T 9692   7.367   0.489   6.643 -0.7944  0.1226 -0.6935
   97SAPS   C33 9693   6.428   1.717   7.056 -0.4503 -0.9353  0.2410
   97SAPS   H3X 9694   6.404   1.611   7.077  1.1917 -1.4592 -0.3285
   97SAPS   H3Y 9695   6.341   1.785   7.050 -2.0510 -2.9958 -1.0607
   97SAPS   C34 9696   6.514   1.789   7.160 -1.3781  0.4134 -0.9659
   97SAPS   H4X 9697   6.540   1.895   7.136 -1.1713  0.3799 -0.8938
   97SAPS   H4Y 9698   6.607   1.730   7.176 -1.0293  1.3356  0.6720
   97SAPS   C35 9699   6.445   1.792   7.292  0.5998  0.0220 -0.3482
   97SAPS   H5X 9700   6.407   1.691   7.317 -0.7267  0.1288 -1.7764
   97SAPS   H5Y 9701   6.352   1.853   7.290  0.1388 -0.6845 -1.6739
   97SAPS   C36 9702   6.539   1.831   7.407 -0.2508 -0.4911  0.4845
   97SAPS   H6X 9703   6.550   1.941   7.396  2.8357 -0.6013  1.5002
   97SAPS   H6Y 9704   6.637   1.779   7.397  0.1395  0.5605 -1.8872
   97SAPS   C37 9705   6.486   1.795   7.550 -0.0463 -0.7152 -0.5589
   97SAPS   H7X 9706   6.457   1.688   7.548 -0.2653 -0.6435 -1.4081
   97SAPS   H7Y 9707   6.399   1.860   7.572  1.1904  1.5496 -1.9911
   97SAPS   C38 9708   6.595   1.814   7.651  1.1411  0.1709 -0.1981
   97SAPS   H8X 9709   6.633   1.918   7.656  1.7919 -0.0632 -0.1924
   97SAPS   H8Y 9710   6.675   1.741   7.625 -0.0057 -0.3744 -2.4655
   97SAPS   C39 9711   6.552   1.783   7.792 -0.7168 -0.5605  0.2403
   97SAPS   H9X 9712   6.461   1.843   7.815 -2.1629 -2.9536  1.0691
   97SAPS   H9Y 9713   6.639   1.805   7.858 -0.3875 -0.6047 -0.1755
   97SAPS  C310 9714   6.495   1.643   7.814 -0.2314  0.0127 -0.2313
   97SAPS  H10X 9715   6.581   1.573   7.800 -1.1244 -1.3310  0.7217
   97SAPS  H10Y 9716   6.414   1.614   7.744  0.2363 -1.8852 -0.0690
   97SAPS  C311 9717   6.439   1.619   7.956  0.7220  0.5911  0.3831
   97SAPS  H11X 9718   6.345   1.676   7.969  1.1411  1.0896  1.3524
   97SAPS  H11Y 9719   6.520   1.656   8.023 -0.2343  3.2402  0.1906
   97SAPS  C312 9720   6.415   1.464   7.990  0.7206 -1.1624 -0.0661
   97SAPS  H12X 9721   6.509   1.412   7.963  2.2349  1.4722 -0.1778
   97SAPS  H12Y 9722   6.337   1.428   7.919 -1.8027  0.9554  1.4324
   97SAPS  C313 9723   6.371   1.436   8.127  0.2863  0.1634 -0.2056
   97SAPS  H13X 9724   6.330   1.333   8.132  1.9822 -0.4925  1.2516
   97SAPS  H13Y 9725   6.288   1.503   8.159 -0.0454 -0.2319 -0.2318
   97SAPS  C314 9726   6.476   1.443   8.236 -0.0966 -0.7489  0.2272
   97SAPS  H14X 9727   6.530   1.540   8.242  1.9525 -1.8758  1.1119
   97SAPS  H14Y 9728   6.555   1.377   8.194 -1.6150 -2.0285 -0.7408
   97SAPS  C315 9729   6.437   1.399   8.376  0.3289 -0.5853  0.0340
   97SAPS  H15X 9730   6.539   1.388   8.419  0.3014  1.5373  0.7497
   97SAPS  H15Y 9731   6.382   1.303   8.380  2.2380 -1.7530 -0.1047
   97SAPS  C316 9732   6.351   1.505   8.440  0.0335  0.1812 -0.0325
   97SAPS  H16X 9733   6.270   1.551   8.378  0.4656  1.1590  0.1105
   97SAPS  H16Y 9734   6.420   1.591   8.457 -1.1852  1.0173  0.8565
   97SAPS  C317 9735   6.277   1.451   8.563  0.3233  0.2925 -0.6837
   97SAPS  H17X 9736   6.206   1.525   8.606  0.3854 -0.6628  1.1592
   97SAPS  H17Y 9737   6.344   1.450   8.652  0.1761  0.4590 -0.5682
   97SAPS  C318 9738   6.202   1.323   8.562 -0.5680 -0.4959 -0.1991
   97SAPS  H18X 9739   6.147   1.302   8.656 -0.1480  2.2571  0.7587
   97SAPS  H18Y 9740   6.270   1.240   8.532  0.8247  1.1592 -1.8759
   97SAPS  H18Z 9741   6.126   1.323   8.480 -0.2031  2.3793 -0.6483
   98SAPS     N 9742   3.656   2.955   6.052 -0.0505  0.2720 -0.6092
   98SAPS   HN1 9743   3.671   3.046   6.100 -1.5066 -0.7341  1.9806
   98SAPS   HN2 9744   3.645   2.876   6.119  0.8466  0.1818 -0.5577
   98SAPS   HN3 9745   3.737   2.911   6.005 -0.7347 -3.1347  1.1220
   98SAPS   C12 9746   3.546   2.970   5.954  0.5429  0.3318  0.5209
   98SAPS  H12A 9747   3.560   3.054   5.888  1.2432  0.3441  0.6798
   98SAPS   C13 9748   3.536   2.844   5.858 -0.6153  0.3754 -0.1054
   98SAPS  O13A 9749   3.645   2.780   5.833 -0.5788  0.1773  0.0379
   98SAPS  O13B 9750   3.454   2.861   5.763  0.5270 -0.2777 -0.2443
   98SAPS   C11 9751   3.410   2.981   6.026 -0.2621  0.5580 -0.0686
   98SAPS  H11A 9752   3.408   2.906   6.108 -0.6997  0.7033  0.0575
   98SAPS  H11B 9753   3.326   2.973   5.954 -0.3435  0.6217  0.0193
   98SAPS     P 9754   3.292   3.182   6.166 -0.7569 -0.1452  0.3756
   98SAPS   O13 9755   3.360   3.302   6.219 -0.7584 -0.6126 -0.2436
   98SAPS   O14 9756   3.166   3.208   6.099  0.4262 -0.0229 -0.6805
   98SAPS   O12 9757   3.400   3.110   6.069 -0.3852 -0.3568 -0.6926
   98SAPS   O11 9758   3.276   3.077   6.286  0.1065 -0.4242  0.1542
   98SAPS    C1 9759   3.158   3.092   6.363 -0.1675 -0.3191 -0.1638
   98SAPS    HA 9760   3.131   3.199   6.379 -0.5628 -0.0259 -2.3970
   98SAPS    HB 9761   3.074   3.049   6.303  0.2469  0.2102 -1.1474
   98SAPS    C2 9762   3.164   3.041   6.509  0.2845  0.7314 -0.1067
   98SAPS    HS 9763   3.068   3.081   6.548  0.7867  1.3887  0.4994
   98SAPS   O21 9764   3.282   3.091   6.581  0.1415  0.2581  0.2252
   98SAPS   C21 9765   3.280   3.222   6.612  0.1284 -0.4588 -0.0034
   98SAPS   O22 9766   3.188   3.299   6.598  0.2657  0.3440  0.2466
   98SAPS   C22 9767   3.413   3.256   6.679  0.2704 -0.1715  0.3491
   98SAPS   H2R 9768   3.478   3.166   6.683  0.8594  0.1569 -1.1696
   98SAPS   H2S 9769   3.460   3.325   6.606 -1.9360  0.1910 -0.8245
   98SAPS    C3 9770   3.145   2.890   6.514  0.4042 -0.5682 -0.5524
   98SAPS    HX 9771   3.205   2.848   6.431 -0.4745  0.7559 -1.9196
   98SAPS    HY 9772   3.040   2.864   6.486  0.1624  0.2932 -0.4886
   98SAPS   O31 9773   3.184   2.834   6.642 -0.7692 -0.1322 -0.4422
   98SAPS   C31 9774   3.314   2.803   6.657  0.0516  0.2291 -0.6872
   98SAPS   O32 9775   3.402   2.822   6.574  0.1313  0.6517 -0.1595
   98SAPS   C32 9776   3.326   2.723   6.790  0.0005  0.1382 -0.5638
   98SAPS   H2X 9777   3.352   2.621   6.754 -1.1934 -0.7927  1.0654
   98SAPS   H2Y 9778   3.229   2.712   6.843  1.1533  1.0216  1.9040
   98SAPS   C23 9779   3.390   3.309   6.825 -0.2903  0.0029 -0.5427
   98SAPS   H3R 9780   3.311   3.250   6.877 -0.5926  1.4494  0.7094
   98SAPS   H3S 9781   3.347   3.411   6.830  0.0349  0.1361  4.1315
   98SAPS   C24 9782   3.520   3.312   6.906  0.6031  0.2435  0.4082
   98SAPS   H4R 9783   3.516   3.381   6.994  0.6429 -0.2197  0.7770
   98SAPS   H4S 9784   3.602   3.349   6.841 -1.0404  2.2604 -0.6081
   98SAPS   C25 9785   3.561   3.169   6.952  0.2392  0.2290  0.4336
   98SAPS   H5R 9786   3.611   3.111   6.873 -0.6668  1.1524 -0.8603
   98SAPS   C26 9787   3.561   3.106   7.076 -0.2639 -0.2238 -0.1145
   98SAPS   H6R 9788   3.598   3.003   7.086 -0.2817 -0.3053 -0.7837
   98SAPS   C27 9789   3.487   3.154   7.196  1.0073  0.2620  0.8123
   98SAPS   H7R 9790   3.379   3.129   7.190  1.0416  0.4979 -1.7596
   98SAPS   H7S 9791   3.499   3.264   7.199 -0.1474  0.4326  0.0955
   98SAPS   C28 9792   3.526   3.111   7.336  0.7345  0.3093  0.2492
   98SAPS   H8R 9793   3.618   3.052   7.343 -0.5303 -1.6993  0.6486
   98SAPS   C29 9794   3.454   3.139   7.450  0.1319  0.6714 -0.9684
   98SAPS   H9R 9795   3.497   3.107   7.546  1.4410  0.6479 -1.5280
   98SAPS  C210 9796   3.322   3.202   7.475  0.5231  0.3813 -0.0026
   98SAPS  H10R 9797   3.248   3.128   7.513 -0.5735  0.7201 -1.3603
   98SAPS  H10S 9798   3.278   3.233   7.377  1.3170  0.3857 -0.3613
   98SAPS  C211 9799   3.338   3.314   7.572  0.8412 -0.3375  0.3468
   98SAPS  H11R 9800   3.339   3.416   7.530  2.5836 -0.7432 -0.6891
   98SAPS  C212 9801   3.345   3.313   7.706  0.2843 -0.4595 -0.2099
   98SAPS  H12R 9802   3.364   3.408   7.760  0.2598 -0.1440 -0.7533
   98SAPS  C213 9803   3.345   3.188   7.790  0.8108 -0.1303  0.3704
   98SAPS  H13R 9804   3.452   3.175   7.820  1.9922  1.1037 -2.8514
   98SAPS  H13S 9805   3.315   3.102   7.728  0.7447 -1.0218  1.5982
   98SAPS  C214 9806   3.245   3.194   7.906  0.1562 -0.1803 -0.4751
   98SAPS  H14R 9807   3.150   3.238   7.872  0.4778 -0.5244 -1.8633
   98SAPS  C215 9808   3.259   3.152   8.032 -0.0015  0.0656  0.0954
   98SAPS  H15R 9809   3.170   3.156   8.097  0.5158 -1.7581  0.9884
   98SAPS  C216 9810   3.376   3.076   8.087  0.3635 -0.4725  0.0234
   98SAPS  H16R 9811   3.442   3.138   8.151  0.1246  1.7781 -1.7661
   98SAPS  H16S 9812   3.444   3.040   8.006  0.0613  1.0227 -0.9191
   98SAPS  C217 9813   3.323   2.951   8.156  0.8492  0.2460 -0.4621
   98SAPS  H17R 9814   3.408   2.880   8.168  1.0661  0.2396 -1.8878
   98SAPS  H17S 9815   3.246   2.897   8.098  0.8793 -0.6240  0.2711
   98SAPS  C218 9816   3.264   2.973   8.307 -0.7398  0.2527  0.1995
   98SAPS  H18R 9817   3.195   3.059   8.296  0.7074  1.6252  1.3396
   98SAPS  H18S 9818   3.347   3.004   8.374 -1.3068  1.5952  0.3141
   98SAPS  C219 9819   3.196   2.853   8.363  0.1951  0.0001  0.2065
   98SAPS  H19R 9820   3.114   2.815   8.297 -0.3044 -2.0784  1.9287
   98SAPS  H19S 9821   3.132   2.884   8.449  1.4239 -1.8797  1.8573
   98SAPS  C220 9822   3.289   2.739   8.416  0.6222 -0.2021  0.0990
   98SAPS  H20R 9823   3.339   2.694   8.328  0.7352 -0.7956  0.4652
   98SAPS  H20S 9824   3.235   2.676   8.491 -0.3867  3.3776  2.6595
   98SAPS  H20T 9825   3.369   2.779   8.482 -0.7141 -0.7402  2.1576
   98SAPS   C33 9826   3.421   2.775   6.901  0.3325 -0.3572  0.0329
   98SAPS   H3X 9827   3.387   2.868   6.951 -0.2455 -1.1650  1.1990
   98SAPS   H3Y 9828   3.524   2.793   6.864  0.2653 -0.5067 -0.2291
   98SAPS   C34 9829   3.431   2.676   7.011 -0.7190 -0.2917  0.4667
   98SAPS   H4X 9830   3.459   2.582   6.959 -1.6979 -0.0819 -0.4890
   98SAPS   H4Y 9831   3.330   2.655   7.053 -0.5685 -2.8289 -0.2621
   98SAPS   C35 9832   3.542   2.714   7.108  0.1594  0.0447  0.6440
   98SAPS   H5X 9833   3.497   2.793   7.171 -2.4169 -1.2497  0.5732
   98SAPS   H5Y 9834   3.630   2.745   7.047 -0.2803  1.6510  0.7812
   98SAPS   C36 9835   3.590   2.599   7.192  0.0207  0.3889 -0.1564
   98SAPS   H6X 9836   3.687   2.622   7.241  0.6273 -1.4320 -0.4110
   98SAPS   H6Y 9837   3.609   2.511   7.126  1.1134  1.0422 -0.7582
   98SAPS   C37 9838   3.481   2.558   7.295 -0.4216  0.0879  0.3705
   98SAPS   H7X 9839   3.505   2.457   7.334 -1.5153 -0.9788 -1.6052
   98SAPS   H7Y 9840   3.382   2.542   7.248 -2.1971 -1.1275  4.1224
   98SAPS   C38 9841   3.459   2.654   7.416  0.2047  0.1199 -0.3553
   98SAPS   H8X 9842   3.402   2.746   7.390 -0.5692 -0.2352  0.0466
   98SAPS   H8Y 9843   3.555   2.699   7.450  0.5332 -0.5807 -0.3551
   98SAPS   C39 9844   3.397   2.587   7.533 -0.2628  0.6950 -1.3165
   98SAPS   H9X 9845   3.476   2.530   7.586 -1.0161  0.4137 -0.4775
   98SAPS   H9Y 9846   3.317   2.520   7.497  1.1752 -2.9456  1.5938
   98SAPS  C310 9847   3.336   2.679   7.640  0.0590 -0.4428  0.1128
   98SAPS  H10X 9848   3.241   2.727   7.607 -0.0865  0.0542  1.1866
   98SAPS  H10Y 9849   3.406   2.763   7.659  1.9837 -1.4115 -2.1526
   98SAPS  C311 9850   3.310   2.591   7.761 -0.0018 -0.4103  0.5000
   98SAPS  H11X 9851   3.396   2.525   7.784 -1.1924 -1.3417  2.5186
   98SAPS  H11Y 9852   3.219   2.531   7.739 -1.2179  2.1407 -2.2244
   98SAPS  C312 9853   3.296   2.675   7.891  0.1343  0.3740  0.4114
   98SAPS  H12X 9854   3.216   2.750   7.877 -0.7313 -0.7518 -0.9116
   98SAPS  H12Y 9855   3.394   2.719   7.919  1.2570 -1.8564  0.2938
   98SAPS  C313 9856   3.246   2.589   8.011 -0.1153 -0.1888 -0.1001
   98SAPS  H13X 9857   3.165   2.518   7.984  1.4539 -2.2297  0.2593
   98SAPS  H13Y 9858   3.210   2.662   8.087 -1.6471 -1.3041  0.3056
   98SAPS  C314 9859   3.363   2.502   8.069  0.3731  0.1482  0.0340
   98SAPS  H14X 9860   3.449   2.571   8.088  0.8372 -0.5235  0.4131
   98SAPS  H14Y 9861   3.371   2.426   7.989  0.5194 -0.3827  0.5485
   98SAPS  C315 9862   3.323   2.425   8.202  0.0571  0.4251 -0.5531
   98SAPS  H15X 9863   3.237   2.360   8.176 -1.0048  1.4150  0.3988
   98SAPS  H15Y 9864   3.282   2.499   8.274  2.8474 -0.5938  2.2743
   98SAPS  C316 9865   3.432   2.340   8.260  0.3691 -0.1328 -0.3018
   98SAPS  H16X 9866   3.400   2.299   8.358 -0.1974  0.7212 -0.1295
   98SAPS  H16Y 9867   3.525   2.397   8.281 -0.9100  0.6630  4.1695
   98SAPS  C317 9868   3.472   2.217   8.182 -0.4387  0.2300 -0.4590
   98SAPS  H17X 9869   3.509   2.260   8.086  0.0335  0.7672 -0.0449
   98SAPS  H17Y 9870   3.383   2.155   8.159  0.8585 -1.2933 -1.6309
   98SAPS  C318 9871   3.578   2.132   8.244  0.7661 -0.9991  0.5949
   98SAPS  H18X 9872   3.638   2.090   8.161 -0.0293 -0.5473 -0.2265
   98SAPS  H18Y 9873   3.538   2.052   8.309  0.2050 -0.5777  0.7773
   98SAPS  H18Z 9874   3.646   2.195   8.307 -2.3001  1.6573  1.5277
   99SAPS     N 9875   1.607   6.137   6.170  0.4195 -0.6901  0.4157
   99SAPS   HN1 9876   1.545   6.220   6.162 -1.0707 -1.8355 -0.7065
   99SAPS   HN2 9877   1.534   6.064   6.185  0.3482 -1.0732 -1.5743
   99SAPS   HN3 9878   1.671   6.135   6.252 -2.8462  1.8289  3.3949
   99SAPS   C12 9879   1.662   6.094   6.034 -0.9019  0.2465 -0.1941
   99SAPS  H12A 9880   1.690   5.990   6.043 -1.0198  0.3017  0.9710
   99SAPS   C13 9881   1.570   6.112   5.910  0.5813  0.0382 -0.4319
   99SAPS  O13A 9882   1.444   6.115   5.923 -0.4028  0.5176  0.2012
   99SAPS  O13B 9883   1.615   6.114   5.796  0.2402  0.2369  0.9620
   99SAPS   C11 9884   1.786   6.186   6.004  0.4946  0.1926 -0.2526
   99SAPS  H11A 9885   1.744   6.287   5.986 -0.5181 -0.6158 -2.9702
   99SAPS  H11B 9886   1.836   6.163   5.907  0.8398  1.2397 -0.3414
   99SAPS     P 9887   1.984   6.091   6.157  0.2097 -0.3541  0.2293
   99SAPS   O13 9888   1.927   5.957   6.164 -0.2579 -0.5776 -0.0746
   99SAPS   O14 9889   2.097   6.113   6.061  0.3556  0.5433  0.0581
   99SAPS   O12 9890   1.879   6.199   6.111  0.3973  0.2336  0.2745
   99SAPS   O11 9891   2.020   6.147   6.299 -0.0818  0.7862  0.6061
   99SAPS    C1 9892   2.114   6.067   6.367 -0.0626 -0.1647 -0.2668
   99SAPS    HA 9893   2.063   5.986   6.424  3.5429 -2.4891 -0.0245
   99SAPS    HB 9894   2.195   6.028   6.301  2.7361  3.9650  0.3515
   99SAPS    C2 9895   2.188   6.156   6.478  0.1151  0.8285 -0.8136
   99SAPS    HS 9896   2.183   6.262   6.447  1.5960  1.9103  2.2017
   99SAPS   O21 9897   2.321   6.111   6.513  0.2465 -0.3316 -0.4573
   99SAPS   C21 9898   2.413   6.130   6.413 -0.2459  0.1552  0.0977
   99SAPS   O22 9899   2.390   6.174   6.304 -0.2807 -0.3869 -0.1264
   99SAPS   C22 9900   2.545   6.106   6.483 -0.5278  0.3436 -0.2034
   99SAPS   H2R 9901   2.531   6.077   6.589 -0.1961 -0.7292 -0.4382
   99SAPS   H2S 9902   2.583   6.016   6.430 -0.2089  0.4152 -0.1020
   99SAPS    C3 9903   2.096   6.142   6.607 -0.0044 -0.1211 -0.1858
   99SAPS    HX 9904   2.061   6.037   6.612 -2.4329  0.6764  0.9028
   99SAPS    HY 9905   1.998   6.193   6.591  0.0734  0.2166  0.3848
   99SAPS   O31 9906   2.160   6.183   6.734 -0.3003  0.3255  0.8604
   99SAPS   C31 9907   2.185   6.313   6.737 -0.0430  0.0565 -0.5688
   99SAPS   O32 9908   2.145   6.389   6.649 -0.1088  0.4316 -0.1033
   99SAPS   C32 9909   2.260   6.341   6.863 -0.4705 -0.2710 -0.1237
   99SAPS   H2X 9910   2.324   6.251   6.876  2.2180  1.7800  2.0379
   99SAPS   H2Y 9911   2.194   6.344   6.952 -0.7472 -1.0196 -0.2948
   99SAPS   C23 9912   2.639   6.232   6.469 -0.4287 -0.5931 -0.9327
   99SAPS   H3R 9913   2.648   6.259   6.361  2.4403 -0.3845 -0.7200
   99SAPS   H3S 9914   2.735   6.201   6.515  1.6162  3.7186 -1.7947
   99SAPS   C24 9915   2.584   6.345   6.557 -0.2090 -0.4964 -0.6661
   99SAPS   H4R 9916   2.573   6.302   6.659 -0.0013  1.3758  0.1848
   99SAPS   H4S 9917   2.484   6.372   6.518  1.1597  0.6637 -3.6917
   99SAPS   C25 9918   2.669   6.474   6.545 -0.3536  0.3372 -0.9286
   99SAPS   H5R 9919   2.681   6.505   6.440  0.8797  2.4058 -0.2350
   99SAPS   C26 9920   2.746   6.536   6.645 -0.5079  0.1340  0.0013
   99SAPS   H6R 9921   2.801   6.625   6.613 -0.5679  0.5705  1.0685
   99SAPS   C27 9922   2.749   6.505   6.790  0.6530  0.1561  0.2066
   99SAPS   H7R 9923   2.648   6.464   6.811  0.6500 -0.5551 -1.1094
   99SAPS   H7S 9924   2.766   6.593   6.855  0.8789  1.9624 -2.1782
   99SAPS   C28 9925   2.848   6.400   6.835  0.0784 -0.4133 -0.1561
   99SAPS   H8R 9926   2.920   6.369   6.757 -1.6338  2.0883 -2.9459
   99SAPS   C29 9927   2.876   6.368   6.961  0.2052  0.7729 -0.2400
   99SAPS   H9R 9928   2.932   6.276   6.983  0.3332  0.4892 -1.7076
   99SAPS  C210 9929   2.820   6.427   7.087 -0.2721 -0.3397 -0.9844
   99SAPS  H10R 9930   2.717   6.460   7.064 -0.8252 -0.0208  1.6312
   99SAPS  H10S 9931   2.872   6.522   7.110 -0.5986  0.5214 -3.5433
   99SAPS  C211 9932   2.807   6.340   7.209  0.4232 -0.2435  0.9715
   99SAPS  H11R 9933   2.780   6.236   7.190 -0.3374  0.4207 -2.0311
   99SAPS  C212 9934   2.825   6.366   7.338  0.0313  0.5718 -0.6179
   99SAPS  H12R 9935   2.817   6.283   7.410  1.0643 -0.7148 -1.9008
   99SAPS  C213 9936   2.865   6.491   7.413  0.1972 -0.1649  0.5669
   99SAPS  H13R 9937   2.842   6.573   7.342 -2.3293 -0.6916  0.6917
   99SAPS  H13S 9938   2.973   6.479   7.434  0.6695  1.6439 -0.5585
   99SAPS  C214 9939   2.777   6.526   7.526  0.9131 -0.0960  0.4402
   99SAPS  H14R 9940   2.674   6.548   7.494  1.7814  1.5884 -1.4014
   99SAPS  C215 9941   2.808   6.558   7.653  0.1299 -0.7241  0.2695
   99SAPS  H15R 9942   2.725   6.583   7.721  0.7785  1.6814  0.2531
   99SAPS  C216 9943   2.952   6.576   7.713 -0.4429 -0.4007 -0.2278
   99SAPS  H16R 9944   2.956   6.681   7.752  0.8866 -0.9606  1.2549
   99SAPS  H16S 9945   3.025   6.559   7.631  0.9572 -1.1642  1.1231
   99SAPS  C217 9946   2.971   6.471   7.818 -0.1196 -0.4727 -0.8049
   99SAPS  H17R 9947   2.891   6.479   7.894  0.8348  1.4146  0.0809
   99SAPS  H17S 9948   3.057   6.484   7.888 -1.9930 -0.0569  1.5441
   99SAPS  C218 9949   2.984   6.331   7.754 -0.2118 -0.3110 -0.6728
   99SAPS  H18R 9950   3.069   6.320   7.684  1.4677  0.8234  1.0952
   99SAPS  H18S 9951   2.887   6.296   7.711 -1.4635  1.2794  0.7301
   99SAPS  C219 9952   2.995   6.215   7.863  0.2182  0.2095 -0.1637
   99SAPS  H19R 9953   2.919   6.232   7.941  0.9209  1.1148  0.3510
   99SAPS  H19S 9954   3.096   6.231   7.908  0.9289 -2.6137 -0.5427
   99SAPS  C220 9955   2.977   6.071   7.812  0.0782 -0.0284 -0.6403
   99SAPS  H20R 9956   3.056   6.042   7.739  0.0459  0.5113 -0.8918
   99SAPS  H20S 9957   2.884   6.067   7.750 -2.2066  3.2626  2.2395
   99SAPS  H20T 9958   2.973   5.994   7.892 -1.3287  0.4808 -0.2058
   99SAPS   C33 9959   2.357   6.463   6.854  0.4380  0.6377  0.0484
   99SAPS   H3X 9960   2.406   6.470   6.755 -0.5771  0.8567 -0.4521
   99SAPS   H3Y 9961   2.438   6.444   6.927  1.8753  0.2713 -1.5828
   99SAPS   C34 9962   2.289   6.602   6.874 -0.3245 -0.1712 -0.0683
   99SAPS   H4X 9963   2.236   6.608   6.971  1.8934  2.8008  1.0852
   99SAPS   H4Y 9964   2.209   6.599   6.797  1.4680 -0.1849 -2.0153
   99SAPS   C35 9965   2.382   6.716   6.853 -0.3290  0.3386  0.1782
   99SAPS   H5X 9966   2.326   6.812   6.843  1.1734  1.1357 -0.9129
   99SAPS   H5Y 9967   2.427   6.706   6.752  0.5995 -0.9023  0.6955
   99SAPS   C36 9968   2.487   6.739   6.969 -0.3930  0.0553  0.2739
   99SAPS   H6X 9969   2.557   6.816   6.932 -2.1772  2.1868  1.1067
   99SAPS   H6Y 9970   2.539   6.642   6.977  0.4344  0.3213 -1.4536
   99SAPS   C37 9971   2.426   6.759   7.106  0.3753  0.2582  0.1975
   99SAPS   H7X 9972   2.374   6.667   7.142 -2.2343  0.5378 -2.5223
   99SAPS   H7Y 9973   2.348   6.837   7.119 -2.0309 -2.1415  1.2875
   99SAPS   C38 9974   2.537   6.806   7.197  0.2559 -0.2812 -1.0285
   99SAPS   H8X 9975   2.557   6.913   7.177  2.0933 -0.3148  0.3139
   99SAPS   H8Y 9976   2.635   6.757   7.177 -0.1071 -0.9619 -1.1496
   99SAPS   C39 9977   2.511   6.787   7.346 -0.4123 -1.0112 -0.3131
   99SAPS   H9X 9978   2.510   6.678   7.365  1.1253 -0.9002  0.5510
   99SAPS   H9Y 9979   2.411   6.825   7.379  1.0373  2.0925  0.9124
   99SAPS  C310 9980   2.622   6.859   7.426  0.9320  0.0860  0.3054
   99SAPS  H10X 9981   2.640   6.959   7.383  0.8493  0.1187  0.3471
   99SAPS  H10Y 9982   2.713   6.797   7.413  0.6946 -0.3467  0.6431
   99SAPS  C311 9983   2.589   6.863   7.577 -0.4151  0.3223  0.0961
   99SAPS  H11X 9984   2.555   6.765   7.614 -2.9982  1.3478  0.6702
   99SAPS  H11Y 9985   2.495   6.920   7.589 -0.5801 -0.4327  2.9872
   99SAPS  C312 9986   2.695   6.941   7.663  0.2820  0.1345  0.2435
   99SAPS  H12X 9987   2.689   7.044   7.622  0.3439 -0.9102 -2.6638
   99SAPS  H12Y 9988   2.791   6.888   7.644  0.5567  0.4144  0.8300
   99SAPS  C313 9989   2.664   6.950   7.815  0.4968  0.0430  0.4810
   99SAPS  H13X 9990   2.565   7.000   7.828  0.8545  0.5531  1.3906
   99SAPS  H13Y 9991   2.745   7.018   7.850  0.5298  1.7917 -2.6272
   99SAPS  C314 9992   2.668   6.822   7.896  0.1823 -0.1627 -0.7025
   99SAPS  H14X 9993   2.757   6.764   7.867  0.6470 -2.0619  3.7440
   99SAPS  H14Y 9994   2.586   6.753   7.869  0.8419 -0.9377 -0.7517
   99SAPS  C315 9995   2.683   6.838   8.043  0.2362  0.1706 -0.2685
   99SAPS  H15X 9996   2.582   6.848   8.088 -0.7482  1.0671 -2.5105
   99SAPS  H15Y 9997   2.723   6.937   8.070 -1.3806 -0.2328  4.4807
   99SAPS  C316 9998   2.771   6.725   8.093 -0.2685  0.0662 -0.3735
   99SAPS  H16X 9999   2.787   6.732   8.202  1.0997  0.7504 -0.5976
   99SAPS  H16Y10000   2.870   6.726   8.042  1.2485 -1.8694  2.2938
   99SAPS  C31710001   2.701   6.589   8.073 -0.1172  0.1569  0.0241
   99SAPS  H17X10002   2.711   6.561   7.966  0.5343  0.9112 -0.1244
   99SAPS  H17Y10003   2.595   6.599   8.107  0.4753  0.8021  1.8123
   99SAPS  C31810004   2.763   6.465   8.138  0.0264 -0.0077 -0.2270
   99SAPS  H18X10005   2.783   6.476   8.247 -1.2286 -0.8956  0.1250
   99SAPS  H18Y10006   2.854   6.441   8.080  0.5022  2.5283 -0.6264
   99SAPS  H18Z10007   2.693   6.378   8.140 -0.6123  0.5078  0.0966
  100SAPS     N10008   6.106   1.790   6.246 -0.0092  0.1708  0.3675
  100SAPS   HN110009   6.095   1.745   6.339  0.0641 -0.4605  0.0806
  100SAPS   HN210010   6.174   1.868   6.249  0.5636 -0.1649 -1.8945
  100SAPS   HN310011   6.013   1.825   6.215 -0.4100 -1.3171 -0.2253
  100SAPS   C1210012   6.153   1.689   6.159  0.4514  0.4442  0.1217
  100SAPS  H12A10013   6.104   1.595   6.180  0.0485  1.0695  2.1450
  100SAPS   C1310014   6.122   1.699   6.010 -0.0280  0.0110  0.0057
  100SAPS  O13A10015   6.068   1.806   5.967  0.5287  0.3361  0.2934
  100SAPS  O13B10016   6.149   1.603   5.931 -0.2369 -0.0850 -0.3635
  100SAPS   C1110017   6.312   1.670   6.184  1.1276 -0.9855 -0.0300
  100SAPS  H11A10018   6.339   1.581   6.123  0.0850 -1.4596  0.1700
  100SAPS  H11B10019   6.312   1.639   6.291  1.0772 -2.0383 -0.3167
  100SAPS     P10020   6.542   1.789   6.197 -0.2956 -0.3249  0.2128
  100SAPS   O1310021   6.610   1.681   6.126  0.1978 -0.5370  0.4722
  100SAPS   O1410022   6.604   1.928   6.192 -0.0052 -0.4479 -0.7093
  100SAPS   O1210023   6.384   1.793   6.155 -0.0823  0.6350 -0.6654
  100SAPS   O1110024   6.533   1.751   6.346 -0.5460 -0.3115 -0.5308
  100SAPS    C110025   6.461   1.832   6.445  0.2802  0.6562 -0.5234
  100SAPS    HA10026   6.371   1.885   6.406 -0.5635 -0.3835 -0.0447
  100SAPS    HB10027   6.418   1.761   6.519  1.5640 -0.2947 -0.6592
  100SAPS    C210028   6.567   1.921   6.527 -0.6972  0.2467 -0.4498
  100SAPS    HS10029   6.626   1.974   6.449  1.4716 -1.3277  0.0149
  100SAPS   O2110030   6.646   1.827   6.603 -0.0179  0.3439 -0.1571
  100SAPS   C2110031   6.770   1.794   6.566 -1.2165  0.1025  0.5169
  100SAPS   O2210032   6.832   1.818   6.468  0.2660  0.4704 -0.1054
  100SAPS   C2210033   6.823   1.696   6.672 -0.7410 -0.8344 -0.2611
  100SAPS   H2R10034   6.773   1.726   6.767 -0.8459  1.6995 -1.0490
  100SAPS   H2S10035   6.799   1.594   6.636  1.3587 -0.3715 -3.2662
  100SAPS    C310036   6.500   2.022   6.618 -0.1605  0.0718 -0.5246
  100SAPS    HX10037   6.411   1.970   6.659 -0.3015  0.4867 -0.2976
  100SAPS    HY10038   6.469   2.111   6.558 -1.5013 -0.3163 -0.4532
  100SAPS   O3110039   6.580   2.056   6.734  0.0546 -0.0281  0.2714
  100SAPS   C3110040   6.675   2.141   6.710  0.5481  0.1046  0.7504
  100SAPS   O3210041   6.720   2.169   6.603 -0.2484  0.4247  0.5311
  100SAPS   C3210042   6.745   2.167   6.847 -0.2012  0.0843  0.6830
  100SAPS   H2X10043   6.721   2.271   6.878  0.3735 -0.4007  2.9529
  100SAPS   H2Y10044   6.853   2.168   6.823 -0.0423 -0.7445  1.3048
  100SAPS   C2310045   6.978   1.703   6.683 -0.2743 -0.0442  0.1723
  100SAPS   H3R10046   7.009   1.802   6.645  1.8959 -0.2836  1.2026
  100SAPS   H3S10047   7.015   1.633   6.606 -0.2658 -0.9177  0.9520
  100SAPS   C2410048   7.047   1.670   6.822 -0.0615 -0.2417 -0.0734
  100SAPS   H4R10049   7.019   1.752   6.892 -2.6400  0.2488 -1.5514
  100SAPS   H4S10050   7.156   1.685   6.806 -0.0031  1.3144  1.4014
  100SAPS   C2510051   7.022   1.529   6.868  0.0551  0.4694 -0.1925
  100SAPS   H5R10052   7.054   1.451   6.798  1.0337  2.0982 -1.6658
  100SAPS   C2610053   6.965   1.496   6.987 -0.3010  0.9865 -0.6645
  100SAPS   H6R10054   6.968   1.393   7.025  2.2580  0.9665 -0.7577
  100SAPS   C2710055   6.904   1.584   7.090 -0.1732  0.5341 -0.7332
  100SAPS   H7R10056   6.835   1.655   7.039 -0.9681 -0.5195 -1.1551
  100SAPS   H7S10057   6.990   1.639   7.136  0.2951 -2.0055  1.6923
  100SAPS   C2810058   6.834   1.532   7.220 -0.2204 -0.4340  0.5714
  100SAPS   H8R10059   6.729   1.564   7.232  0.2001  1.1325  0.3348
  100SAPS   C2910060   6.887   1.446   7.308 -0.0725  0.6852 -1.0647
  100SAPS   H9R10061   6.841   1.425   7.405  0.1955  3.6382 -0.1898
  100SAPS  C21010062   7.029   1.389   7.311  0.7801 -0.7800  0.0083
  100SAPS  H10R10063   7.083   1.431   7.397 -0.2611 -0.1947  0.4024
  100SAPS  H10S10064   7.091   1.427   7.227  0.5875 -1.2636 -0.3570
  100SAPS  C21110065   7.032   1.241   7.327  0.3673  0.2197 -0.2209
  100SAPS  H11R10066   6.956   1.186   7.269 -0.5017 -1.3649  2.2462
  100SAPS  C21210067   7.116   1.162   7.390 -0.4312 -0.1603 -0.1576
  100SAPS  H12R10068   7.095   1.054   7.391  1.0089 -0.4616  0.1865
  100SAPS  C21310069   7.237   1.210   7.468  0.2613 -0.4525  0.0615
  100SAPS  H13R10070   7.206   1.282   7.547  2.7378  0.4726  0.2784
  100SAPS  H13S10071   7.306   1.260   7.397 -1.4404 -0.5941 -1.7919
  100SAPS  C21410072   7.310   1.089   7.534  0.1784  0.1492 -0.1754
  100SAPS  H14R10073   7.401   1.055   7.483 -0.3716 -2.4690  0.4555
  100SAPS  C21510074   7.270   1.048   7.652 -0.1604 -0.0685 -0.3835
  100SAPS  H15R10075   7.312   0.964   7.710  0.2725 -0.0356 -0.6438
  100SAPS  C21610076   7.152   1.094   7.733 -0.1318  0.2905 -0.1787
  100SAPS  H16R10077   7.059   1.052   7.689  0.5468 -0.5014 -0.9027
  100SAPS  H16S10078   7.128   1.201   7.719 -1.6582 -0.2112 -1.8296
  100SAPS  C21710079   7.153   1.053   7.879 -0.1233  0.0743  0.4272
  100SAPS  H17R10080   7.182   0.947   7.894  1.1603  0.6649  2.5012
  100SAPS  H17S10081   7.057   1.069   7.931 -1.1210 -0.6210 -1.1219
  100SAPS  C21810082   7.253   1.134   7.965 -0.1982  0.2251  0.0298
  100SAPS  H18R10083   7.355   1.122   7.923  0.0005  0.3222  0.4805
  100SAPS  H18S10084   7.243   1.101   8.070 -0.7350 -1.8428 -0.6115
  100SAPS  C21910085   7.243   1.289   7.966  0.6501  0.3972  0.4640
  100SAPS  H19R10086   7.152   1.333   8.013  1.2291 -0.1711  2.1785
  100SAPS  H19S10087   7.248   1.326   7.861  1.0464  0.0218  0.3476
  100SAPS  C22010088   7.361   1.350   8.038 -0.2658  0.0104  0.1488
  100SAPS  H20R10089   7.366   1.319   8.145 -2.2952  0.3623  0.3817
  100SAPS  H20S10090   7.355   1.460   8.025  0.4022  0.4912  3.1018
  100SAPS  H20T10091   7.455   1.313   7.992 -0.4289 -1.3728  0.8665
  100SAPS   C3310092   6.737   2.053   6.959  0.2278 -0.0702  0.5193
  100SAPS   H3X10093   6.729   1.962   6.895 -4.5345  1.2756 -1.1479
  100SAPS   H3Y10094   6.643   2.053   7.018  0.1040  1.4678  0.3600
  100SAPS   C3410095   6.860   2.053   7.049  0.0765 -0.0752 -0.1804
  100SAPS   H4X10096   6.956   2.075   6.998  1.3533 -1.7573  1.3705
  100SAPS   H4Y10097   6.860   1.947   7.082  0.5607  0.6764  2.4308
  100SAPS   C3510098   6.842   2.154   7.172  0.5123 -0.7969 -0.4103
  100SAPS   H5X10099   6.735   2.158   7.204  0.1812 -1.0095 -1.4540
  100SAPS   H5Y10100   6.851   2.250   7.117 -4.2561 -1.5522 -3.1181
  100SAPS   C3610101   6.937   2.137   7.290 -0.1110  0.1040  0.5004
  100SAPS   H6X10102   6.945   2.218   7.365 -0.0060  0.5928 -0.0344
  100SAPS   H6Y10103   7.036   2.115   7.245 -0.3240 -0.4135  0.2766
  100SAPS   C3710104   6.900   2.013   7.374  0.3244  0.5527  0.6827
  100SAPS   H7X10105   6.855   1.935   7.309  0.9619  2.3452 -2.1383
  100SAPS   H7Y10106   6.819   2.048   7.441 -0.1363  0.4102  0.2017
  100SAPS   C3810107   7.020   1.955   7.455  0.9774 -0.0385  0.0618
  100SAPS   H8X10108   7.055   2.026   7.532 -1.3457  1.3197 -0.0392
  100SAPS   H8Y10109   7.101   1.951   7.379  0.8824 -0.2659 -0.0271
  100SAPS   C3910110   6.982   1.823   7.516 -0.3117 -0.4340  0.5296
  100SAPS   H9X10111   6.966   1.752   7.433 -0.2445  1.2421 -0.9664
  100SAPS   H9Y10112   6.896   1.836   7.586  0.6576 -1.0930  1.8923
  100SAPS  C31010113   7.096   1.765   7.603 -0.4843 -0.1287 -0.1830
  100SAPS  H10X10114   7.165   1.845   7.639 -0.1948  0.4623 -1.9608
  100SAPS  H10Y10115   7.160   1.695   7.544  1.0499 -0.2501  1.5109
  100SAPS  C31110116   7.034   1.694   7.727 -0.6955  0.0434 -0.4053
  100SAPS  H11X10117   6.958   1.767   7.763  0.3272 -0.1240  2.3559
  100SAPS  H11Y10118   7.107   1.687   7.810 -2.4217 -0.4329  1.1403
  100SAPS  C31210119   6.987   1.551   7.705  0.3378  1.2608 -0.5838
  100SAPS  H12X10120   7.064   1.473   7.721 -0.3614  0.6481 -0.1518
  100SAPS  H12Y10121   6.941   1.547   7.604  0.0680  1.0959 -0.4537
  100SAPS  C31310122   6.879   1.508   7.806  0.2893  0.7659 -0.0202
  100SAPS  H13X10123   6.788   1.572   7.808 -1.2274 -1.2518 -0.7544
  100SAPS  H13Y10124   6.925   1.516   7.906  0.4948 -0.6990  0.0159
  100SAPS  C31410125   6.832   1.362   7.799 -0.5529 -0.0247 -0.0060
  100SAPS  H14X10126   6.739   1.350   7.859 -0.2587 -0.0173  0.4608
  100SAPS  H14Y10127   6.906   1.292   7.844 -0.5316 -0.0701 -0.1126
  100SAPS  C31510128   6.784   1.316   7.659  0.1035  0.3872  0.5092
  100SAPS  H15X10129   6.779   1.205   7.660 -0.4217  0.3931  2.5738
  100SAPS  H15Y10130   6.870   1.323   7.589 -0.3332  0.0174 -0.0734
  100SAPS  C31610131   6.663   1.387   7.601 -0.3790 -0.5120  0.9294
  100SAPS  H16X10132   6.686   1.489   7.563 -2.1987 -0.6542 -0.7098
  100SAPS  H16Y10133   6.592   1.396   7.685 -0.1221  0.8368  1.0201
  100SAPS  C31710134   6.604   1.307   7.471  0.0048  0.2253 -0.1912
  100SAPS  H17X10135   6.554   1.219   7.517 -1.2632  0.8747 -0.2842
  100SAPS  H17Y10136   6.685   1.281   7.399  0.7737  3.4622 -0.6625
  100SAPS  C31810137   6.507   1.392   7.399 -0.5270 -0.6756 -0.9219
  100SAPS  H18X10138   6.421   1.420   7.464 -0.5614 -1.9635 -0.3790
  100SAPS  H18Y10139   6.457   1.323   7.327 -0.4166  0.2299 -1.9001
  100SAPS  H18Z10140   6.544   1.479   7.340 -0.3798 -2.1063 -3.0327
  101OSM      N10141   2.610   6.479  10.746 -0.1194  0.8182 -0.3719
  101OSM    C1510142   2.466   6.454  10.784 -0.1847 -0.0179 -0.1421
  101OSM   H15A10143   2.422   6.529  10.848  0.8193  0.5512 -0.1076
  101OSM   H15B10144   2.438   6.355  10.820 -1.3482  0.5182  0.5012
  101OSM   H15C10145   2.412   6.474  10.693  1.5485  0.8971 -1.0136
  101OSM    C1410146   2.695   6.472  10.874  0.3410 -0.4180  0.2629
  101OSM   H14A10147   2.659   6.547  10.943 -0.5195 -0.6335  0.0632
  101OSM   H14B10148   2.801   6.491  10.869  0.5960 -1.8926 -0.2945
  101OSM   H14C10149   2.699   6.374  10.917  2.0162 -0.8981 -0.8880
  101OSM    C1310150   2.660   6.370  10.654 -0.3771  0.5379 -0.6852
  101OSM   H13A10151   2.666   6.272  10.701 -0.0785  1.2930  0.9263
  101OSM   H13B10152   2.764   6.382  10.627  0.5978  1.5682  2.9718
  101OSM   H13C10153   2.606   6.365  10.560 -1.2420 -2.0434 -0.1532
  101OSM    C1210154   2.619   6.609  10.668  0.3054 -0.4420  0.5531
  101OSM   H12A10155   2.719   6.650  10.666 -0.0105  0.3905  1.2417
  101OSM   H12B10156   2.570   6.690  10.720 -0.1692  0.9046 -1.8554
  101OSM    C1110157   2.555   6.612  10.531  0.8886  0.0237  0.2450
  101OSM   H11A10158   2.588   6.525  10.469  0.6143  0.4941 -0.5736
  101OSM   H11B10159   2.600   6.697  10.476  2.2790 -2.1827 -2.2975
  101OSM      P10160   2.346   6.763  10.583  0.2438 -0.3779 -0.0056
  101OSM    O1310161   2.208   6.748  10.640 -0.1394  0.5071  0.4272
  101OSM    O1410162   2.436   6.843  10.663  0.9563 -0.1195  0.2535
  101OSM    O1110163   2.325   6.844  10.449 -1.0927 -0.0318  0.2580
  101OSM    O1210164   2.416   6.626  10.546  0.0378  0.6977  0.0891
  101OSM    C1S10165   2.257   6.787  10.336  0.6810  0.2154 -0.3786
  101OSM    H1S10166   2.217   6.685  10.355  0.5597  0.6033  1.6755
  101OSM    H1T10167   2.318   6.773  10.244  0.7128  0.3292 -0.3754
  101OSM     NF10168   2.067   6.809  10.178 -0.3766 -0.3064 -0.0132
  101OSM    HNF10169   2.096   6.808  10.083 -0.7356  0.5115 -0.1409
  101OSM    C2S10170   2.144   6.879  10.278 -0.2951 -0.2630 -0.1082
  101OSM    H2S10171   2.075   6.900  10.363  1.3059  2.4721  0.6357
  101OSM    C3S10172   2.220   7.005  10.225  0.4398 -0.5533 -0.2232
  101OSM    H3S10173   2.294   6.970  10.150  0.0773 -0.5414 -0.5934
  101OSM     O310174   2.271   7.087  10.327 -0.1978 -0.2134 -1.2917
  101OSM    HO310175   2.290   7.030  10.402 -1.0125  0.7412 -0.3271
  101OSM    C4S10176   2.112   7.087  10.154 -0.2656 -0.2053  0.2269
  101OSM    H4S10177   2.017   7.095  10.209 -0.5275  0.4050 -0.3044
  101OSM    C5S10178   2.124   7.160  10.037 -0.4313  0.1826 -0.7536
  101OSM    H5S10179   2.224   7.165   9.993  0.7210 -1.3867  1.4785
  101OSM    C6S10180   2.005   7.228   9.978 -0.7695 -0.1502  0.1050
  101OSM    H6S10181   2.010   7.339   9.986  2.8494 -0.2659  1.2630
  101OSM    H6T10182   1.906   7.201  10.021 -1.7529  2.0383 -0.6322
  101OSM    C7S10183   1.991   7.196   9.834 -0.6829 -0.4513 -0.2084
  101OSM    H7S10184   2.093   7.204   9.790  0.4296  1.3705  2.4446
  101OSM    H7T10185   1.920   7.262   9.780  0.6948  0.0692 -1.4450
  101OSM    C8S10186   1.935   7.050   9.817 -0.1799 -0.3082  0.0084
  101OSM    H8S10187   1.839   7.043   9.872 -0.4105  1.2875 -0.1528
  101OSM    H8T10188   2.000   6.992   9.887  1.1583  1.9508  0.7374
  101OSM    C9S10189   1.942   6.986   9.679 -0.0790 -0.2400  0.7171
  101OSM    H9S10190   1.899   6.883   9.677  1.4219 -0.8957  0.7459
  101OSM    H9T10191   2.050   6.969   9.661 -0.2093  0.8399 -1.2798
  101OSM   C10S10192   1.888   7.068   9.564  0.3466  0.3650  0.5583
  101OSM   H10S10193   1.933   7.169   9.546 -1.4089  0.6865 -2.7908
  101OSM   H10T10194   1.784   7.096   9.590  0.2914 -0.7543  1.6016
  101OSM   C11S10195   1.890   6.985   9.435  0.2098  0.1714  0.2818
  101OSM   H11S10196   1.833   6.893   9.462 -0.5254  0.5248 -0.0638
  101OSM   H11T10197   1.993   6.959   9.403  0.3628  0.8908  0.1730
  101OSM   C12S10198   1.822   7.048   9.317  0.5020 -0.0005 -0.1259
  101OSM   H12S10199   1.905   7.109   9.275  0.9526  0.2048  1.0143
  101OSM   H12T10200   1.747   7.118   9.359  1.2044  0.6663  0.0495
  101OSM   C13S10201   1.741   6.960   9.223  0.5151  0.5360  0.3953
  101OSM   H13S10202   1.657   6.907   9.273  3.4825 -1.9785  3.2247
  101OSM   H13T10203   1.802   6.875   9.187 -0.6115  0.1784 -0.7425
  101OSM   C14S10204   1.707   7.025   9.084  0.1526  0.2648  0.2427
  101OSM   H14S10205   1.801   7.057   9.035 -0.7529  0.3272 -1.5475
  101OSM   H14T10206   1.634   7.108   9.092  1.3067  1.4619 -1.0404
  101OSM   C15S10207   1.644   6.931   8.978 -0.5074 -0.7784  0.0323
  101OSM   H15S10208   1.541   6.897   9.002 -1.3918  0.7049 -1.4688
  101OSM   H15T10209   1.715   6.848   8.958  2.3298  1.5815 -0.2853
  101OSM   C16S10210   1.638   7.001   8.839  0.5526  0.0747  0.8428
  101OSM   H16S10211   1.741   7.027   8.808  0.5615  0.7542  1.4212
  101OSM   H16T10212   1.578   7.090   8.870 -0.8531 -0.9252  1.0884
  101OSM   C17S10213   1.553   6.929   8.731 -0.3748 -0.5576 -0.7452
  101OSM   H17S10214   1.452   6.901   8.770 -0.9075  1.3886 -0.6522
  101OSM   H17T10215   1.596   6.828   8.713 -2.3513 -1.5994 -0.0645
  101OSM   C18S10216   1.540   7.010   8.598 -0.7077  0.3584 -0.0567
  101OSM   H18S10217   1.498   6.954   8.512 -2.3308 -0.4000  1.1678
  101OSM   H18T10218   1.640   7.048   8.569 -0.7774 -0.9965 -2.3274
  101OSM   H18U10219   1.476   7.100   8.609 -1.3083 -0.1783  1.0973
  101OSM    C1F10220   1.970   6.724  10.216 -0.1511  0.7825 -0.5735
  101OSM     OF10221   1.923   6.726  10.330 -0.0578 -0.0987  0.1794
  101OSM    C2F10222   1.913   6.632  10.106  0.3016 -0.2240 -0.1265
  101OSM    H2F10223   1.927   6.525  10.130 -0.6339 -0.4003 -0.2905
  101OSM    H2G10224   1.984   6.650  10.022  0.0123 -3.4429 -1.1961
  101OSM    C3F10225   1.768   6.656  10.068 -0.0713  0.7867 -0.4767
  101OSM    H3F10226   1.691   6.636  10.147 -0.9736  0.7589 -1.3457
  101OSM    H3G10227   1.753   6.587   9.983 -1.2294 -1.0354  1.1090
  101OSM    C4F10228   1.726   6.794  10.014 -0.3445  0.3743 -0.0119
  101OSM    H4F10229   1.795   6.826   9.933 -0.0984 -0.2572 -0.0563
  101OSM    H4G10230   1.724   6.862  10.101  3.4837 -1.0918  1.4414
  101OSM    C5F10231   1.584   6.790   9.947 -0.1253 -0.8038 -0.2777
  101OSM    H5F10232   1.569   6.899   9.938 -0.0565 -0.7567  0.1791
  101OSM    H5G10233   1.502   6.768  10.019  0.8252 -0.2936  0.9929
  101OSM    C6F10234   1.569   6.712   9.809 -0.6173  0.6968 -1.3182
  101OSM    H6F10235   1.463   6.714   9.774 -0.7963  1.0866 -0.7637
  101OSM    H6G10236   1.585   6.603   9.827  0.2860  0.8669 -1.0495
  101OSM    C7F10237   1.653   6.770   9.698  0.7626 -0.3725 -0.0094
  101OSM    H7F10238   1.759   6.753   9.727  1.1552  1.3887 -0.2860
  101OSM    H7G10239   1.643   6.880   9.690  1.6619 -0.0159  2.7415
  101OSM    C8F10240   1.604   6.705   9.565  0.3004 -0.1108 -0.8190
  101OSM    H8F10241   1.634   6.761   9.474 -3.7064  1.3790 -1.4227
  101OSM    H8G10242   1.495   6.704   9.547  0.4083 -1.5213 -1.5054
  101OSM    C9F10243   1.652   6.566   9.557 -0.7789  0.3503  0.5133
  101OSM    H9F10244   1.707   6.531   9.645 -0.3303 -0.9306 -0.2503
  101OSM   C10F10245   1.637   6.481   9.454  0.2634 -0.0346  0.5044
  101OSM   H10F10246   1.662   6.376   9.473  0.6720  0.2051  1.3280
  101OSM   C11F10247   1.574   6.511   9.318 -0.2374  0.5257 -0.4359
  101OSM   H11F10248   1.495   6.589   9.331 -2.2305 -1.2919 -0.9947
  101OSM   H11G10249   1.511   6.421   9.302  0.0640 -0.2903  2.4051
  101OSM   C12F10250   1.669   6.539   9.206 -0.2018  0.3150 -0.2693
  101OSM   H12F10251   1.710   6.441   9.174 -2.1781 -0.7222  0.2430
  101OSM   H12G10252   1.754   6.603   9.237  0.4014 -1.0108  0.8707
  101OSM   C13F10253   1.598   6.607   9.090 -0.2368  0.1123  0.4421
  101OSM   H13F10254   1.656   6.616   8.996 -1.0641 -0.1222 -0.1023
  101OSM   H13G10255   1.580   6.710   9.126  2.5110  1.0443 -0.5746
  101OSM   C14F10256   1.461   6.543   9.042 -0.5064  0.5581 -0.4934
  101OSM   H14F10257   1.385   6.580   9.114 -0.3366  0.5826 -0.3261
  101OSM   H14G10258   1.476   6.433   9.050 -0.7006  0.3186 -2.6866
  101OSM   C15F10259   1.415   6.574   8.903 -0.5420 -0.0576 -0.8607
  101OSM   H15F10260   1.497   6.546   8.833 -1.1338  0.0835 -1.6263
  101OSM   H15G10261   1.390   6.682   8.905 -3.1052 -0.5854  2.3051
  101OSM   C16F10262   1.287   6.496   8.873 -0.0079  0.0259  0.5429
  101OSM   H16F10263   1.204   6.536   8.936  0.9960  1.6174  0.9031
  101OSM   H16G10264   1.320   6.397   8.911  1.0451 -0.1392 -0.7264
  101OSM   C17F10265   1.259   6.472   8.724 -0.4764  0.3014  0.8099
  101OSM   H17F10266   1.177   6.400   8.701 -0.5031  0.9298 -1.3010
  101OSM   H17G10267   1.353   6.430   8.685 -1.9342 -2.0877 -0.3608
  101OSM   C18F10268   1.225   6.600   8.648  0.1622 -0.1816 -0.2602
  101OSM   H18F10269   1.131   6.647   8.683 -0.9908 -0.5372 -2.6810
  101OSM   H18G10270   1.210   6.575   8.541  1.3036 -0.8426 -0.2831
  101OSM   H18H10271   1.307   6.675   8.653  0.8684 -0.8625 -1.2441
  102OSM      N10272   1.255   5.877  10.913  0.2474 -0.6414  0.0214
  102OSM    C1510273   1.108   5.892  10.867 -0.0284 -0.3017  0.4340
  102OSM   H15A10274   1.047   5.815  10.912 -2.0247 -0.3851 -2.2144
  102OSM   H15B10275   1.093   5.876  10.761 -0.5071  0.8035  0.3279
  102OSM   H15C10276   1.066   5.987  10.898 -0.2479 -0.7884  1.7225
  102OSM    C1410277   1.251   5.882  11.067  0.1412 -0.6900  0.1094
  102OSM   H14A10278   1.224   5.980  11.103 -0.9702 -0.2291 -1.8597
  102OSM   H14B10279   1.348   5.868  11.112 -1.1993  0.1282  3.5759
  102OSM   H14C10280   1.178   5.809  11.101  0.7168 -1.1891  0.2871
  102OSM    C1310281   1.311   5.744  10.878  0.0888 -0.0968  0.3141
  102OSM   H13A10282   1.407   5.727  10.924 -0.3694 -0.7502  1.0634
  102OSM   H13B10283   1.303   5.734  10.771 -4.6179  1.5958  0.2595
  102OSM   H13C10284   1.247   5.664  10.914 -0.3488 -0.6899 -1.6805
  102OSM    C1210285   1.336   5.993  10.855 -0.2378  0.1743  0.6433
  102OSM   H12A10286   1.438   5.992  10.890  0.0984 -0.6631 -0.3074
  102OSM   H12B10287   1.290   6.086  10.886  0.6266  1.2517 -1.1795
  102OSM    C1110288   1.345   6.002  10.699  0.2405 -0.1826  0.1336
  102OSM   H11A10289   1.393   6.099  10.673 -1.9819  1.5951  2.2032
  102OSM   H11B10290   1.247   5.998  10.648 -0.7059 -0.3700  1.9041
  102OSM      P10291   1.572   5.874  10.672  0.0484  0.0404 -0.1716
  102OSM    O1310292   1.628   5.977  10.762 -0.2283  0.2980  0.0025
  102OSM    O1410293   1.596   5.731  10.716 -0.2324  0.4028  0.7051
  102OSM    O1110294   1.629   5.902  10.529 -0.4378  0.5522  0.0338
  102OSM    O1210295   1.420   5.893  10.652  0.0579  0.2909 -0.1987
  102OSM    C1S10296   1.545   5.894  10.417  0.0917  0.5760  0.0117
  102OSM    H1S10297   1.498   5.994  10.407  1.2290  0.9776 -1.8093
  102OSM    H1T10298   1.468   5.813  10.423  0.2335  0.4763  0.5384
  102OSM     NF10299   1.519   5.854  10.169 -0.6384 -0.4380  0.4733
  102OSM    HNF10300   1.516   5.763  10.127 -0.8070 -0.3121  0.2114
  102OSM    C2S10301   1.612   5.871  10.282 -0.5111 -0.2424 -0.5413
  102OSM    H2S10302   1.660   5.967  10.252 -2.6895  1.1471  0.2206
  102OSM    C3S10303   1.720   5.753  10.290  0.0210  0.4697 -0.0979
  102OSM    H3S10304   1.666   5.658  10.306  1.9270 -0.6207  0.1313
  102OSM     O310305   1.806   5.773  10.403 -0.1175 -0.3131  0.6473
  102OSM    HO310306   1.758   5.831  10.461  0.0499  1.1769 -0.6538
  102OSM    C4S10307   1.797   5.737  10.169 -0.8154  0.2803 -0.4657
  102OSM    H4S10308   1.748   5.680  10.089  1.6360 -0.8940 -1.2244
  102OSM    C5S10309   1.925   5.780  10.142  0.2722  0.5772 -0.2598
  102OSM    H5S10310   1.982   5.833  10.219 -0.3388  0.8906 -0.0220
  102OSM    C6S10311   1.999   5.761  10.011  0.5160  0.2661 -0.3542
  102OSM    H6S10312   2.093   5.705  10.028  1.3667  0.8967 -2.6147
  102OSM    H6T10313   2.027   5.862   9.974 -1.4185  1.9324  2.3788
  102OSM    C7S10314   1.928   5.690   9.896  0.6336  0.2113 -0.3118
  102OSM    H7S10315   1.843   5.756   9.867  0.9075  1.0609  0.7520
  102OSM    H7T10316   1.882   5.594   9.928 -0.1236  0.0425 -1.8253
  102OSM    C8S10317   2.009   5.658   9.774 -0.1674  0.1128 -0.2912
  102OSM    H8S10318   2.097   5.605   9.814 -0.1106  1.3400  1.3250
  102OSM    H8T10319   2.037   5.753   9.723 -0.2105  0.3284  0.0759
  102OSM    C9S10320   1.922   5.578   9.679  0.2828  0.0845  1.0608
  102OSM    H9S10321   1.840   5.642   9.640  1.1065  1.5465  1.6606
  102OSM    H9T10322   1.875   5.487   9.722 -0.1772  0.2331  0.8866
  102OSM   C10S10323   2.001   5.531   9.555 -0.7735 -0.2747  0.2976
  102OSM   H10S10324   2.079   5.463   9.593 -1.0589  0.3757  2.1625
  102OSM   H10T10325   2.044   5.615   9.495 -1.6442  0.1545  0.2536
  102OSM   C11S10326   1.901   5.468   9.463 -0.1033  0.4471  0.0861
  102OSM   H11S10327   1.818   5.541   9.447 -0.1946  0.3438  0.0886
  102OSM   H11T10328   1.871   5.378   9.521  0.9970 -0.2783 -0.4478
  102OSM   C12S10329   1.978   5.430   9.340  0.3874  0.0630  0.1425
  102OSM   H12S10330   2.056   5.355   9.364  1.3041  1.5970  2.2253
  102OSM   H12T10331   2.033   5.519   9.304 -0.3319 -0.1834 -1.7137
  102OSM   C13S10332   1.877   5.370   9.232 -1.1354 -0.1925  0.3994
  102OSM   H13S10333   1.801   5.447   9.206  1.2173  1.7299 -1.1837
  102OSM   H13T10334   1.836   5.275   9.274 -1.6870  0.0154  0.3440
  102OSM   C14S10335   1.946   5.321   9.106 -0.2263 -0.5583  0.5649
  102OSM   H14S10336   2.035   5.259   9.132 -0.3906 -1.7991 -1.6333
  102OSM   H14T10337   1.977   5.413   9.054 -0.9014  0.9960  2.7673
  102OSM   C15S10338   1.851   5.252   9.013 -0.1768  0.2806  0.4343
  102OSM   H15S10339   1.776   5.324   8.974  0.9777  0.6527 -1.1839
  102OSM   H15T10340   1.815   5.159   9.063  1.9181 -0.3981  0.7879
  102OSM   C16S10341   1.922   5.202   8.893  0.1605  0.0443  0.3853
  102OSM   H16S10342   1.976   5.107   8.916  0.0954 -0.4274 -1.2378
  102OSM   H16T10343   1.988   5.282   8.855 -1.8975  1.8546  0.3949
  102OSM   C17S10344   1.819   5.166   8.778  0.2717 -0.7972 -0.5650
  102OSM   H17S10345   1.732   5.235   8.773  1.0912  0.2434 -1.0137
  102OSM   H17T10346   1.768   5.071   8.804  0.3474 -0.6133  0.2719
  102OSM   C18S10347   1.880   5.156   8.638 -1.0204  0.3205 -0.0263
  102OSM   H18S10348   1.959   5.231   8.617 -0.7370 -0.7211 -3.2969
  102OSM   H18T10349   1.800   5.156   8.561 -1.5426 -0.4453  0.4941
  102OSM   H18U10350   1.924   5.055   8.629 -0.8674  0.3516  0.3588
  102OSM    C1F10351   1.422   5.935  10.134  0.1277 -0.2015 -0.0469
  102OSM     OF10352   1.390   6.029  10.202 -0.0007 -0.4369 -0.2248
  102OSM    C2F10353   1.346   5.912   9.999 -0.2894 -0.9788  0.7269
  102OSM    H2F10354   1.410   5.831   9.957  0.6093  0.5308 -0.9426
  102OSM    H2G10355   1.367   6.006   9.944 -2.1872 -0.3197  1.0584
  102OSM    C3F10356   1.196   5.900  10.009  0.0234  0.1193  0.2255
  102OSM    H3F10357   1.157   5.989  10.063  0.9356 -1.3631  3.5670
  102OSM    H3G10358   1.174   5.809  10.069  2.6307 -1.3471 -0.8750
  102OSM    C4F10359   1.123   5.892   9.868 -0.4349  0.2459 -0.3983
  102OSM    H4F10360   1.136   5.984   9.806  0.7261  1.7503  1.9405
  102OSM    H4G10361   1.018   5.894   9.903 -0.1987  0.8154  0.3063
  102OSM    C5F10362   1.146   5.768   9.784  0.5755 -0.3197  0.4404
  102OSM    H5F10363   1.105   5.683   9.842  2.1555 -1.5678 -0.2073
  102OSM    H5G10364   1.256   5.756   9.782  0.8198  1.5724  0.1289
  102OSM    C6F10365   1.098   5.782   9.635  0.2365  0.2019  0.0773
  102OSM    H6F10366   1.161   5.855   9.579 -1.0430  1.1167 -0.2003
  102OSM    H6G10367   0.996   5.825   9.637  0.2095  0.1057  0.7590
  102OSM    C7F10368   1.102   5.656   9.545 -0.3550  0.0686 -0.4094
  102OSM    H7F10369   1.032   5.598   9.609  2.7633  0.1454  3.4674
  102OSM    H7G10370   1.206   5.616   9.545 -0.1478  0.1660  3.5597
  102OSM    C8F10371   1.044   5.675   9.407 -0.4538 -0.3722  0.7836
  102OSM    H8F10372   0.945   5.725   9.406 -0.0585  0.4067  0.4092
  102OSM    H8G10373   1.026   5.570   9.374 -1.3472 -0.0695  0.2657
  102OSM    C9F10374   1.135   5.754   9.313 -0.0370  0.3656 -0.0756
  102OSM    H9F10375   1.140   5.862   9.334  0.0860 -0.0642  2.5169
  102OSM   C10F10376   1.192   5.702   9.199 -0.2211  1.0173  0.1506
  102OSM   H10F10377   1.265   5.764   9.146  1.9709  0.0038  1.8381
  102OSM   C11F10378   1.190   5.560   9.158  1.1646  0.8815  0.3610
  102OSM   H11F10379   1.174   5.500   9.250 -0.6605  0.9695  0.1460
  102OSM   H11G10380   1.281   5.524   9.104  0.6747  0.3532 -0.1292
  102OSM   C12F10381   1.077   5.543   9.061  1.1216 -0.3645  0.7578
  102OSM   H12F10382   0.983   5.588   9.099  1.4660  0.1879  0.9664
  102OSM   H12G10383   1.054   5.435   9.048  1.4012 -0.1401 -2.4372
  102OSM   C13F10384   1.120   5.588   8.920 -0.6086  0.1895 -0.2436
  102OSM   H13F10385   1.227   5.561   8.909 -0.4677  1.0164 -1.0468
  102OSM   H13G10386   1.119   5.698   8.902 -1.7141  0.3985  0.9415
  102OSM   C14F10387   1.045   5.523   8.806  0.1362 -0.1163 -0.5323
  102OSM   H14F10388   1.061   5.414   8.795 -1.2286 -0.3218 -0.5807
  102OSM   H14G10389   1.096   5.568   8.717 -0.0240  1.9781  0.3729
  102OSM   C15F10390   0.894   5.546   8.809  0.3017  0.2294 -0.4984
  102OSM   H15F10391   0.875   5.655   8.807  0.7701  0.3314  0.4138
  102OSM   H15G10392   0.854   5.527   8.911 -0.2249  0.9704 -0.5533
  102OSM   C16F10393   0.810   5.467   8.704  0.8585 -0.1595 -0.6788
  102OSM   H16F10394   0.704   5.485   8.731  0.6126 -1.0692 -1.0325
  102OSM   H16G10395   0.832   5.359   8.709  0.8292 -0.1199  1.8658
  102OSM   C17F10396   0.851   5.520   8.565  0.2906  0.3372  0.3271
  102OSM   H17F10397   0.959   5.496   8.549 -0.2376 -3.2002  1.2313
  102OSM   H17G10398   0.841   5.630   8.580  0.8024  0.4979 -0.4570
  102OSM   C18F10399   0.772   5.455   8.457  0.2160 -0.1583 -0.1549
  102OSM   H18F10400   0.666   5.437   8.484  0.9881 -4.9661  0.4172
  102OSM   H18G10401   0.813   5.358   8.424 -0.5684 -0.2424 -0.9211
  102OSM   H18H10402   0.765   5.519   8.366  1.8936  0.1527 -0.1126
  103OSM      N10403   1.872   3.269  11.029  0.2086  0.1496  0.5205
  103OSM    C1510404   1.962   3.224  10.910 -0.2920  0.1003  0.3609
  103OSM   H15A10405   1.914   3.141  10.861 -0.3959 -0.2093  0.9762
  103OSM   H15B10406   2.057   3.186  10.945 -0.4596 -1.7873 -1.0583
  103OSM   H15C10407   1.977   3.310  10.847 -0.5683  0.3479  0.6278
  103OSM    C1410408   1.819   3.144  11.096 -0.4390 -0.1450 -0.4353
  103OSM   H14A10409   1.759   3.160  11.185 -0.7943 -0.9708 -0.5168
  103OSM   H14B10410   1.902   3.081  11.124  0.3953  1.3232  0.5259
  103OSM   H14C10411   1.758   3.081  11.034 -1.0462  0.2012 -0.2017
  103OSM    C1310412   1.963   3.336  11.122  0.2277  1.1893 -0.1461
  103OSM   H13A10413   2.052   3.276  11.134  0.6947  1.6974 -1.0314
  103OSM   H13B10414   1.925   3.344  11.223  1.6924  0.1841  0.5230
  103OSM   H13C10415   1.998   3.427  11.076  2.2081 -0.1181 -1.4097
  103OSM    C1210416   1.758   3.360  10.983  0.1912  0.4809 -0.3853
  103OSM   H12A10417   1.700   3.402  11.064 -1.5355 -0.2483 -1.1875
  103OSM   H12B10418   1.693   3.297  10.923  0.0432 -0.8012  1.0564
  103OSM    C1110419   1.800   3.477  10.886  0.4028 -0.2532  0.1362
  103OSM   H11A10420   1.714   3.545  10.868  0.1614 -0.3265  0.9672
  103OSM   H11B10421   1.822   3.445  10.782  1.7427  1.4301 -0.1471
  103OSM      P10422   1.889   3.688  11.037  0.0406 -0.2891 -0.1304
  103OSM    O1310423   1.776   3.660  11.133  0.1421 -0.1557  0.3031
  103OSM    O1410424   2.019   3.742  11.088  0.0647 -0.2492  0.0700
  103OSM    O1110425   1.834   3.790  10.929 -0.0691 -0.2562 -0.0126
  103OSM    O1210426   1.907   3.557  10.944  0.1665  0.1444  0.1733
  103OSM    C1S10427   1.925   3.840  10.833  0.0401 -0.0608  0.6506
  103OSM    H1S10428   2.025   3.791  10.830 -0.3065 -0.9405  2.2334
  103OSM    H1T10429   1.943   3.949  10.844  1.2631 -0.3705  2.1257
  103OSM     NF10430   1.954   3.846  10.576  0.6111 -0.5408 -0.3993
  103OSM    HNF10431   1.943   3.926  10.518  1.1529  0.5432  0.9634
  103OSM    C2S10432   1.862   3.817  10.689  0.2691  0.3209  0.2656
  103OSM    H2S10433   1.813   3.718  10.678 -1.0629  1.1648 -2.2039
  103OSM    C3S10434   1.737   3.911  10.677 -0.5420  0.3929 -0.1487
  103OSM    H3S10435   1.762   4.015  10.704 -0.1108  0.1264  0.4990
  103OSM     O310436   1.641   3.870  10.773 -0.5458 -0.7979  0.2953
  103OSM    HO310437   1.696   3.822  10.836 -1.3806 -2.1154  0.0733
  103OSM    C4S10438   1.669   3.922  10.539 -0.3077  0.1301  0.2105
  103OSM    H4S10439   1.719   3.997  10.476 -0.4746 -1.0357 -1.3655
  103OSM    C5S10440   1.565   3.859  10.485 -0.1746  0.9172  0.4882
  103OSM    H5S10441   1.534   3.770  10.541  1.2771  0.4505  0.5868
  103OSM    C6S10442   1.516   3.885  10.345 -0.5787 -0.2085 -0.5497
  103OSM    H6S10443   1.420   3.940  10.356  0.0487  0.8919 -0.5108
  103OSM    H6T10444   1.496   3.785  10.299  1.2270 -0.2897 -1.2315
  103OSM    C7S10445   1.611   3.968  10.252  0.0684 -0.1525 -0.0726
  103OSM    H7S10446   1.711   3.921  10.255  1.4771  2.7127  0.4276
  103OSM    H7T10447   1.617   4.076  10.274 -1.5201 -0.0517 -0.0189
  103OSM    C8S10448   1.560   3.970  10.102  0.3856  0.7527  0.3215
  103OSM    H8S10449   1.569   3.867  10.061  2.7173  0.6021  1.0469
  103OSM    H8T10450   1.627   4.037  10.043  1.2550 -1.2620 -1.0749
  103OSM    C9S10451   1.413   4.021  10.100 -0.9633  0.7287  0.4311
  103OSM    H9S10452   1.402   4.097  10.180  1.0350  1.3916  0.1286
  103OSM    H9T10453   1.346   3.938  10.133  0.7302 -1.0043 -0.3041
  103OSM   C10S10454   1.367   4.068   9.964  0.1992  0.5032  0.1451
  103OSM   H10S10455   1.413   4.167   9.939 -1.6962  1.4606  0.2759
  103OSM   H10T10456   1.256   4.077   9.963  0.1915  0.3857 -0.5466
  103OSM   C11S10457   1.404   3.977   9.842 -0.4096  0.3949 -0.2095
  103OSM   H11S10458   1.332   3.892   9.837  0.0739 -0.0331 -0.0853
  103OSM   H11T10459   1.505   3.930   9.842 -0.3117  0.5570  1.2622
  103OSM   C12S10460   1.392   4.066   9.717 -0.2551 -1.0360 -0.6687
  103OSM   H12S10461   1.452   4.159   9.724 -2.3631  0.3871 -0.7466
  103OSM   H12T10462   1.292   4.113   9.708  0.2909  0.7071  1.5170
  103OSM   C13S10463   1.438   4.008   9.588 -0.3252 -0.0455 -0.0531
  103OSM   H13S10464   1.406   3.902   9.585  2.2630 -0.9843  1.5548
  103OSM   H13T10465   1.549   4.010   9.596 -0.3492  0.3592  0.2150
  103OSM   C14S10466   1.398   4.092   9.467 -0.4082  0.3945  0.1695
  103OSM   H14S10467   1.458   4.185   9.469  2.3220 -1.2840  0.1252
  103OSM   H14T10468   1.288   4.110   9.465 -0.2961  1.1972 -2.3339
  103OSM   C15S10469   1.440   4.035   9.325  0.1385  0.2480  0.8248
  103OSM   H15S10470   1.392   3.936   9.314 -0.7746  0.7458  0.1023
  103OSM   H15T10471   1.551   4.033   9.317  0.0518 -1.3409 -0.5517
  103OSM   C16S10472   1.401   4.122   9.199 -0.0308 -0.1012  0.1551
  103OSM   H16S10473   1.450   4.082   9.107  1.0232  1.4437 -0.0139
  103OSM   H16T10474   1.445   4.223   9.216 -1.6968  0.7724 -0.3988
  103OSM   C17S10475   1.247   4.128   9.165 -0.0494 -0.8510  0.3838
  103OSM   H17S10476   1.225   4.217   9.102 -0.1847 -0.8470  0.4354
  103OSM   H17T10477   1.185   4.135   9.257 -1.6188 -1.7481 -0.5551
  103OSM   C18S10478   1.196   4.001   9.097  0.8809 -0.1646  0.5914
  103OSM   H18S10479   1.217   3.916   9.165 -0.9712  0.7451  2.4200
  103OSM   H18T10480   1.243   3.984   8.998 -1.3160 -2.4064 -0.1555
  103OSM   H18U10481   1.087   4.008   9.076  1.2886  1.1490 -1.4018
  103OSM    C1F10482   2.063   3.773  10.555  0.0672  0.7460 -0.5669
  103OSM     OF10483   2.096   3.687  10.635 -0.2124  0.4740  0.3043
  103OSM    C2F10484   2.142   3.809  10.435 -0.1966 -0.5039 -0.0613
  103OSM    H2F10485   2.233   3.860  10.473 -1.1236  0.0437  1.5355
  103OSM    H2G10486   2.092   3.882  10.368  2.3583 -0.0481 -1.5670
  103OSM    C3F10487   2.179   3.675  10.369  0.2284  0.1850 -0.4275
  103OSM    H3F10488   2.097   3.600  10.359  0.7522 -0.3015 -1.1064
  103OSM    H3G10489   2.252   3.628  10.438  1.0023  1.2707 -0.4757
  103OSM    C4F10490   2.250   3.677  10.236  0.1215  0.4044  0.5396
  103OSM    H4F10491   2.169   3.700  10.163 -0.7643 -0.6346  1.1578
  103OSM    H4G10492   2.279   3.572  10.213  1.6026  0.3811  2.3124
  103OSM    C5F10493   2.361   3.782  10.230  0.3054 -0.6315  0.5753
  103OSM    H5F10494   2.450   3.742  10.284  0.4732 -1.6995 -0.4634
  103OSM    H5G10495   2.336   3.881  10.274 -2.6531 -0.6115 -0.9394
  103OSM    C6F10496   2.403   3.811  10.084  0.3242 -0.0235  0.0167
  103OSM    H6F10497   2.324   3.867  10.029  2.0527  0.6555 -1.9306
  103OSM    H6G10498   2.425   3.717  10.030  2.5191 -0.6085  1.7786
  103OSM    C7F10499   2.527   3.907  10.082  0.3712  0.4005 -0.7112
  103OSM    H7F10500   2.603   3.878  10.159 -1.1608  0.7251  0.9982
  103OSM    H7G10501   2.495   4.006  10.119  1.4173 -0.7810  4.1614
  103OSM    C8F10502   2.587   3.914   9.942  0.0558  0.5143 -0.7446
  103OSM    H8F10503   2.619   3.811   9.918 -1.5551 -0.5809  1.4009
  103OSM    H8G10504   2.677   3.979   9.942 -0.9794  2.2127  2.5653
  103OSM    C9F10505   2.485   3.973   9.854 -0.0751  0.6079 -0.1223
  103OSM    H9F10506   2.429   4.051   9.907  0.9591 -0.3966  2.5830
  103OSM   C10F10507   2.463   3.932   9.729  0.2810  0.0863 -0.4366
  103OSM   H10F10508   2.380   3.974   9.671 -0.5612 -1.0104 -0.0692
  103OSM   C11F10509   2.538   3.815   9.658  0.4086 -0.4623 -0.2020
  103OSM   H11F10510   2.628   3.779   9.711  1.8850  0.0890 -2.2124
  103OSM   H11G10511   2.563   3.839   9.553  1.3572 -2.3701 -0.4482
  103OSM   C12F10512   2.434   3.695   9.641  0.0841 -0.4040 -0.6198
  103OSM   H12F10513   2.389   3.680   9.741 -2.0511  2.2754 -1.0549
  103OSM   H12G10514   2.486   3.601   9.613  0.6755  0.2950 -1.9710
  103OSM   C13F10515   2.332   3.707   9.528 -0.3069 -0.3019 -0.2089
  103OSM   H13F10516   2.260   3.625   9.545  1.9850 -2.1696  1.0492
  103OSM   H13G10517   2.284   3.807   9.536  1.0135  0.4442 -1.1417
  103OSM   C14F10518   2.402   3.687   9.391 -0.3905  0.2091 -0.1009
  103OSM   H14F10519   2.464   3.595   9.397 -1.2240 -0.3012  1.5624
  103OSM   H14G10520   2.463   3.779   9.378  3.2589 -2.1488 -1.0230
  103OSM   C15F10521   2.309   3.665   9.273 -0.6068  0.3000  0.1590
  103OSM   H15F10522   2.245   3.575   9.286 -2.0755  1.6379  2.7636
  103OSM   H15G10523   2.370   3.647   9.181 -2.7013  0.2500 -1.2845
  103OSM   C16F10524   2.206   3.780   9.265 -0.3308 -0.1909  0.0219
  103OSM   H16F10525   2.251   3.869   9.315 -0.3926 -0.8317  1.2440
  103OSM   H16G10526   2.119   3.756   9.329 -0.2839 -0.5838 -0.0603
  103OSM   C17F10527   2.148   3.813   9.124 -0.1489 -0.3623  1.3357
  103OSM   H17F10528   2.094   3.726   9.083  1.1595 -0.1118 -1.0800
  103OSM   H17G10529   2.232   3.818   9.051 -0.8344  2.0738  0.5974
  103OSM   C18F10530   2.064   3.945   9.108 -0.6999 -0.2229 -0.9158
  103OSM   H18F10531   2.128   4.031   9.137 -0.4880  0.2561 -2.6936
  103OSM   H18G10532   1.976   3.939   9.176  0.4703 -0.1717  0.6620
  103OSM   H18H10533   2.028   3.964   9.005  0.8482  2.9617 -1.0132
  104OSM      N10534   6.318   3.221  10.889  0.0468 -0.1978  0.2172
  104OSM    C1510535   6.201   3.308  10.942  0.9581  0.2343 -0.0819
  104OSM   H15A10536   6.110   3.282  10.889 -0.5134 -0.8558  2.7712
  104OSM   H15B10537   6.210   3.414  10.928 -2.7366  0.7546  0.4915
  104OSM   H15C10538   6.190   3.281  11.046  1.5366  1.4206  0.2945
  104OSM    C1410539   6.445   3.269  10.953  0.3978 -0.3477  0.3461
  104OSM   H14A10540   6.510   3.183  10.946  0.2571 -0.4709  0.5535
  104OSM   H14B10541   6.432   3.275  11.060  1.3830 -1.1793  0.5244
  104OSM   H14C10542   6.484   3.367  10.929  0.5040 -0.4713 -0.0017
  104OSM    C1310543   6.288   3.079  10.930  0.0946  0.2985  0.4092
  104OSM   H13A10544   6.205   3.039  10.875  0.2300 -2.4403  2.0392
  104OSM   H13B10545   6.275   3.064  11.036  0.8560 -2.0296  0.2248
  104OSM   H13C10546   6.372   3.014  10.908  1.1649  2.1343 -1.3619
  104OSM    C1210547   6.335   3.244  10.739 -0.1065 -0.0445 -0.3931
  104OSM   H12A10548   6.340   3.351  10.722 -1.6995  0.0865 -0.1717
  104OSM   H12B10549   6.246   3.211  10.687  0.9742 -1.2556 -1.5165
  104OSM    C1110550   6.453   3.173  10.662  0.9362 -0.7943 -1.1495
  104OSM   H11A10551   6.414   3.194  10.559  0.2316 -2.5275 -1.2719
  104OSM   H11B10552   6.452   3.063  10.676  3.7926 -0.6676  0.6605
  104OSM      P10553   6.643   3.350  10.627 -0.3477  0.5262  0.3226
  104OSM    O1310554   6.577   3.468  10.680  0.6320 -0.2794  0.6446
  104OSM    O1410555   6.789   3.353  10.648 -0.1442  0.3291 -0.2428
  104OSM    O1110556   6.616   3.345  10.478  0.9549  0.8496  0.2912
  104OSM    O1210557   6.585   3.219  10.690 -0.0307  0.0871 -0.1343
  104OSM    C1S10558   6.723   3.326  10.386  0.0549  0.9383 -0.8916
  104OSM    H1S10559   6.807   3.396  10.408  2.4109 -1.0481 -2.8658
  104OSM    H1T10560   6.684   3.352  10.285 -2.9726  1.5137  0.3307
  104OSM     NF10561   6.888   3.148  10.301 -0.2333  0.2200 -0.6962
  104OSM    HNF10562   6.882   3.061  10.253  0.4328  0.1242 -0.6117
  104OSM    C2S10563   6.769   3.173  10.385 -0.6596 -0.1998  0.2961
  104OSM    H2S10564   6.795   3.144  10.489 -0.9337 -1.5087  0.0117
  104OSM    C3S10565   6.654   3.070  10.357 -0.3245  0.2392 -0.1728
  104OSM    H3S10566   6.560   3.097  10.410 -0.8799  1.1031 -1.5397
  104OSM     O310567   6.675   2.938  10.396 -0.5742  0.7883  0.5674
  104OSM    HO310568   6.745   2.947  10.462 -2.3334  0.1946  2.6370
  104OSM    C4S10569   6.628   3.071  10.213 -0.4079  0.4630  0.8165
  104OSM    H4S10570   6.555   3.145  10.179 -0.7228  0.4765  1.5058
  104OSM    C5S10571   6.674   2.982  10.111 -0.4816 -0.3466 -0.6363
  104OSM    H5S10572   6.752   2.907  10.133  1.8629  1.5226 -2.1498
  104OSM    C6S10573   6.644   2.990   9.965 -0.1118  0.2604 -0.1380
  104OSM    H6S10574   6.592   3.082   9.933  2.6291  1.2556 -2.1305
  104OSM    H6T10575   6.566   2.911   9.954  1.2498 -0.8887 -2.3507
  104OSM    C7S10576   6.761   2.963   9.864  0.2399 -0.0857  0.1296
  104OSM    H7S10577   6.814   2.878   9.912  1.1654  0.0024 -0.6965
  104OSM    H7T10578   6.832   3.048   9.860  0.6499 -0.4567 -0.6625
  104OSM    C8S10579   6.730   2.931   9.721 -0.4136  0.4747 -0.1117
  104OSM    H8S10580   6.627   2.889   9.721 -1.1120  2.1141  0.6336
  104OSM    H8T10581   6.798   2.853   9.678  1.6488  2.4171 -0.5643
  104OSM    C9S10582   6.734   3.053   9.624 -0.4154  0.3812 -0.9006
  104OSM    H9S10583   6.826   3.113   9.643 -1.8508  2.1603  0.7978
  104OSM    H9T10584   6.650   3.120   9.653 -0.8063  0.4854 -2.2056
  104OSM   C10S10585   6.716   3.014   9.478 -0.1129  0.0813  0.1326
  104OSM   H10S10586   6.624   2.952   9.477 -0.0812  0.0252 -1.3557
  104OSM   H10T10587   6.798   2.948   9.443 -1.0058 -0.6719 -0.5884
  104OSM   C11S10588   6.692   3.134   9.388  0.0527  0.2990 -0.0528
  104OSM   H11S10589   6.783   3.198   9.386  1.7380 -1.9497  0.5140
  104OSM   H11T10590   6.627   3.188   9.460 -0.5662 -1.6286  0.9086
  104OSM   C12S10591   6.615   3.110   9.255  0.4564 -0.6279 -0.4476
  104OSM   H12S10592   6.604   3.209   9.206  1.5329  0.0310  0.5665
  104OSM   H12T10593   6.514   3.065   9.265 -0.6417  1.5120 -1.2662
  104OSM   C13S10594   6.694   3.020   9.161 -0.0589 -0.5024  0.7015
  104OSM   H13S10595   6.714   2.928   9.220  0.8202 -1.6491 -1.2798
  104OSM   H13T10596   6.781   3.068   9.111 -1.5669  0.9954 -0.6190
  104OSM   C14S10597   6.607   2.962   9.046  0.5587  0.0036 -0.2028
  104OSM   H14S10598   6.554   3.042   8.991  1.8206  0.6716 -0.4741
  104OSM   H14T10599   6.526   2.901   9.092 -0.1352  1.5847  0.7632
  104OSM   C15S10600   6.679   2.879   8.939 -0.2605  0.1637  0.8960
  104OSM   H15S10601   6.745   2.803   8.985  0.5030  0.5188  0.4077
  104OSM   H15T10602   6.751   2.953   8.897  0.2990 -0.0731  1.4217
  104OSM   C16S10603   6.588   2.810   8.834 -1.1900  0.1779 -0.1458
  104OSM   H16S10604   6.496   2.794   8.894 -0.2744 -0.1265  1.2281
  104OSM   H16T10605   6.637   2.717   8.800 -1.2648  0.4321 -0.9836
  104OSM   C17S10606   6.556   2.897   8.712  0.1217 -0.2795  0.0141
  104OSM   H17S10607   6.651   2.924   8.662  0.5247 -0.1595  0.8243
  104OSM   H17T10608   6.503   2.990   8.741 -0.1807 -0.4151 -0.1031
  104OSM   C18S10609   6.463   2.827   8.611 -0.2803 -0.0735  0.7400
  104OSM   H18S10610   6.500   2.725   8.587 -0.8014 -0.7170  2.5002
  104OSM   H18T10611   6.460   2.884   8.516 -3.3695  1.0060  1.3596
  104OSM   H18U10612   6.358   2.824   8.648 -0.1568 -0.6369  1.0511
  104OSM    C1F10613   7.007   3.212  10.301 -0.6249 -0.2962 -0.1067
  104OSM     OF10614   7.034   3.300  10.385 -0.0897 -0.1921 -0.3717
  104OSM    C2F10615   7.102   3.174  10.191 -0.0685  0.7818  0.4439
  104OSM    H2F10616   7.195   3.143  10.243  0.7416  2.4487  0.0546
  104OSM    H2G10617   7.140   3.264  10.138  2.2141  0.2351  1.0379
  104OSM    C3F10618   7.043   3.080  10.085 -0.4037  0.7006  0.1554
  104OSM    H3F10619   6.952   3.129  10.046 -0.4934  1.9633  1.8615
  104OSM    H3G10620   7.024   2.989  10.146  0.9797  0.5916  0.4560
  104OSM    C4F10621   7.132   3.053   9.962  0.2658  0.5786 -0.2778
  104OSM    H4F10622   7.074   2.980   9.901  0.1365  0.0165  0.5042
  104OSM    H4G10623   7.235   3.015   9.979  0.9124  0.9745 -2.8442
  104OSM    C5F10624   7.151   3.177   9.869 -0.1531  0.0955 -0.5214
  104OSM    H5F10625   7.250   3.218   9.896 -0.8906  1.4235  0.2801
  104OSM    H5G10626   7.069   3.248   9.894  0.7944  0.4244  1.9404
  104OSM    C6F10627   7.147   3.142   9.721  0.2329 -0.0570  0.1799
  104OSM    H6F10628   7.186   3.229   9.664  1.1983 -0.4770  0.1736
  104OSM    H6G10629   7.048   3.102   9.692  0.2919 -1.8538  2.2327
  104OSM    C7F10630   7.242   3.021   9.692 -0.1064 -0.5349 -0.2050
  104OSM    H7F10631   7.191   2.930   9.732  1.2359 -0.0743  2.8930
  104OSM    H7G10632   7.331   3.044   9.756  0.4175  3.3422 -2.0763
  104OSM    C8F10633   7.268   3.008   9.542 -0.0777 -0.4396 -0.5385
  104OSM    H8F10634   7.363   2.952   9.526  0.2853 -1.4467  3.7509
  104OSM    H8G10635   7.291   3.112   9.510 -1.9971  0.7222  1.5702
  104OSM    C9F10636   7.148   2.961   9.464  0.3375  0.1993  0.5086
  104OSM    H9F10637   7.096   2.877   9.514  0.8501 -0.3184  0.1758
  104OSM   C10F10638   7.096   2.995   9.347  0.7526 -0.0071  0.3756
  104OSM   H10F10639   7.005   2.947   9.307  1.3927 -0.6187 -0.3879
  104OSM   C11F10640   7.141   3.113   9.256  0.4458  0.1087  0.0581
  104OSM   H11F10641   7.169   3.058   9.164  1.5940  0.1025  0.4016
  104OSM   H11G10642   7.229   3.178   9.276 -1.7041  3.2480  0.0850
  104OSM   C12F10643   7.034   3.223   9.232  0.1760  0.3391  0.6093
  104OSM   H12F10644   7.026   3.286   9.323 -0.4307 -0.7871  1.3419
  104OSM   H12G10645   6.943   3.161   9.220  0.3910  0.0170  0.6593
  104OSM   C13F10646   7.033   3.305   9.102  0.2707 -0.1388 -0.7565
  104OSM   H13F10647   7.120   3.373   9.112  0.5888 -0.8200  1.6988
  104OSM   H13G10648   6.940   3.367   9.106  0.9672  0.8577  1.6003
  104OSM   C14F10649   7.028   3.215   8.978 -0.1439  0.2025  0.0006
  104OSM   H14F10650   6.959   3.130   8.996 -0.9541  0.6761 -0.7876
  104OSM   H14G10651   7.123   3.169   8.941 -0.5452 -0.4164 -0.2793
  104OSM   C15F10652   6.951   3.276   8.858  0.4221 -0.1022 -0.1117
  104OSM   H15F10653   6.866   3.335   8.901  1.5978  0.1749  1.9643
  104OSM   H15G10654   6.911   3.189   8.802  0.4885 -0.3239  0.1869
  104OSM   C16F10655   7.051   3.348   8.762  0.5802 -0.0125  0.1621
  104OSM   H16F10656   7.134   3.279   8.736  0.3381  0.2981 -1.5675
  104OSM   H16G10657   7.099   3.430   8.819 -3.1268  1.9080  0.8673
  104OSM   C17F10658   6.979   3.416   8.638 -0.9831  0.1566  0.5655
  104OSM   H17F10659   6.896   3.482   8.673 -0.3541  2.4829 -1.9535
  104OSM   H17G10660   6.914   3.344   8.583  1.3698 -0.1726 -1.9791
  104OSM   C18F10661   7.076   3.481   8.539  0.0005  0.4709 -0.4471
  104OSM   H18F10662   7.158   3.408   8.524  1.3715  1.5478  1.4139
  104OSM   H18G10663   7.121   3.571   8.588  2.1274 -0.5695 -0.4060
  104OSM   H18H10664   7.033   3.499   8.438  0.8603  1.3267 -0.6715
  105OSM      N10665   0.278   3.166  10.761  0.1379 -0.0669  0.8154
  105OSM    C1510666   0.247   3.314  10.757  0.1096 -0.5036 -0.7962
  105OSM   H15A10667   0.231   3.361  10.853 -0.5090 -0.0697 -1.1058
  105OSM   H15B10668   0.162   3.330  10.692 -1.0648  0.3483  0.8924
  105OSM   H15C10669   0.325   3.374  10.713 -0.4858  0.0715 -1.0805
  105OSM    C1410670   0.419   3.144  10.791  0.0702 -0.5060  0.1770
  105OSM   H14A10671   0.456   3.177  10.887  1.9382  1.3880 -1.1092
  105OSM   H14B10672   0.483   3.200  10.724  1.7894 -1.3194  1.0745
  105OSM   H14C10673   0.455   3.042  10.783  2.6444  0.2832  0.7396
  105OSM    C1310674   0.195   3.105  10.869  0.0083  0.5362  0.0408
  105OSM   H13A10675   0.215   3.145  10.967  0.2074  1.4699 -0.3643
  105OSM   H13B10676   0.219   3.002  10.888  0.4976  0.8244  1.0771
  105OSM   H13C10677   0.092   3.120  10.842 -0.1621  3.1141  1.7593
  105OSM    C1210678   0.228   3.110  10.627 -0.3490 -0.1540 -0.3465
  105OSM   H12A10679   0.244   3.183  10.550 -1.0385  1.4536  0.9772
  105OSM   H12B10680   0.121   3.102  10.645 -0.7284  4.4977  0.5727
  105OSM    C1110681   0.289   2.972  10.581  0.5058 -0.0254 -0.3993
  105OSM   H11A10682   0.400   2.969  10.579  0.5120 -0.4794  0.4449
  105OSM   H11B10683   0.265   2.952  10.475  2.4630 -0.7953 -0.7465
  105OSM      P10684   0.100   2.798  10.657  0.3303 -0.3820  0.2547
  105OSM    O1310685   0.095   2.714  10.780  0.4577 -0.3070 -0.0126
  105OSM    O1410686   0.002   2.910  10.648 -0.5782  0.0268  0.2821
  105OSM    O1110687   0.104   2.713  10.527  0.5472  0.0179  0.8729
  105OSM    O1210688   0.244   2.862  10.660 -0.8140 -0.9495 -0.4102
  105OSM    C1S10689   0.206   2.619  10.504 -0.6524 -0.4276 -0.1701
  105OSM    H1S10690   0.197   2.534  10.574 -1.6687  1.8853  2.7220
  105OSM    H1T10691   0.305   2.661  10.529 -1.7882  3.4310 -1.3419
  105OSM     NF10692   0.321   2.475  10.342  0.2020 -0.1218 -0.4637
  105OSM    HNF10693   0.410   2.507  10.310 -0.2661  0.4022 -1.2681
  105OSM    C2S10694   0.215   2.572  10.353 -0.1236 -0.9541  0.2065
  105OSM    H2S10695   0.120   2.520  10.327 -0.8777 -1.0533  2.8677
  105OSM    C3S10696   0.241   2.698  10.260 -0.7963 -0.9150 -0.9326
  105OSM    H3S10697   0.320   2.758  10.309  0.1121 -0.8622 -2.4088
  105OSM     O310698   0.130   2.792  10.257  0.3101  0.2865  0.6832
  105OSM    HO310699   0.069   2.756  10.323  2.2812 -0.8848  1.9545
  105OSM    C4S10700   0.294   2.663  10.121 -1.2962  0.1757  0.5197
  105OSM    H4S10701   0.404   2.660  10.120 -1.3109 -0.3337  0.1683
  105OSM    C5S10702   0.223   2.649  10.005  0.2415 -0.2206  0.2265
  105OSM    H5S10703   0.115   2.671  10.015  0.0245 -1.2483  0.1780
  105OSM    C6S10704   0.296   2.611   9.880 -0.3050 -0.1501  0.8740
  105OSM    H6S10705   0.318   2.502   9.879 -1.4097 -0.3778 -0.0319
  105OSM    H6T10706   0.392   2.667   9.871 -0.6194  0.0778 -2.1920
  105OSM    C7S10707   0.218   2.647   9.755  0.1837 -0.1756 -0.5871
  105OSM    H7S10708   0.224   2.758   9.745  2.8301 -0.3099 -1.1027
  105OSM    H7T10709   0.109   2.624   9.765 -0.1813  0.7137 -2.1363
  105OSM    C8S10710   0.281   2.592   9.625  0.2857  0.5675  0.8139
  105OSM    H8S10711   0.298   2.483   9.641 -0.4779  0.1500 -0.9511
  105OSM    H8T10712   0.379   2.641   9.609  0.5736 -0.4264 -0.7190
  105OSM    C9S10713   0.176   2.592   9.515  0.2825  0.5599  0.2734
  105OSM    H9S10714   0.158   2.695   9.476 -2.2277 -0.3512 -1.1702
  105OSM    H9T10715   0.082   2.544   9.549  1.0826 -1.9045 -0.8259
  105OSM   C10S10716   0.234   2.522   9.393  0.0972  0.4799 -0.3893
  105OSM   H10S10717   0.254   2.414   9.403  0.4494  0.6351  0.8129
  105OSM   H10T10718   0.334   2.568   9.378  0.9327 -1.0418  0.2718
  105OSM   C11S10719   0.159   2.554   9.267 -0.2960 -0.4863  0.6632
  105OSM   H11S10720   0.140   2.663   9.273 -0.6734 -0.5376  0.4037
  105OSM   H11T10721   0.066   2.493   9.262 -0.2999 -0.4334  0.0237
  105OSM   C12S10722   0.252   2.519   9.146  0.7006 -0.8385  0.5837
  105OSM   H12S10723   0.247   2.411   9.121  0.1720 -1.0867  1.7282
  105OSM   H12T10724   0.358   2.541   9.174 -0.0689  1.7233  1.8470
  105OSM   C13S10725   0.231   2.611   9.024  0.2120 -0.9491 -0.1686
  105OSM   H13S10726   0.129   2.596   8.982  0.9352 -0.9582 -2.0253
  105OSM   H13T10727   0.313   2.579   8.956  0.9174  0.8178 -0.1965
  105OSM   C14S10728   0.256   2.758   9.043 -0.3587 -1.0217 -0.8449
  105OSM   H14S10729   0.351   2.787   9.093 -2.2669  4.4698  0.3782
  105OSM   H14T10730   0.179   2.808   9.107 -0.2156  1.1763 -2.2864
  105OSM   C15S10731   0.255   2.830   8.912  1.0327  0.0387  1.0010
  105OSM   H15S10732   0.277   2.938   8.919  3.9733 -0.3981 -0.2053
  105OSM   H15T10733   0.151   2.822   8.872  0.1596 -0.9195  3.2595
  105OSM   C16S10734   0.358   2.789   8.811  0.4048 -0.0531 -0.0059
  105OSM   H16S10735   0.346   2.683   8.779 -1.4586  0.3334 -0.6735
  105OSM   H16T10736   0.454   2.795   8.868  0.1979  0.8290  0.2582
  105OSM   C17S10737   0.351   2.876   8.682  0.0739  0.1154  0.6288
  105OSM   H17S10738   0.431   2.858   8.608 -1.6374 -1.1879 -1.0073
  105OSM   H17T10739   0.352   2.984   8.705  2.0872  0.2278  0.1709
  105OSM   C18S10740   0.226   2.855   8.605 -0.0736  0.5878 -0.0331
  105OSM   H18S10741   0.179   2.755   8.623 -2.2055  1.4672 -0.3759
  105OSM   H18T10742   0.242   2.852   8.495  1.5503  1.4871  0.1587
  105OSM   H18U10743   0.141   2.919   8.637  1.2786  2.3065  0.2439
  105OSM    C1F10744   0.320   2.351  10.393  0.7656  0.0516  0.0159
  105OSM     OF10745   0.217   2.312  10.450 -0.2735 -0.3084  0.5842
  105OSM    C2F10746   0.445   2.270  10.372 -0.0910  0.1898  0.0523
  105OSM    H2F10747   0.490   2.237  10.468 -2.5118  1.9392  1.8946
  105OSM    H2G10748   0.522   2.342  10.338 -0.7675  0.6724 -0.4658
  105OSM    C3F10749   0.433   2.149  10.284 -0.1774 -0.1817 -0.4199
  105OSM    H3F10750   0.536   2.121  10.253 -0.8788 -2.2471 -1.0792
  105OSM    H3G10751   0.383   2.178  10.189  1.3010  0.5876 -0.9826
  105OSM    C4F10752   0.356   2.028  10.344  0.2959 -0.6838  0.3239
  105OSM    H4F10753   0.254   2.061  10.373 -0.4107 -2.0594 -0.4658
  105OSM    H4G10754   0.412   1.981  10.427 -0.1704 -1.5364  0.1763
  105OSM    C5F10755   0.331   1.910  10.238  0.7306  0.4574  0.0617
  105OSM    H5F10756   0.258   1.844  10.290 -1.8742  1.2045 -2.3713
  105OSM    H5G10757   0.423   1.859  10.201  1.2103  0.6997  0.8853
  105OSM    C6F10758   0.243   1.961  10.118 -0.9951 -0.3340  1.4260
  105OSM    H6F10759   0.307   2.008  10.041  0.2947 -1.4068  1.8037
  105OSM    H6G10760   0.182   2.044  10.160 -4.4508 -1.4831 -0.8414
  105OSM    C7F10761   0.154   1.856  10.052  0.2248 -0.0413  0.3739
  105OSM    H7F10762   0.073   1.817  10.118  1.6536 -2.1686  0.9665
  105OSM    H7G10763   0.210   1.764  10.027  0.1469  0.2216 -0.8267
  105OSM    C8F10764   0.100   1.905   9.915 -0.1087  0.7068  0.3953
  105OSM    H8F10765   0.016   1.843   9.878 -1.8254  2.5233  1.1285
  105OSM    H8G10766   0.183   1.912   9.840  1.2428  2.6793  1.9664
  105OSM    C9F10767   0.026   2.036   9.923  0.6710  0.0393  0.0964
  105OSM    H9F10768  -0.051   2.034  10.001  0.8066  1.9440  0.3079
  105OSM   C10F10769   0.045   2.145   9.846 -0.0269  0.0811  0.4685
  105OSM   H10F10770  -0.028   2.227   9.853  1.5612  2.0126 -2.7958
  105OSM   C11F10771   0.135   2.156   9.727 -0.0359  0.3050 -0.5152
  105OSM   H11F10772   0.203   2.068   9.735 -0.3710  0.1082  0.2742
  105OSM   H11G10773   0.206   2.242   9.734 -0.5227  0.6699  0.0431
  105OSM   C12F10774   0.060   2.160   9.591 -0.0473 -0.7280 -0.9947
  105OSM   H12F10775   0.008   2.258   9.581  0.8407  0.1262  1.8766
  105OSM   H12G10776  -0.025   2.088   9.594 -0.6394 -0.0189  0.0500
  105OSM   C13F10777   0.155   2.127   9.478  0.0701  0.9093  0.5763
  105OSM   H13F10778   0.209   2.036   9.513  3.0645  2.7330  1.0102
  105OSM   H13G10779   0.231   2.207   9.465  1.7465 -0.8288 -1.0844
  105OSM   C14F10780   0.097   2.119   9.336 -0.2874 -0.0852  0.0954
  105OSM   H14F10781   0.166   2.056   9.276 -0.1901 -0.5446  0.6818
  105OSM   H14G10782   0.108   2.224   9.303  1.8609 -0.3622 -0.1915
  105OSM   C15F10783  -0.051   2.067   9.331 -0.7983  0.2952 -0.7824
  105OSM   H15F10784  -0.121   2.136   9.381 -0.0728  0.7123 -0.3343
  105OSM   H15G10785  -0.053   1.974   9.393 -0.8428  0.7886 -0.0368
  105OSM   C16F10786  -0.108   2.050   9.191  0.0412  0.2794 -0.1554
  105OSM   H16F10787  -0.109   2.153   9.150  0.9513  0.3524 -0.0124
  105OSM   H16G10788  -0.208   2.007   9.214  0.9665 -1.2511  1.2173
  105OSM   C17F10789  -0.035   1.943   9.106  0.4879 -0.6082 -0.2973
  105OSM   H17F10790   0.072   1.972   9.098 -0.1769  2.0689 -0.5856
  105OSM   H17G10791  -0.075   1.954   9.003 -0.6297  0.3425  0.2027
  105OSM   C18F10792  -0.064   1.806   9.156  0.1672  0.7410  0.7905
  105OSM   H18F10793  -0.032   1.799   9.262 -1.4733  0.7977  1.3038
  105OSM   H18G10794  -0.015   1.736   9.085 -1.9074  2.6700 -2.8575
  105OSM   H18H10795  -0.174   1.791   9.154  0.1298  1.0635  0.1032
  106OSM      N10796   1.632   0.292  10.831  0.1722  0.6288  0.1746
  106OSM    C1510797   1.642   0.420  10.759  0.6760 -0.0414 -0.1124
  106OSM   H15A10798   1.713   0.417  10.678 -0.9254 -0.7904 -1.5381
  106OSM   H15B10799   1.661   0.508  10.819  1.4156 -0.0616 -0.2999
  106OSM   H15C10800   1.550   0.436  10.705  0.6626 -0.6204 -0.2656
  106OSM    C1410801   1.755   0.263  10.907  0.3867  0.5352 -0.6662
  106OSM   H14A10802   1.776   0.343  10.977  3.4968  0.5246 -1.4721
  106OSM   H14B10803   1.835   0.262  10.834  0.7760  0.0668 -0.2385
  106OSM   H14C10804   1.753   0.167  10.956 -0.6107  0.4680 -0.8187
  106OSM    C1310805   1.516   0.299  10.928  0.1289 -0.2734  0.9803
  106OSM   H13A10806   1.539   0.373  11.002 -2.2373  0.3847  1.1334
  106OSM   H13B10807   1.500   0.203  10.975  2.8852 -0.8227  0.9797
  106OSM   H13C10808   1.418   0.325  10.892 -0.1398 -1.4355  0.8305
  106OSM    C1210809   1.615   0.182  10.726 -0.3764 -0.3541  0.2234
  106OSM   H12A10810   1.696   0.181  10.655 -1.7294 -0.1712 -1.3947
  106OSM   H12B10811   1.527   0.207  10.668 -0.9096 -0.9860  0.7452
  106OSM    C1110812   1.583   0.043  10.769 -0.2727  0.6999  0.6374
  106OSM   H11A10813   1.648   0.002  10.849  0.5670 -1.0983 -0.8909
  106OSM   H11B10814   1.592  -0.014  10.674 -0.7009  2.8053 -0.7471
  106OSM      P10815   1.369  -0.088  10.816  0.0642  0.0624 -0.1659
  106OSM    O1310816   1.449  -0.206  10.856 -0.3780  0.6333 -0.6683
  106OSM    O1410817   1.243  -0.075  10.894 -0.1226 -0.4407 -0.3199
  106OSM    O1110818   1.339  -0.110  10.662 -0.0053 -0.8637 -0.0746
  106OSM    O1210819   1.448   0.045  10.809 -0.0368  0.0245 -0.7020
  106OSM    C1S10820   1.326   0.000  10.566 -0.3625 -0.0669 -0.2664
  106OSM    H1S10821   1.409   0.073  10.581 -1.2603  1.0112 -0.3667
  106OSM    H1T10822   1.225   0.046  10.576 -1.5995 -2.7131  0.0839
  106OSM     NF10823   1.331   0.062  10.329  0.1016 -0.3165 -0.7041
  106OSM    HNF10824   1.243   0.066  10.282 -0.1559 -0.0851 -0.2061
  106OSM    C2S10825   1.337  -0.052  10.415 -0.3773  0.8581 -1.0385
  106OSM    H2S10826   1.430  -0.111  10.405  1.3555  3.2810 -0.0554
  106OSM    C3S10827   1.229  -0.155  10.379 -0.5255 -0.5088  0.8840
  106OSM    H3S10828   1.133  -0.104  10.399 -0.7717  0.5110 -2.4044
  106OSM     O310829   1.213  -0.273  10.459  0.0615 -0.2509  0.2211
  106OSM    HO310830   1.245  -0.247  10.546 -1.5086  0.5938  0.5920
  106OSM    C4S10831   1.254  -0.192  10.224 -0.1257  0.1256 -0.6924
  106OSM    H4S10832   1.189  -0.131  10.159  0.6725 -0.7673 -2.3919
  106OSM    C5S10833   1.340  -0.287  10.176  0.6112 -0.5004 -0.7398
  106OSM    H5S10834   1.409  -0.347  10.236 -0.8954 -2.9814 -1.3395
  106OSM    C6S10835   1.354  -0.308  10.028 -0.3560 -0.4883  0.0279
  106OSM    H6S10836   1.415  -0.230   9.978  1.1434 -0.6233  1.5207
  106OSM    H6T10837   1.255  -0.332   9.984 -0.4405 -0.5558  0.2519
  106OSM    C7S10838   1.427  -0.443  10.006 -0.2952  1.1004 -0.5956
  106OSM    H7S10839   1.366  -0.519  10.059  1.3983  0.2934  0.2550
  106OSM    H7T10840   1.526  -0.439  10.056 -0.8570 -0.3501  0.7082
  106OSM    C8S10841   1.457  -0.477   9.857 -0.1149  0.1548  0.8158
  106OSM    H8S10842   1.506  -0.577   9.856 -1.2262 -0.4555 -1.9102
  106OSM    H8T10843   1.526  -0.405   9.808  0.7031 -1.4550 -0.5371
  106OSM    C9S10844   1.333  -0.498   9.778  0.3223 -0.4228 -0.2426
  106OSM    H9S10845   1.292  -0.396   9.764 -0.3935 -0.1279  3.0608
  106OSM    H9T10846   1.256  -0.553   9.836  1.0445  1.6042  2.9331
  106OSM   C10S10847   1.368  -0.566   9.640 -0.1466  0.0503 -0.3415
  106OSM   H10S10848   1.394  -0.673   9.658  0.6567  0.3077  0.0862
  106OSM   H10T10849   1.456  -0.514   9.596  0.9494 -0.3952  1.2541
  106OSM   C11S10850   1.252  -0.556   9.538 -0.4828  0.7171 -0.5327
  106OSM   H11S10851   1.225  -0.449   9.530  0.8202  1.1672  0.6743
  106OSM   H11T10852   1.161  -0.607   9.577 -1.1558 -0.4290 -3.3292
  106OSM   C12S10853   1.281  -0.621   9.402 -0.4965 -0.3882  0.1858
  106OSM   H12S10854   1.316  -0.725   9.414  1.0101  0.1364  0.5007
  106OSM   H12T10855   1.361  -0.555   9.362 -0.8236  1.3684  2.2531
  106OSM   C13S10856   1.163  -0.613   9.306 -0.5466 -0.0997  0.6795
  106OSM   H13S10857   1.116  -0.516   9.330 -0.7482  0.3107 -1.2742
  106OSM   H13T10858   1.091  -0.698   9.318 -0.1584 -0.7392 -1.1676
  106OSM   C14S10859   1.198  -0.615   9.152 -0.9337  0.3877 -1.0706
  106OSM   H14S10860   1.284  -0.546   9.140  1.8595 -2.4553  0.7537
  106OSM   H14T10861   1.111  -0.581   9.093 -2.7190 -0.7936  0.7717
  106OSM   C15S10862   1.257  -0.745   9.097  0.2873  0.1522  0.3887
  106OSM   H15S10863   1.193  -0.829   9.133 -1.3325  0.5838 -1.3231
  106OSM   H15T10864   1.352  -0.762   9.152 -0.0310 -3.2274  0.1179
  106OSM   C16S10865   1.269  -0.768   8.940  0.3853 -0.7828 -0.0151
  106OSM   H16S10866   1.334  -0.856   8.920 -0.4971 -0.9531 -2.4074
  106OSM   H16T10867   1.315  -0.678   8.894 -1.0561 -0.1845 -0.3065
  106OSM   C17S10868   1.136  -0.792   8.869  0.4095 -0.1645 -0.8945
  106OSM   H17S10869   1.077  -0.698   8.861  1.4315  0.7529  1.3353
  106OSM   H17T10870   1.075  -0.860   8.932  1.4910 -0.4485 -0.1056
  106OSM   C18S10871   1.138  -0.857   8.728 -0.0572  0.5721  0.4108
  106OSM   H18S10872   1.186  -0.793   8.651  1.0677 -2.0849 -1.2325
  106OSM   H18T10873   1.034  -0.886   8.705  0.6409 -0.3372 -1.8864
  106OSM   H18U10874   1.189  -0.954   8.746  0.7392  1.0040  0.5352
  106OSM    C1F10875   1.431   0.153  10.328 -0.0304 -0.0606 -0.5649
  106OSM     OF10876   1.541   0.114  10.368 -0.1344 -0.2329 -0.0942
  106OSM    C2F10877   1.403   0.287  10.263  0.4788  0.6520 -0.2650
  106OSM    H2F10878   1.294   0.308  10.277  0.2676 -0.8375  0.6324
  106OSM    H2G10879   1.419   0.264  10.156 -1.1104  2.1442 -0.8800
  106OSM    C3F10880   1.490   0.413  10.300  1.0282  0.0416  0.3023
  106OSM    H3F10881   1.594   0.379  10.319  1.0430 -1.0459 -1.5296
  106OSM    H3G10882   1.458   0.454  10.398 -1.0247 -0.9346  0.1034
  106OSM    C4F10883   1.480   0.531  10.198  0.4417 -0.7294  0.5226
  106OSM    H4F10884   1.505   0.624  10.254  2.6394 -0.6133 -0.5419
  106OSM    H4G10885   1.374   0.537  10.166  0.7863  0.1451 -0.5354
  106OSM    C5F10886   1.572   0.506  10.082 -0.0270  0.5911  0.0410
  106OSM    H5F10887   1.552   0.406  10.039  1.0839  0.2151  0.3479
  106OSM    H5G10888   1.678   0.507  10.116 -0.0918 -1.8482  0.5332
  106OSM    C6F10889   1.549   0.611   9.972 -0.1785  0.3268  0.1069
  106OSM    H6F10890   1.563   0.714  10.011  0.2151  0.3651 -0.1291
  106OSM    H6G10891   1.445   0.608   9.933 -0.1238 -0.0696 -0.0134
  106OSM    C7F10892   1.656   0.577   9.858  0.7567 -0.4318 -0.7083
  106OSM    H7F10893   1.651   0.468   9.837 -3.2616 -0.6018  0.2347
  106OSM    H7G10894   1.760   0.601   9.889 -0.3415  4.0025  0.2814
  106OSM    C8F10895   1.632   0.648   9.726 -0.1553  0.2340  0.3812
  106OSM    H8F10896   1.716   0.624   9.657 -1.7614 -0.5648 -1.4005
  106OSM    H8G10897   1.633   0.759   9.730  3.2839  0.3441 -0.5902
  106OSM    C9F10898   1.505   0.594   9.664  0.2119  0.4231  0.6394
  106OSM    H9F10899   1.433   0.562   9.741  0.4710 -3.3119 -0.4525
  106OSM   C10F10900   1.471   0.572   9.536 -0.3261  0.1450 -0.0472
  106OSM   H10F10901   1.376   0.518   9.519  0.5084 -1.4915  0.3183
  106OSM   C11F10902   1.558   0.586   9.418 -0.5245 -0.3919  0.1849
  106OSM   H11F10903   1.588   0.486   9.382 -0.4742  0.4189 -2.2512
  106OSM   H11G10904   1.643   0.655   9.436 -1.2641  0.8818 -0.9616
  106OSM   C12F10905   1.468   0.633   9.298  0.0187 -0.4089 -0.2283
  106OSM   H12F10906   1.414   0.725   9.328 -1.2208 -2.1861  3.6252
  106OSM   H12G10907   1.386   0.564   9.267 -0.7407 -0.6516  2.1082
  106OSM   C13F10908   1.561   0.652   9.180  0.2665  0.6802  0.2822
  106OSM   H13F10909   1.604   0.557   9.141 -1.1517  0.8297 -1.8099
  106OSM   H13G10910   1.643   0.725   9.198  1.0350  0.5053 -2.1310
  106OSM   C14F10911   1.484   0.711   9.056  0.0093 -0.5721 -0.3500
  106OSM   H14F10912   1.552   0.758   8.981  1.3164 -1.0500  0.4992
  106OSM   H14G10913   1.418   0.793   9.091  0.8787  0.1339 -0.3057
  106OSM   C15F10914   1.403   0.607   8.988  0.4444 -0.0764  0.2796
  106OSM   H15F10915   1.326   0.560   9.052 -0.4157  1.2762  0.2724
  106OSM   H15G10916   1.471   0.533   8.941  2.9108  0.8956  2.0670
  106OSM   C16F10917   1.327   0.665   8.868 -0.3792  0.0088 -0.2408
  106OSM   H16F10918   1.272   0.758   8.894 -0.8892 -0.6674  1.2258
  106OSM   H16G10919   1.260   0.590   8.822  2.0255 -2.9371  0.7008
  106OSM   C17F10920   1.431   0.697   8.751 -0.4675 -0.2973 -0.9180
  106OSM   H17F10921   1.534   0.658   8.768  1.1557  2.2708 -3.7937
  106OSM   H17G10922   1.454   0.806   8.754 -0.5989 -0.2857  1.4877
  106OSM   C18F10923   1.390   0.634   8.615 -0.7703  0.2306 -0.1026
  106OSM   H18F10924   1.381   0.526   8.638  0.4076  0.3454  0.9981
  106OSM   H18G10925   1.460   0.666   8.535 -3.6663 -0.2411 -3.0657
  106OSM   H18H10926   1.287   0.672   8.596  0.0684  3.3353  0.9578
  107OSM      N10927   2.348   5.532  10.990 -0.0335 -0.3364  0.7698
  107OSM    C1510928   2.462   5.444  11.018 -0.6555 -0.1709  0.2018
  107OSM   H15A10929   2.516   5.487  11.101  0.8449 -2.0255  0.2462
  107OSM   H15B10930   2.538   5.445  10.942  0.2495 -2.7833  0.9776
  107OSM   H15C10931   2.438   5.342  11.042  1.9252 -0.2947  2.8436
  107OSM    C1410932   2.284   5.473  10.864  0.3715  0.1930  0.2293
  107OSM   H14A10933   2.196   5.531  10.838 -0.8842 -1.5185  0.5139
  107OSM   H14B10934   2.272   5.367  10.880 -0.3260  0.5108  2.0788
  107OSM   H14C10935   2.349   5.481  10.779 -0.2228  1.6270 -0.1215
  107OSM    C1310936   2.252   5.535  11.109  0.8493  0.0945 -0.3231
  107OSM   H13A10937   2.159   5.584  11.086  1.4738  0.8399 -1.3435
  107OSM   H13B10938   2.300   5.576  11.197 -1.6263 -2.9623  2.7181
  107OSM   H13C10939   2.233   5.433  11.139  2.6796  0.3973  2.2218
  107OSM    C1210940   2.386   5.682  10.973  0.5785  0.7852  0.2093
  107OSM   H12A10941   2.414   5.718  11.071 -1.6153 -0.2571  1.2701
  107OSM   H12B10942   2.301   5.747  10.963  0.6473  1.0091  1.0282
  107OSM    C1110943   2.488   5.732  10.874 -0.1840 -0.1224  0.1377
  107OSM   H11A10944   2.493   5.843  10.879  1.0019  0.1169 -3.4181
  107OSM   H11B10945   2.462   5.705  10.769  2.6479  2.4952 -1.4112
  107OSM      P10946   2.730   5.750  10.973 -0.6717  0.2050 -0.1211
  107OSM    O1310947   2.673   5.849  11.063 -0.2208  0.2889 -0.4999
  107OSM    O1410948   2.820   5.651  11.035 -0.3988 -0.0115 -0.2596
  107OSM    O1110949   2.814   5.824  10.867  0.1182 -0.2157  0.1137
  107OSM    O1210950   2.614   5.674  10.894  0.0944  0.1525  0.2471
  107OSM    C1S10951   2.900   5.770  10.772 -0.2699  0.5145  0.5030
  107OSM    H1S10952   2.935   5.670  10.805  0.8624  0.3690 -0.9972
  107OSM    H1T10953   2.986   5.837  10.754 -1.2501  1.5114 -0.6292
  107OSM     NF10954   2.895   5.667  10.534  0.0151  0.4131  0.2312
  107OSM    HNF10955   2.915   5.706  10.444 -1.8536 -0.3824 -0.5842
  107OSM    C2S10956   2.823   5.746  10.635 -0.5912 -0.1445  0.2981
  107OSM    H2S10957   2.733   5.691  10.669 -0.3703  0.4641  1.9721
  107OSM    C3S10958   2.787   5.883  10.574 -0.4154  0.7684 -0.4936
  107OSM    H3S10959   2.881   5.940  10.560  0.7073 -0.7900  0.4165
  107OSM     O310960   2.710   5.969  10.660 -0.1028 -0.1930 -0.2221
  107OSM    HO310961   2.736   5.940  10.747 -3.3183  0.6412  1.1569
  107OSM    C4S10962   2.710   5.872  10.446  0.0477 -0.2344 -0.3845
  107OSM    H4S10963   2.602   5.870  10.468  0.2610 -1.0941  0.6909
  107OSM    C5S10964   2.754   5.900  10.322 -0.0410  0.0541  0.6774
  107OSM    H5S10965   2.863   5.915  10.315  0.5958 -3.7032  0.5212
  107OSM    C6S10966   2.670   5.905  10.201  0.2311  1.3056  1.1858
  107OSM    H6S10967   2.657   6.008  10.159 -1.1340  0.1948 -1.3868
  107OSM    H6T10968   2.568   5.863  10.216  0.5943  0.8720  2.4830
  107OSM    C7S10969   2.727   5.824  10.077  0.4178 -0.0452  0.0661
  107OSM    H7S10970   2.653   5.824   9.994  1.3342 -0.1288 -0.7657
  107OSM    H7T10971   2.741   5.717  10.103 -0.4057 -0.1495  0.1173
  107OSM    C8S10972   2.852   5.872  10.019  0.1952 -0.2218 -0.1363
  107OSM    H8S10973   2.926   5.893  10.098 -0.4564 -2.5861  1.2078
  107OSM    H8T10974   2.833   5.964   9.960  0.0982  0.3369  0.7567
  107OSM    C9S10975   2.913   5.767   9.913  0.0193  0.4398  0.1886
  107OSM    H9S10976   2.937   5.669   9.960  0.7550 -0.3850 -1.8247
  107OSM    H9T10977   3.008   5.811   9.878  0.6644 -1.7210 -0.9264
  107OSM   C10S10978   2.828   5.735   9.784 -0.2001 -0.2759  0.1785
  107OSM   H10S10979   2.765   5.820   9.752 -0.1638 -0.5228 -0.5646
  107OSM   H10T10980   2.758   5.661   9.830  1.5478  0.0264  3.6551
  107OSM   C11S10981   2.901   5.677   9.667 -0.2005  0.7920 -0.4309
  107OSM   H11S10982   2.939   5.580   9.705 -0.6203 -0.0110 -1.9771
  107OSM   H11T10983   2.986   5.739   9.631  1.0687  1.0758  2.7155
  107OSM   C12S10984   2.818   5.638   9.551  0.1249 -0.1877  0.0057
  107OSM   H12S10985   2.748   5.721   9.525  0.0328  0.0284  0.9092
  107OSM   H12T10986   2.757   5.551   9.583 -0.5622  1.4334  3.6572
  107OSM   C13S10987   2.901   5.606   9.426 -0.5050  0.2944  0.0579
  107OSM   H13S10988   2.959   5.513   9.443  0.1107  0.7603  0.5331
  107OSM   H13T10989   2.977   5.681   9.395 -2.4189  1.4957 -2.0996
  107OSM   C14S10990   2.821   5.575   9.297  0.1192 -0.0756  0.0316
  107OSM   H14S10991   2.771   5.658   9.243  0.0581  0.4171  0.8415
  107OSM   H14T10992   2.742   5.502   9.327  1.1775 -1.4863 -0.4738
  107OSM   C15S10993   2.910   5.507   9.191 -1.2579 -0.2411 -0.5708
  107OSM   H15S10994   2.953   5.420   9.244  1.0735  1.0484 -0.2063
  107OSM   H15T10995   2.994   5.573   9.163 -0.3487 -0.8602  0.6171
  107OSM   C16S10996   2.838   5.453   9.070 -0.1079 -0.0491 -0.5951
  107OSM   H16S10997   2.795   5.536   9.010  0.9576  0.7951 -0.2262
  107OSM   H16T10998   2.757   5.388   9.109  2.1212 -1.7201  1.5655
  107OSM   C17S10999   2.918   5.361   8.969 -0.4724 -0.0913 -0.0451
  107OSM   H17S11000   2.960   5.268   9.013 -0.3773 -0.6488 -1.2614
  107OSM   H17T11001   3.002   5.424   8.935 -1.8781  1.9413  0.0623
  107OSM   C18S11002   2.824   5.333   8.849  0.7755 -0.1679 -0.3253
  107OSM   H18S11003   2.865   5.272   8.766  1.8838  0.9827 -0.6622
  107OSM   H18T11004   2.777   5.429   8.819 -0.5649 -0.4545  0.7363
  107OSM   H18U11005   2.737   5.284   8.898  2.0744 -2.6644 -0.3575
  107OSM    C1F11006   2.926   5.541  10.560 -0.3769  0.1359  0.3606
  107OSM     OF11007   2.906   5.489  10.667  0.0425  0.3642  0.0601
  107OSM    C2F11008   2.973   5.461  10.439 -0.1196 -0.4687 -0.7316
  107OSM    H2F11009   3.078   5.429  10.454  0.7371  2.5425  0.4371
  107OSM    H2G11010   2.976   5.519  10.345 -1.2544 -0.8428 -1.0164
  107OSM    C3F11011   2.879   5.339  10.421 -0.2866  0.7412  0.2364
  107OSM    H3F11012   2.773   5.373  10.413 -0.2438  0.7206 -0.4480
  107OSM    H3G11013   2.882   5.268  10.507  1.2739  0.3597 -0.0982
  107OSM    C4F11014   2.906   5.281  10.282  0.5237  0.1397 -0.4415
  107OSM    H4F11015   2.840   5.192  10.285  1.0850 -0.2572  1.4066
  107OSM    H4G11016   3.012   5.247  10.278  0.2985 -0.7786  0.8206
  107OSM    C5F11017   2.854   5.369  10.166 -0.6396  0.5035 -0.5498
  107OSM    H5F11018   2.941   5.430  10.134 -0.4706  1.5817  1.7300
  107OSM    H5G11019   2.768   5.436  10.187 -0.0224  1.4100 -0.8177
  107OSM    C6F11020   2.812   5.283  10.046  0.3853  0.8356 -0.3210
  107OSM    H6F11021   2.717   5.239  10.085 -0.2494  2.6578  0.3140
  107OSM    H6G11022   2.890   5.207  10.028 -1.1757 -0.4072 -2.1746
  107OSM    C7F11023   2.788   5.357   9.919  0.4501 -0.5434 -0.4520
  107OSM    H7F11024   2.874   5.427   9.904  0.5976 -0.6522 -0.1381
  107OSM    H7G11025   2.700   5.417   9.950  1.3809  1.3477 -1.2799
  107OSM    C8F11026   2.747   5.271   9.799 -0.0427 -0.2127  0.0568
  107OSM    H8F11027   2.687   5.329   9.725 -0.4868 -0.8971 -0.1335
  107OSM    H8G11028   2.672   5.197   9.835 -0.9511  1.3566  1.5375
  107OSM    C9F11029   2.878   5.210   9.742  0.3578  0.5267 -0.6820
  107OSM    H9F11030   2.972   5.248   9.783  1.3550 -2.2555 -0.1509
  107OSM   C10F11031   2.882   5.125   9.639 -0.3545 -0.3386  0.2320
  107OSM   H10F11032   2.980   5.081   9.616 -0.6447 -0.1528 -1.5222
  107OSM   C11F11033   2.773   5.070   9.552 -0.4194  0.2203 -0.1335
  107OSM   H11F11034   2.683   5.133   9.568 -0.6927  0.4004 -2.2163
  107OSM   H11G11035   2.743   4.969   9.588  0.4166 -0.2122 -0.6234
  107OSM   C12F11036   2.811   5.074   9.408  0.3287  0.0546 -0.0671
  107OSM   H12F11037   2.859   5.168   9.375 -1.3549  0.2880 -2.0479
  107OSM   H12G11038   2.725   5.070   9.338  1.6033 -0.2885 -1.6484
  107OSM   C13F11039   2.901   4.960   9.362  0.4925 -0.3005  0.3479
  107OSM   H13F11040   2.849   4.864   9.387 -2.1914  0.7059 -0.9922
  107OSM   H13G11041   2.996   4.963   9.419  0.5451 -0.2818  0.2588
  107OSM   C14F11042   2.938   4.967   9.211  0.1443 -0.3924  0.1660
  107OSM   H14F11043   3.012   4.887   9.188  0.2899  0.1119 -1.2253
  107OSM   H14G11044   2.977   5.069   9.189  1.7399 -1.1708 -0.8281
  107OSM   C15F11045   2.830   4.917   9.116  0.1358 -0.0226 -0.1938
  107OSM   H15F11046   2.728   4.954   9.138 -0.0698 -0.0466 -1.0648
  107OSM   H15G11047   2.826   4.806   9.128  1.0632 -0.2239 -1.5057
  107OSM   C16F11048   2.860   4.947   8.969  0.1338 -0.4457  0.3332
  107OSM   H16F11049   2.933   4.869   8.939  1.2877  0.3407  1.0019
  107OSM   H16G11050   2.899   5.050   8.952  0.2782 -0.3468  1.2386
  107OSM   C17F11051   2.748   4.924   8.858  0.2248  0.1974  0.3150
  107OSM   H17F11052   2.670   5.003   8.869  0.7171  0.6223  0.7475
  107OSM   H17G11053   2.716   4.818   8.873  1.4640 -0.2252  0.0814
  107OSM   C18F11054   2.802   4.929   8.711 -0.1897  0.2957  0.8366
  107OSM   H18F11055   2.717   4.935   8.639 -0.4214  0.8698  1.1522
  107OSM   H18G11056   2.868   4.842   8.690  0.2371  0.2694  2.2281
  107OSM   H18H11057   2.871   5.016   8.703  0.5436 -0.1958  1.6463
  108OSM      N11058   4.893   2.061  11.183  0.2812  0.1752 -0.3797
  108OSM    C1511059   4.939   1.930  11.140 -0.4836  0.6220  1.1006
  108OSM   H15A11060   5.010   1.948  11.061 -1.9092  0.4303 -0.2841
  108OSM   H15B11061   4.854   1.876  11.100  1.1250  0.5479 -2.5317
  108OSM   H15C11062   4.975   1.878  11.228 -1.4910  0.1881  1.2759
  108OSM    C1411063   4.798   2.048  11.291 -1.0561 -0.1456 -0.0977
  108OSM   H14A11064   4.740   1.957  11.283 -2.1296  0.1951  2.6495
  108OSM   H14B11065   4.723   2.125  11.278 -1.3541 -0.4927 -0.4639
  108OSM   H14C11066   4.851   2.037  11.385 -0.0683  0.4067 -0.5836
  108OSM    C1311067   5.005   2.141  11.238 -0.4585 -0.3702  1.1145
  108OSM   H13A11068   5.075   2.162  11.158 -2.5715  3.9349  0.0665
  108OSM   H13B11069   5.058   2.089  11.315  1.7319 -1.7360 -1.1625
  108OSM   H13C11070   4.964   2.236  11.270 -3.2665 -1.1732  0.1723
  108OSM    C1211071   4.826   2.135  11.071 -0.3875  0.6667 -0.4651
  108OSM   H12A11072   4.788   2.230  11.106 -2.2650 -0.4911  0.7885
  108OSM   H12B11073   4.733   2.082  11.060  0.4394 -1.3179  1.3455
  108OSM    C1111074   4.897   2.130  10.933 -0.0132  0.8641 -0.6336
  108OSM   H11A11075   4.840   2.175  10.850 -0.7511  0.0646 -0.5760
  108OSM   H11B11076   4.901   2.022  10.907 -0.1926  0.0779  2.2267
  108OSM      P11077   5.134   2.147  10.837 -0.1730  0.1052 -0.3072
  108OSM    O1311078   5.251   2.230  10.859 -0.4019  0.1658  0.4132
  108OSM    O1411079   5.160   2.002  10.843  0.4888 -0.2380 -0.7723
  108OSM    O1111080   5.069   2.184  10.699 -0.0108  0.0262  0.7692
  108OSM    O1211081   5.022   2.195  10.941  0.1918 -0.2620  0.1929
  108OSM    C1S11082   5.061   2.323  10.662 -0.0107  0.1152  0.4205
  108OSM    H1S11083   5.161   2.369  10.678  2.0453 -3.4312 -1.0708
  108OSM    H1T11084   4.979   2.376  10.715 -0.7248  1.0726 -1.5576
  108OSM     NF11085   5.037   2.479  10.474  0.2591 -0.5598  0.2884
  108OSM    HNF11086   4.958   2.533  10.500  0.2784 -0.3897 -0.0093
  108OSM    C2S11087   5.030   2.340  10.510 -0.0381  0.1228 -0.6280
  108OSM    H2S11088   5.113   2.281  10.465  0.7421  0.6557  0.0774
  108OSM    C3S11089   4.893   2.276  10.481 -0.4169 -0.1250  0.0707
  108OSM    H3S11090   4.816   2.323  10.546  0.3597 -0.3079  1.1531
  108OSM     O311091   4.882   2.136  10.513  0.1353  0.3339 -0.2513
  108OSM    HO311092   4.950   2.132  10.580 -0.7220  0.0582  0.6343
  108OSM    C4S11093   4.864   2.309  10.337 -1.2148  0.0682 -0.2845
  108OSM    H4S11094   4.940   2.267  10.271  2.7360  2.3690  2.3505
  108OSM    C5S11095   4.774   2.397  10.287 -0.0932 -0.0570  0.2465
  108OSM    H5S11096   4.720   2.471  10.348  2.5602  1.1218  1.2868
  108OSM    C6S11097   4.761   2.418  10.137 -0.6781  0.4743 -0.5458
  108OSM    H6S11098   4.664   2.375  10.104 -0.2436 -1.1660  0.2310
  108OSM    H6T11099   4.836   2.346  10.098 -1.4133 -0.6269  0.0466
  108OSM    C7S11100   4.784   2.558  10.082  0.3173 -0.4696  0.3249
  108OSM    H7S11101   4.869   2.602  10.138 -0.7144  1.3141  0.5902
  108OSM    H7T11102   4.701   2.629  10.103  0.7217  0.1311 -0.0756
  108OSM    C8S11103   4.813   2.547   9.931  0.2242 -1.1149 -0.5482
  108OSM    H8S11104   4.903   2.484   9.915 -0.7265 -2.4454 -0.8181
  108OSM    H8T11105   4.849   2.644   9.889  1.2917 -1.2353  0.0427
  108OSM    C9S11106   4.691   2.479   9.856  0.3839  0.0185  0.1013
  108OSM    H9S11107   4.593   2.514   9.896  0.8919  0.5295  0.9324
  108OSM    H9T11108   4.689   2.370   9.875  1.1112 -0.0729 -0.3044
  108OSM   C10S11109   4.702   2.497   9.708 -0.4652 -0.7226  0.6082
  108OSM   H10S11110   4.785   2.435   9.668  0.2379  0.9956 -0.6581
  108OSM   H10T11111   4.729   2.603   9.692 -1.4820 -0.7619 -1.8037
  108OSM   C11S11112   4.578   2.470   9.617 -0.3587 -0.2553 -0.5015
  108OSM   H11S11113   4.490   2.521   9.662 -0.7048 -2.1177  1.0413
  108OSM   H11T11114   4.560   2.361   9.615  1.4180 -0.5666 -1.5670
  108OSM   C12S11115   4.602   2.534   9.480  0.2678 -0.0292  0.4474
  108OSM   H12S11116   4.649   2.635   9.492  0.9176 -0.4024  1.1206
  108OSM   H12T11117   4.501   2.545   9.434 -0.0893  0.4552  1.3215
  108OSM   C13S11118   4.684   2.445   9.381  0.3463  0.4665 -0.0846
  108OSM   H13S11119   4.627   2.350   9.377  1.9163 -0.4944 -0.8544
  108OSM   H13T11120   4.788   2.429   9.417  0.3345  1.3447  0.3478
  108OSM   C14S11121   4.701   2.497   9.238  0.6305  0.0660 -0.1108
  108OSM   H14S11122   4.722   2.606   9.231  0.2669  0.1172 -0.4181
  108OSM   H14T11123   4.606   2.469   9.188 -0.8396 -1.2657  3.1195
  108OSM   C15S11124   4.818   2.425   9.167 -0.6565  0.1332 -0.1412
  108OSM   H15S11125   4.821   2.314   9.177 -1.3635  0.1466  0.3061
  108OSM   H15T11126   4.907   2.469   9.217 -0.0346 -0.4955 -0.6784
  108OSM   C16S11127   4.825   2.459   9.015  0.3408  1.0881 -0.6918
  108OSM   H16S11128   4.808   2.569   9.009 -3.2388  0.6492 -0.6454
  108OSM   H16T11129   4.736   2.415   8.967 -0.0005 -1.5985  2.0885
  108OSM   C17S11130   4.952   2.412   8.939  0.1163 -0.2722  0.1285
  108OSM   H17S11131   4.974   2.310   8.976  0.9668 -0.8280 -1.7811
  108OSM   H17T11132   5.045   2.469   8.961 -0.3497 -0.1233  1.8522
  108OSM   C18S11133   4.928   2.384   8.783  0.3406 -0.3292 -0.2434
  108OSM   H18S11134   4.998   2.302   8.754  2.2349  0.9612  0.5235
  108OSM   H18T11135   4.962   2.470   8.722  0.2630 -1.5356 -2.0690
  108OSM   H18U11136   4.821   2.357   8.764 -0.5920  2.3915  0.7321
  108OSM    C1F11137   5.152   2.532  10.462  0.0824 -0.3254 -0.0565
  108OSM     OF11138   5.252   2.463  10.457 -0.2456 -0.0572 -0.2180
  108OSM    C2F11139   5.167   2.680  10.465 -0.1023  0.1209  0.0464
  108OSM    H2F11140   5.220   2.709  10.558 -2.1702  1.7105  0.7922
  108OSM    H2G11141   5.064   2.720  10.471 -0.1220 -0.1745  2.8087
  108OSM    C3F11142   5.236   2.726  10.336 -0.3443 -0.1030  0.2102
  108OSM    H3F11143   5.336   2.678  10.327  0.5557  1.7936 -0.6557
  108OSM    H3G11144   5.268   2.831  10.351 -0.7124  0.1412 -0.6389
  108OSM    C4F11145   5.145   2.721  10.205  0.2213  0.1751  0.2795
  108OSM    H4F11146   5.051   2.778  10.221 -1.0828 -0.7562 -3.2072
  108OSM    H4G11147   5.123   2.613  10.190 -0.1957  0.5400 -2.2304
  108OSM    C5F11148   5.222   2.775  10.076 -0.6680 -0.1830  0.7580
  108OSM    H5F11149   5.318   2.722  10.059  0.1144  1.2009  0.7029
  108OSM    H5G11150   5.250   2.881  10.097 -0.6061  0.3372 -1.7257
  108OSM    C6F11151   5.146   2.786   9.950 -0.0228 -0.6337 -0.4212
  108OSM    H6F11152   5.069   2.861   9.980  1.6097 -0.1772  3.2494
  108OSM    H6G11153   5.114   2.682   9.929  0.1896 -0.6356 -0.7365
  108OSM    C7F11154   5.231   2.836   9.833 -0.0684 -0.1449 -0.0451
  108OSM    H7F11155   5.313   2.766   9.805  1.0677  1.6254 -1.4261
  108OSM    H7G11156   5.281   2.923   9.882  0.1448 -0.8996  1.1045
  108OSM    C8F11157   5.141   2.877   9.710  0.0875  0.3070 -0.4881
  108OSM    H8F11158   5.211   2.927   9.640 -0.1447  2.0886  0.4954
  108OSM    H8G11159   5.066   2.956   9.730 -0.4984 -0.2544 -0.4501
  108OSM    C9F11160   5.066   2.768   9.636  0.7541 -0.7077  0.3645
  108OSM    H9F11161   5.095   2.665   9.664  1.8340 -0.6429 -0.4744
  108OSM   C10F11162   4.993   2.785   9.524  0.2150 -0.4024  0.4616
  108OSM   H10F11163   4.947   2.699   9.473 -0.5851  0.9448 -1.2097
  108OSM   C11F11164   4.971   2.920   9.455 -0.0445 -0.0002 -0.3511
  108OSM   H11F11165   5.066   2.930   9.399  0.9502 -0.1253  1.2524
  108OSM   H11G11166   4.965   3.011   9.518  2.2266  0.4801 -0.7345
  108OSM   C12F11167   4.845   2.903   9.362  0.6251  0.6168 -0.0058
  108OSM   H12F11168   4.760   2.865   9.422  0.9039 -2.9396 -1.6185
  108OSM   H12G11169   4.860   2.813   9.299 -1.9149 -0.1895  0.4472
  108OSM   C13F11170   4.824   3.034   9.291  0.3879 -0.3676 -0.2534
  108OSM   H13F11171   4.838   3.121   9.359 -1.2884 -1.3482  1.4463
  108OSM   H13G11172   4.719   3.038   9.254  0.0496  2.4784  0.7261
  108OSM   C14F11173   4.906   3.050   9.170 -0.0179  0.1776  1.0002
  108OSM   H14F11174   4.890   2.960   9.107  0.0280 -0.3188  1.6839
  108OSM   H14G11175   5.016   3.046   9.179  0.1462  2.0410  0.2321
  108OSM   C15F11176   4.871   3.170   9.084  0.2921 -1.2769 -0.4644
  108OSM   H15F11177   4.865   3.262   9.147 -1.4974 -2.6988  1.5993
  108OSM   H15G11178   4.770   3.160   9.039  0.2525 -0.4246 -0.5924
  108OSM   C16F11179   4.963   3.198   8.961 -0.1700  0.1584 -0.5113
  108OSM   H16F11180   5.055   3.252   8.991  0.0620  0.7861 -2.2200
  108OSM   H16G11181   4.899   3.264   8.899 -1.1370  1.5564  1.8431
  108OSM   C17F11182   5.002   3.068   8.885  0.4024 -0.2465  0.0312
  108OSM   H17F11183   4.901   3.022   8.876 -0.4681  1.3680  0.9501
  108OSM   H17G11184   5.065   3.008   8.954 -2.2954 -0.5956  2.3813
  108OSM   C18F11185   5.065   3.091   8.749 -0.1423  0.2881  0.0568
  108OSM   H18F11186   5.016   3.178   8.703 -0.4748 -0.5894 -1.2937
  108OSM   H18G11187   5.048   3.002   8.685  0.8610 -1.1998  1.7360
  108OSM   H18H11188   5.172   3.120   8.751 -0.5064  1.8361 -0.9588
  109OSM      N11189   0.257   4.429  10.880  0.1136  0.3234  0.4393
  109OSM    C1511190   0.339   4.369  10.988 -0.2759 -0.5998  0.0693
  109OSM   H15A11191   0.320   4.424  11.079  1.6595 -1.5975  1.1278
  109OSM   H15B11192   0.445   4.364  10.970 -0.1885  0.2939  0.2837
  109OSM   H15C11193   0.310   4.266  11.003 -1.6179 -0.1260  0.9228
  109OSM    C1411194   0.116   4.440  10.922 -0.0668 -0.4600  0.0289
  109OSM   H14A11195   0.058   4.496  10.850 -0.7127  0.5868  1.3000
  109OSM   H14B11196   0.109   4.497  11.014  1.6600  1.7895 -1.1349
  109OSM   H14C11197   0.064   4.346  10.928  2.5793 -1.9490  1.0501
  109OSM    C1311198   0.308   4.568  10.863  0.0077  0.0262  0.5635
  109OSM   H13A11199   0.407   4.574  10.820 -0.1817  0.4946  0.1750
  109OSM   H13B11200   0.317   4.614  10.960  1.1290  0.9143  0.0621
  109OSM   H13C11201   0.244   4.604  10.783  1.2917  0.0379 -0.5053
  109OSM    C1211202   0.278   4.344  10.752  0.0840 -0.3783 -0.2088
  109OSM   H12A11203   0.228   4.251  10.775  1.1485 -1.3317 -1.5592
  109OSM   H12B11204   0.385   4.336  10.737 -0.2303 -1.9109 -1.8996
  109OSM    C1111205   0.222   4.397  10.625 -0.0256 -0.4225 -0.0381
  109OSM   H11A11206   0.234   4.333  10.535 -0.2454  0.9550 -1.0672
  109OSM   H11B11207   0.290   4.482  10.608 -0.2495 -0.1645  0.3227
  109OSM      P11208  -0.023   4.305  10.619  0.0334  0.0318 -0.1929
  109OSM    O1311209   0.046   4.179  10.652  0.5143 -0.0767  0.7168
  109OSM    O1411210  -0.154   4.339  10.676 -0.7898 -0.3131  0.4481
  109OSM    O1111211  -0.044   4.298  10.461  0.0899  0.0540 -0.6074
  109OSM    O1211212   0.077   4.424  10.637 -0.5676 -0.0052  0.3356
  109OSM    C1S11213  -0.072   4.423  10.408  0.1028 -0.5114  0.4235
  109OSM    H1S11214   0.026   4.475  10.403  0.2713 -0.8286  0.3844
  109OSM    H1T11215  -0.148   4.471  10.472 -0.5223 -2.9215  1.6144
  109OSM     NF11216  -0.164   4.526  10.209  0.0571  0.5121  0.1017
  109OSM    HNF11217  -0.261   4.550  10.212  0.2694  1.2769  2.5105
  109OSM    C2S11218  -0.130   4.394  10.269  0.3389 -0.0177  0.6585
  109OSM    H2S11219  -0.051   4.344  10.210 -0.1482  0.5009 -0.4552
  109OSM    C3S11220  -0.243   4.288  10.266  0.2586 -0.2658 -0.0677
  109OSM    H3S11221  -0.329   4.331  10.322 -0.5304 -1.5114 -0.2938
  109OSM     O311222  -0.218   4.164  10.330 -0.4848 -0.0172  0.1143
  109OSM    HO311223  -0.145   4.178  10.390  0.9126 -1.6430 -1.1145
  109OSM    C4S11224  -0.287   4.246  10.130  0.2207 -0.1050  1.1122
  109OSM    H4S11225  -0.387   4.283  10.105  1.4555  1.8786 -1.4844
  109OSM    C5S11226  -0.226   4.158  10.047  0.1964 -0.6883  0.6174
  109OSM    H5S11227  -0.129   4.111  10.072  2.9330  2.1431 -3.4370
  109OSM    C6S11228  -0.282   4.115   9.911  0.1833  0.0621  0.3604
  109OSM    H6S11229  -0.388   4.084   9.917  0.3184 -0.3902  0.3927
  109OSM    H6T11230  -0.231   4.027   9.867  1.3436  0.8606  0.0604
  109OSM    C7S11231  -0.282   4.226   9.797  0.3428 -1.2670 -0.6468
  109OSM    H7S11232  -0.186   4.279   9.781 -1.3569  1.8986 -1.1858
  109OSM    H7T11233  -0.350   4.309   9.827  0.0619 -0.8732 -2.2637
  109OSM    C8S11234  -0.321   4.154   9.670 -0.5271 -0.1918 -0.2548
  109OSM    H8S11235  -0.371   4.059   9.698 -2.1578  0.5324 -0.6013
  109OSM    H8T11236  -0.231   4.127   9.611 -1.3795 -1.6047 -0.9398
  109OSM    C9S11237  -0.404   4.247   9.584 -0.1372 -0.5526  0.3902
  109OSM    H9S11238  -0.335   4.317   9.533  0.8879 -1.4554  0.5062
  109OSM    H9T11239  -0.478   4.310   9.636 -2.0503  1.1633 -3.8936
  109OSM   C10S11240  -0.473   4.167   9.475 -0.7285  1.3982 -0.8608
  109OSM   H10S11241  -0.519   4.245   9.410  0.0270  1.4390 -1.3557
  109OSM   H10T11242  -0.544   4.105   9.534 -1.4222  1.8524 -1.1975
  109OSM   C11S11243  -0.372   4.090   9.388  0.4244  0.6891  0.0848
  109OSM   H11S11244  -0.323   4.002   9.434 -0.3890 -1.3477 -2.6439
  109OSM   H11T11245  -0.284   4.156   9.373  2.5369 -2.5218 -3.3170
  109OSM   C12S11246  -0.422   4.029   9.251  0.2907  0.1836 -0.5146
  109OSM   H12S11247  -0.331   4.010   9.190  1.5174 -0.1728  1.3467
  109OSM   H12T11248  -0.478   4.110   9.199 -2.2477 -1.1715 -0.0878
  109OSM   C13S11249  -0.504   3.905   9.271  0.8490 -0.2522  0.1086
  109OSM   H13S11250  -0.591   3.930   9.336  0.7567  0.7864 -0.3829
  109OSM   H13T11251  -0.452   3.828   9.331  0.4024 -1.1473 -0.6217
  109OSM   C14S11252  -0.539   3.830   9.140  0.5419 -0.2919 -0.0749
  109OSM   H14S11253  -0.616   3.755   9.170 -2.0674  1.5998 -1.6202
  109OSM   H14T11254  -0.445   3.775   9.118  1.1166  0.3680  0.6754
  109OSM   C15S11255  -0.600   3.910   9.022  0.1123 -0.0086  0.1844
  109OSM   H15S11256  -0.530   3.922   8.937 -0.0631 -0.2477  0.0084
  109OSM   H15T11257  -0.616   4.015   9.056 -1.8933  0.5365 -2.2373
  109OSM   C16S11258  -0.722   3.832   8.965  0.0341 -0.4999  0.1537
  109OSM   H16S11259  -0.761   3.887   8.876 -0.4214  0.3440  0.8619
  109OSM   H16T11260  -0.804   3.812   9.037 -0.4888  0.3682 -0.1760
  109OSM   C17S11261  -0.679   3.693   8.913  0.1152  0.0407  0.5598
  109OSM   H17S11262  -0.650   3.634   9.003 -2.5682 -0.4233  1.2028
  109OSM   H17T11263  -0.595   3.704   8.841 -1.3675 -2.7910 -1.7815
  109OSM   C18S11264  -0.792   3.624   8.836 -0.3885  0.1767  1.0034
  109OSM   H18S11265  -0.752   3.536   8.781 -1.1958  0.0058  0.6716
  109OSM   H18T11266  -0.842   3.691   8.763 -0.9030 -2.0647 -0.8173
  109OSM   H18U11267  -0.867   3.596   8.913 -0.4887 -1.3090  0.3997
  109OSM    C1F11268  -0.083   4.607  10.143 -0.5685  0.2237  0.1208
  109OSM     OF11269   0.042   4.601  10.149  0.4170 -0.3021 -0.1148
  109OSM    C2F11270  -0.141   4.705  10.052  0.1589  0.5618  0.2194
  109OSM    H2F11271  -0.080   4.797  10.061  1.2115 -0.0519 -0.3605
  109OSM    H2G11272  -0.248   4.722  10.078  0.5327  0.7287  1.7023
  109OSM    C3F11273  -0.136   4.646   9.911  0.2859  0.3197  0.2930
  109OSM    H3F11274  -0.180   4.545   9.896  2.9316 -0.6937 -1.3904
  109OSM    H3G11275  -0.028   4.636   9.888  0.1213 -0.3285 -0.2157
  109OSM    C4F11276  -0.197   4.741   9.805 -0.9014  0.6007 -0.9606
  109OSM    H4F11277  -0.122   4.822   9.792 -1.1529  0.7090 -1.8410
  109OSM    H4G11278  -0.295   4.787   9.832 -1.4931  0.9271 -3.3679
  109OSM    C5F11279  -0.212   4.671   9.672  0.2620  0.5591  0.1927
  109OSM    H5F11280  -0.284   4.587   9.674 -2.6581  2.9299  1.2628
  109OSM    H5G11281  -0.115   4.625   9.641  0.3145 -0.2640  1.5175
  109OSM    C6F11282  -0.259   4.765   9.562 -0.6683  0.4108  0.5845
  109OSM    H6F11283  -0.172   4.833   9.556  0.0354 -0.5333 -0.2748
  109OSM    H6G11284  -0.346   4.824   9.598 -3.2901 -1.1154 -2.7099
  109OSM    C7F11285  -0.293   4.691   9.436  0.4948  0.1232 -0.0788
  109OSM    H7F11286  -0.390   4.637   9.443  0.2505  0.3174 -1.6503
  109OSM    H7G11287  -0.212   4.619   9.414  1.5036  1.4448 -0.7869
  109OSM    C8F11288  -0.302   4.787   9.316 -0.6139 -0.9498 -0.2484
  109OSM    H8F11289  -0.348   4.881   9.355  1.8836  0.2351  0.0389
  109OSM    H8G11290  -0.367   4.730   9.246  0.2650 -1.9711 -0.2631
  109OSM    C9F11291  -0.169   4.817   9.260 -0.4799  0.3273 -0.0315
  109OSM    H9F11292  -0.108   4.860   9.340  0.0824 -0.0075 -0.2754
  109OSM   C10F11293  -0.117   4.795   9.140  0.1363  0.0251  0.1339
  109OSM   H10F11294  -0.013   4.820   9.116 -0.8210  3.6427 -0.7710
  109OSM   C11F11295  -0.195   4.716   9.040 -0.5762  0.3417  0.4930
  109OSM   H11F11296  -0.277   4.656   9.085  1.1049 -1.8265  0.8288
  109OSM   H11G11297  -0.120   4.649   8.994  1.0664  2.1435  0.4154
  109OSM   C12F11298  -0.255   4.813   8.942  0.6157  0.0303  0.0909
  109OSM   H12F11299  -0.171   4.879   8.912  0.4531 -0.6206 -1.9906
  109OSM   H12G11300  -0.329   4.873   9.000  1.6057  2.3432 -0.9202
  109OSM   C13F11301  -0.314   4.753   8.813 -0.0710 -0.0452  0.1437
  109OSM   H13F11302  -0.347   4.842   8.755  1.8943 -0.5424 -1.8562
  109OSM   H13G11303  -0.400   4.685   8.830  1.0738 -1.3939  0.6576
  109OSM   C14F11304  -0.234   4.665   8.725  0.0992  0.0014 -0.5506
  109OSM   H14F11305  -0.315   4.633   8.656  0.4843 -0.7041 -0.6750
  109OSM   H14G11306  -0.185   4.578   8.773  2.5725  1.9527  0.6772
  109OSM   C15F11307  -0.116   4.741   8.658 -0.2068  0.7398 -0.6156
  109OSM   H15F11308  -0.019   4.722   8.708  0.4245 -1.1981 -2.4087
  109OSM   H15G11309  -0.129   4.851   8.657  1.0466  0.9526  1.4336
  109OSM   C16F11310  -0.107   4.692   8.506  0.3034 -0.3337  0.9426
  109OSM   H16F11311  -0.023   4.752   8.466 -0.6974  1.1811  1.0052
  109OSM   H16G11312  -0.200   4.725   8.456  1.8413  1.8611 -0.6490
  109OSM   C17F11313  -0.087   4.541   8.488  0.5343  0.2867 -0.6928
  109OSM   H17F11314  -0.178   4.482   8.514 -0.6297  1.5936 -1.6972
  109OSM   H17G11315  -0.003   4.513   8.555  0.8655  1.2970 -0.6728
  109OSM   C18F11316  -0.049   4.511   8.341  0.6131  0.2730  0.1394
  109OSM   H18F11317  -0.020   4.404   8.334  1.9106  0.4876  1.7106
  109OSM   H18G11318   0.018   4.585   8.293 -0.7416  0.8303 -0.9722
  109OSM   H18H11319  -0.143   4.526   8.284 -0.1757 -1.8258  0.7960
  110OSM      N11320   0.403   2.057  10.816  0.0410 -0.2468  0.0333
  110OSM    C1511321   0.538   2.001  10.764 -0.3813 -0.3912  0.0207
  110OSM   H15A11322   0.524   1.929  10.684  1.4344 -0.0961 -0.6226
  110OSM   H15B11323   0.599   1.970  10.847  2.1809 -0.3094 -1.6994
  110OSM   H15C11324   0.594   2.076  10.710  1.0232 -0.6666  1.0290
  110OSM    C1411325   0.298   2.073  10.709 -0.3387  0.3337  0.0672
  110OSM   H14A11326   0.353   2.084  10.617 -1.3593 -0.8259 -0.6987
  110OSM   H14B11327   0.235   2.159  10.728 -1.2012  0.0977 -1.6023
  110OSM   H14C11328   0.252   1.977  10.695  2.2195 -1.5954  3.3521
  110OSM    C1311329   0.349   1.971  10.926 -0.5496 -0.3543  0.7698
  110OSM   H13A11330   0.273   2.026  10.979  0.7859  3.2815 -0.7430
  110OSM   H13B11331   0.421   1.945  11.003  0.2398  0.5027  0.3426
  110OSM   H13C11332   0.319   1.874  10.887  2.0089 -0.8327 -0.2419
  110OSM    C1211333   0.431   2.199  10.861  0.0393 -0.7773  0.7604
  110OSM   H12A11334   0.512   2.204  10.932  1.8700 -1.6217 -1.1546
  110OSM   H12B11335   0.341   2.234  10.909 -0.5151 -1.3800  0.1848
  110OSM    C1111336   0.469   2.304  10.749  0.4171  0.7281 -0.2428
  110OSM   H11A11337   0.461   2.396  10.810  1.4023  1.0335 -0.5656
  110OSM   H11B11338   0.380   2.314  10.682 -0.7211  0.4162  1.1743
  110OSM      P11339   0.731   2.358  10.688  0.3177 -0.0408 -0.1815
  110OSM    O1311340   0.766   2.388  10.827 -0.0927 -0.1370 -0.3753
  110OSM    O1411341   0.828   2.290  10.603 -0.1214 -0.0320  1.0375
  110OSM    O1111342   0.689   2.500  10.633 -0.4749 -0.5303  0.6432
  110OSM    O1211343   0.588   2.285  10.678  0.0632 -0.8948  0.1565
  110OSM    C1S11344   0.758   2.545  10.517  0.0217  0.3973 -0.6185
  110OSM    H1S11345   0.744   2.469  10.436 -0.7880 -0.7459  0.5499
  110OSM    H1T11346   0.867   2.561  10.531  0.0061  0.5639 -0.6853
  110OSM     NF11347   0.744   2.697  10.322 -0.3871 -0.6028  0.6165
  110OSM    HNF11348   0.825   2.754  10.311 -1.8030  1.5427  0.6759
  110OSM    C2S11349   0.693   2.679  10.454 -0.5604  0.1882 -1.2569
  110OSM    H2S11350   0.582   2.673  10.448 -0.6470 -0.1214  0.1459
  110OSM    C3S11351   0.728   2.789  10.561  0.4380  0.6588  0.0710
  110OSM    H3S11352   0.838   2.787  10.576  0.3016 -0.6396  1.0999
  110OSM     O311353   0.689   2.765  10.695  0.6897 -0.0564 -0.0501
  110OSM    HO311354   0.685   2.669  10.696  3.1274 -0.3167 -2.4714
  110OSM    C4S11355   0.660   2.915  10.520  0.3690  0.7945  0.7638
  110OSM    H4S11356   0.567   2.888  10.468  0.9723  0.8481 -0.3885
  110OSM    C5S11357   0.692   3.043  10.530 -1.3226 -0.0297 -0.6632
  110OSM    H5S11358   0.788   3.069  10.577 -2.3472  1.4040  0.7240
  110OSM    C6S11359   0.610   3.153  10.480 -0.1822 -0.6621  0.1339
  110OSM    H6S11360   0.556   3.200  10.565  0.5747  0.0933  0.2027
  110OSM    H6T11361   0.528   3.114  10.416 -0.2556  0.3445 -0.4137
  110OSM    C7S11362   0.685   3.251  10.396 -0.1177 -0.5054  0.1145
  110OSM    H7S11363   0.779   3.292  10.438 -0.3737  1.2648 -0.9279
  110OSM    H7T11364   0.618   3.340  10.391 -1.1546 -1.3051 -0.8017
  110OSM    C8S11365   0.701   3.202  10.250 -0.3678 -0.0486  0.6890
  110OSM    H8S11366   0.608   3.146  10.228  0.3908 -1.2310  0.3521
  110OSM    H8T11367   0.775   3.119  10.242 -1.2645 -0.8252  0.3782
  110OSM    C9S11368   0.729   3.311  10.144 -0.2907  0.1319  0.3369
  110OSM    H9S11369   0.814   3.371  10.181 -0.0325 -1.1485  1.9477
  110OSM    H9T11370   0.636   3.370  10.161  0.0731  0.6270  0.6151
  110OSM   C10S11371   0.748   3.257   9.999 -0.2925 -0.2569 -0.1414
  110OSM   H10S11372   0.701   3.337   9.937 -1.0790 -0.7463 -0.1828
  110OSM   H10T11373   0.684   3.169   9.980  0.8734 -1.4573  1.2755
  110OSM   C11S11374   0.899   3.229   9.965 -0.4556 -0.4502 -0.1100
  110OSM   H11S11375   0.952   3.224  10.062  3.4407 -2.3007 -2.1000
  110OSM   H11T11376   0.942   3.315   9.908 -0.5987 -0.6487 -0.5178
  110OSM   C12S11377   0.920   3.102   9.891 -0.5284 -0.4252 -0.1355
  110OSM   H12S11378   0.885   3.107   9.785  0.5486  1.3134 -0.4580
  110OSM   H12T11379   0.854   3.026   9.938 -1.8077 -0.0578 -1.2494
  110OSM   C13S11380   1.061   3.052   9.883 -0.9903 -0.2579 -0.0947
  110OSM   H13S11381   1.108   3.071   9.982 -1.2315 -1.7775  0.3313
  110OSM   H13T11382   1.109   3.128   9.817 -0.1136  0.2460  1.0767
  110OSM   C14S11383   1.071   2.919   9.813 -0.7158  0.2410  0.0963
  110OSM   H14S11384   0.973   2.867   9.821 -1.1721  1.3315  3.0328
  110OSM   H14T11385   1.146   2.855   9.864  0.6086  4.8201  4.8235
  110OSM   C15S11386   1.124   2.932   9.668 -0.5966  0.5855  1.1391
  110OSM   H15S11387   1.232   2.961   9.672 -0.2365 -0.6686  0.9592
  110OSM   H15T11388   1.053   2.999   9.615 -1.4050 -2.3179 -1.7687
  110OSM   C16S11389   1.126   2.809   9.576 -0.1021  0.1869 -1.3600
  110OSM   H16S11390   1.031   2.753   9.581  0.5801 -0.8922  2.3089
  110OSM   H16T11391   1.202   2.747   9.628  0.3553  3.6828  2.6071
  110OSM   C17S11392   1.159   2.844   9.433 -0.1451  0.2126  0.0050
  110OSM   H17S11393   1.227   2.765   9.393 -1.4193 -0.8314 -0.1439
  110OSM   H17T11394   1.227   2.931   9.435  1.1140 -0.7446  0.4934
  110OSM   C18S11395   1.044   2.867   9.338  0.1976  0.2167  0.0885
  110OSM   H18S11396   0.976   2.947   9.376 -1.2474 -0.1765 -1.5222
  110OSM   H18T11397   0.972   2.782   9.336  0.1892  0.2206  0.2237
  110OSM   H18U11398   1.087   2.894   9.239  0.6651  0.9355  0.4769
  110OSM    C1F11399   0.688   2.633  10.224  0.0994  0.1657 -0.1860
  110OSM     OF11400   0.579   2.584  10.238  0.0562 -0.1637  0.5553
  110OSM    C2F11401   0.770   2.633  10.098  0.0736  0.4828 -0.6166
  110OSM    H2F11402   0.823   2.536  10.101 -0.9364 -0.0722 -0.2817
  110OSM    H2G11403   0.824   2.730  10.095  0.9367  0.0045 -0.7818
  110OSM    C3F11404   0.681   2.612   9.973  0.4638  0.1526  0.0887
  110OSM    H3F11405   0.601   2.688   9.976  0.0532 -0.2360 -0.7760
  110OSM    H3G11406   0.644   2.507   9.971  0.3026  0.2213 -0.4338
  110OSM    C4F11407   0.757   2.642   9.849  0.1842  0.0195  0.2325
  110OSM    H4F11408   0.817   2.555   9.813  1.5129  0.8762  0.3051
  110OSM    H4G11409   0.823   2.731   9.839  0.5386 -0.4724 -2.5224
  110OSM    C5F11410   0.657   2.664   9.736 -0.1016 -0.2575 -0.1938
  110OSM    H5F11411   0.609   2.763   9.754  0.4974  0.3077 -1.6043
  110OSM    H5G11412   0.578   2.586   9.733  0.0571 -0.3862 -1.0388
  110OSM    C6F11413   0.722   2.670   9.597 -0.4421  0.7588  0.4035
  110OSM    H6F11414   0.782   2.577   9.589 -0.6628  0.5859  0.7205
  110OSM    H6G11415   0.791   2.757   9.605 -1.7878  1.7969  1.1066
  110OSM    C7F11416   0.630   2.668   9.474  0.1176  0.2801  0.2891
  110OSM    H7F11417   0.543   2.733   9.495 -0.1757  0.3054 -0.9171
  110OSM    H7G11418   0.585   2.566   9.472 -1.9291  1.1044 -2.9311
  110OSM    C8F11419   0.691   2.710   9.344 -0.5348  0.1553 -0.1824
  110OSM    H8F11420   0.782   2.648   9.336 -1.2869 -1.4533  2.4058
  110OSM    H8G11421   0.712   2.818   9.356 -0.3703  0.0127  0.9967
  110OSM    C9F11422   0.618   2.671   9.226  0.9360 -0.0485  0.0938
  110OSM    H9F11423   0.518   2.628   9.243  1.7221 -2.0710 -0.1629
  110OSM   C10F11424   0.658   2.695   9.102  0.1995 -0.4833  0.1919
  110OSM   H10F11425   0.611   2.655   9.011  0.3405  1.6472 -0.8611
  110OSM   C11F11426   0.777   2.772   9.070 -0.1970  0.2807 -0.2767
  110OSM   H11F11427   0.814   2.748   8.969 -0.4554  1.4454 -0.6639
  110OSM   H11G11428   0.857   2.743   9.141  0.3564  1.4570 -0.3918
  110OSM   C12F11429   0.750   2.922   9.086 -0.0703 -0.2234 -0.2370
  110OSM   H12F11430   0.847   2.973   9.105 -0.5808  0.6030  0.1625
  110OSM   H12G11431   0.689   2.952   9.173 -2.7410  0.1908 -2.1351
  110OSM   C13F11432   0.703   2.985   8.952 -0.3574  0.1761  0.5613
  110OSM   H13F11433   0.601   2.954   8.922 -0.2474 -0.8810  1.2286
  110OSM   H13G11434   0.782   2.954   8.880 -2.3471 -0.4193 -1.4969
  110OSM   C14F11435   0.696   3.141   8.958 -0.1113  0.5992  0.5817
  110OSM   H14F11436   0.789   3.172   9.009  0.3797  1.0933 -0.5945
  110OSM   H14G11437   0.607   3.164   9.021  0.5300  3.2329  0.6472
  110OSM   C15F11438   0.674   3.193   8.820  0.6244  0.4838  0.1051
  110OSM   H15F11439   0.605   3.132   8.757  3.0796 -1.0661 -1.2264
  110OSM   H15G11440   0.773   3.191   8.769  0.0511  0.9186 -1.0647
  110OSM   C16F11441   0.628   3.335   8.822  0.0215  0.1608  0.1676
  110OSM   H16F11442   0.679   3.390   8.904  0.1152  0.7310 -0.2589
  110OSM   H16G11443   0.523   3.346   8.857  0.1820  1.3171  0.3498
  110OSM   C17F11444   0.650   3.415   8.699 -0.0096  0.4715  0.5332
  110OSM   H17F11445   0.619   3.520   8.721 -0.4324  0.0955  1.8457
  110OSM   H17G11446   0.584   3.372   8.621 -1.4913 -0.1955  2.0806
  110OSM   C18F11447   0.789   3.409   8.644 -0.0783  0.1545  1.0237
  110OSM   H18F11448   0.834   3.308   8.635  0.1856  0.4558 -1.9203
  110OSM   H18G11449   0.862   3.468   8.704  1.5039 -2.1736  1.5352
  110OSM   H18H11450   0.802   3.444   8.539  3.0613 -1.5573  0.7184
  111OSM      N11451   0.722   5.111  10.976 -0.4615  0.1015  0.1890
  111OSM    C1511452   0.738   5.011  11.076 -0.2333  0.2082  0.0375
  111OSM   H15A11453   0.790   5.045  11.165  1.5936 -1.4526 -0.3097
  111OSM   H15B11454   0.797   4.924  11.052 -0.6951 -0.4531  1.1919
  111OSM   H15C11455   0.647   4.954  11.091 -0.5803  0.4102 -1.2446
  111OSM    C1411456   0.603   5.194  11.025  0.3117 -0.3680 -0.7304
  111OSM   H14A11457   0.509   5.141  11.027  0.8674 -1.3629  0.4134
  111OSM   H14B11458   0.593   5.284  10.966 -1.7005 -0.6099 -0.7985
  111OSM   H14C11459   0.623   5.224  11.128  0.7997  1.0799 -1.2133
  111OSM    C1311460   0.845   5.199  10.968  0.5298 -0.9997 -0.2403
  111OSM   H13A11461   0.830   5.296  10.922  0.2049  0.0779  1.9826
  111OSM   H13B11462   0.925   5.159  10.908 -0.2636 -0.4751 -1.6779
  111OSM   H13C11463   0.889   5.222  11.065  0.1534 -1.7440  0.1125
  111OSM    C1211464   0.694   5.059  10.837  0.1535  0.5426  0.1291
  111OSM   H12A11465   0.673   5.133  10.761 -0.5029 -2.1447 -2.5050
  111OSM   H12B11466   0.605   4.999  10.844  1.5419 -1.7725 -0.7747
  111OSM    C1111467   0.798   4.963  10.773  0.3329  0.2888 -0.1945
  111OSM   H11A11468   0.897   5.011  10.787  0.6633 -0.6045  0.7132
  111OSM   H11B11469   0.766   4.957  10.667 -2.7389  2.2752  0.4988
  111OSM      P11470   0.684   4.728  10.824  0.0516 -0.2323  0.0823
  111OSM    O1311471   0.707   4.607  10.908 -0.2704 -0.6199  0.1316
  111OSM    O1411472   0.556   4.800  10.845 -0.2654 -0.0852 -0.1343
  111OSM    O1111473   0.689   4.689  10.674 -0.3709  0.2532  0.1677
  111OSM    O1211474   0.798   4.833  10.845  0.5145 -0.6030  0.0846
  111OSM    C1S11475   0.807   4.647  10.611 -1.1160  0.2813 -0.2993
  111OSM    H1S11476   0.843   4.554  10.659 -4.9879  0.3184  3.3018
  111OSM    H1T11477   0.888   4.723  10.608 -0.6064 -0.2354  0.2874
  111OSM     NF11478   0.867   4.536  10.391 -0.0994 -0.0556 -0.2284
  111OSM    HNF11479   0.941   4.593  10.355 -0.0208 -0.1053 -0.1471
  111OSM    C2S11480   0.766   4.609  10.465  0.3511 -0.8635  0.1629
  111OSM    H2S11481   0.677   4.543  10.478 -1.3726  0.0455 -4.7012
  111OSM    C3S11482   0.724   4.742  10.391  0.2431  0.0332 -1.2212
  111OSM    H3S11483   0.815   4.804  10.381  0.7489 -0.8246 -2.0502
  111OSM     O311484   0.630   4.823  10.465  0.2702  0.1074  0.1254
  111OSM    HO311485   0.635   4.788  10.554 -0.3374 -1.6634 -0.4803
  111OSM    C4S11486   0.667   4.716  10.249 -0.2554  0.1474  0.4040
  111OSM    H4S11487   0.573   4.659  10.257  0.8181 -1.8508 -0.4544
  111OSM    C5S11488   0.721   4.766  10.138  1.1753  0.2737  0.0856
  111OSM    H5S11489   0.816   4.819  10.154  1.6772 -0.8525  0.9506
  111OSM    C6S11490   0.682   4.740   9.998  0.4114  0.0963  0.0603
  111OSM    H6S11491   0.763   4.783   9.934 -0.3408  1.0896 -0.2485
  111OSM    H6T11492   0.598   4.809   9.978  0.5063  0.2760  0.2751
  111OSM    C7S11493   0.633   4.599   9.977  0.4606 -0.3779 -0.1895
  111OSM    H7S11494   0.549   4.592  10.049  1.4696 -2.7974  0.8905
  111OSM    H7T11495   0.702   4.515  10.000 -1.0773 -1.0859  2.2006
  111OSM    C8S11496   0.581   4.586   9.829 -0.2259  0.8170  0.2690
  111OSM    H8S11497   0.663   4.587   9.753  0.0545  3.5998  0.5226
  111OSM    H8T11498   0.520   4.675   9.804  0.2093  1.5825  1.8386
  111OSM    C9S11499   0.500   4.459   9.819  0.4886  0.2024  0.4562
  111OSM    H9S11500   0.414   4.465   9.890  1.4201 -1.1168  1.7416
  111OSM    H9T11501   0.561   4.370   9.844  1.5638  1.0498  0.9513
  111OSM   C10S11502   0.446   4.443   9.673 -0.2250  0.3763  0.0651
  111OSM   H10S11503   0.389   4.535   9.646 -3.6528 -0.8686  2.3454
  111OSM   H10T11504   0.375   4.358   9.683 -0.8144  1.0740  2.5220
  111OSM   C11S11505   0.544   4.409   9.564  0.6707 -0.2805  0.3309
  111OSM   H11S11506   0.583   4.306   9.579 -0.6646 -1.0106 -0.9283
  111OSM   H11T11507   0.634   4.472   9.578 -0.0471  1.1774 -1.2954
  111OSM   C12S11508   0.482   4.409   9.424 -0.4102 -0.2518 -0.5394
  111OSM   H12S11509   0.477   4.505   9.369 -0.3289 -0.0532 -0.2063
  111OSM   H12T11510   0.379   4.370   9.437 -0.2647  0.2779  3.8714
  111OSM   C13S11511   0.550   4.310   9.321  0.3162 -0.5027 -0.0805
  111OSM   H13S11512   0.556   4.208   9.364 -2.6974 -2.0840 -2.8822
  111OSM   H13T11513   0.656   4.341   9.309 -0.1825  1.0186 -0.8752
  111OSM   C14S11514   0.484   4.302   9.181 -1.1425 -1.1989  0.4460
  111OSM   H14S11515   0.491   4.402   9.134 -2.3959 -1.8287 -1.1645
  111OSM   H14T11516   0.377   4.274   9.175 -1.1368 -0.8475 -3.3793
  111OSM   C15S11517   0.560   4.207   9.082 -0.5330 -0.4939 -0.0495
  111OSM   H15S11518   0.576   4.103   9.119 -0.3374  0.1581  1.8382
  111OSM   H15T11519   0.663   4.242   9.063 -1.1078  1.3561  0.1154
  111OSM   C16S11520   0.494   4.212   8.938  0.2184  0.7864 -0.5529
  111OSM   H16S11521   0.484   4.316   8.902  0.7222  0.7376 -0.8524
  111OSM   H16T11522   0.389   4.177   8.937 -0.4792  2.8067 -0.7718
  111OSM   C17S11523   0.587   4.131   8.846 -0.0167  0.2118  0.5886
  111OSM   H17S11524   0.521   4.082   8.771 -0.9921  1.0242  0.8730
  111OSM   H17T11525   0.640   4.048   8.897 -1.3671 -0.3420  1.1433
  111OSM   C18S11526   0.696   4.211   8.777  0.3838  0.3145 -0.0337
  111OSM   H18S11527   0.788   4.205   8.839 -1.2811 -2.8802  2.4731
  111OSM   H18T11528   0.658   4.314   8.760 -0.6866 -0.2531 -1.2493
  111OSM   H18U11529   0.722   4.171   8.677  1.6389  2.3975 -0.6060
  111OSM    C1F11530   0.890   4.407  10.422 -0.2629  0.6311  0.1553
  111OSM     OF11531   0.820   4.344  10.498  0.3892 -0.2077  0.0347
  111OSM    C2F11532   1.015   4.341  10.362 -0.2124  0.8342  0.1434
  111OSM    H2F11533   1.096   4.325  10.437  1.7871  1.1399 -1.8306
  111OSM    H2G11534   1.059   4.405  10.282 -1.2789 -1.7971 -2.7616
  111OSM    C3F11535   0.977   4.213  10.278 -0.3232 -0.5674 -1.2879
  111OSM    H3F11536   0.933   4.135  10.345 -0.4902  0.0050 -0.7139
  111OSM    H3G11537   1.067   4.162  10.238  0.2393 -1.2381  0.6867
  111OSM    C4F11538   0.872   4.238  10.167  0.6476  0.6615 -0.3322
  111OSM    H4F11539   0.895   4.328  10.107 -0.6008  1.1210 -0.1443
  111OSM    H4G11540   0.770   4.249  10.208  0.0609  0.3812 -1.6877
  111OSM    C5F11541   0.859   4.117  10.072 -0.7134 -0.0634  0.7044
  111OSM    H5F11542   0.817   4.040  10.141 -1.7993  0.0469  0.1874
  111OSM    H5G11543   0.957   4.095  10.023 -1.7681 -0.6081 -1.2547
  111OSM    C6F11544   0.758   4.139   9.957 -0.5777  0.3149 -0.8930
  111OSM    H6F11545   0.792   4.204   9.874 -2.2329  0.5711 -1.4003
  111OSM    H6G11546   0.665   4.181   9.999 -1.3080 -1.5439 -0.5488
  111OSM    C7F11547   0.695   4.000   9.906 -0.9056  0.3724 -0.4487
  111OSM    H7F11548   0.642   3.947   9.987  0.4599  0.5894  0.6286
  111OSM    H7G11549   0.780   3.936   9.875  1.1617  2.4841  0.4751
  111OSM    C8F11550   0.599   4.025   9.785 -0.1566  0.2517  0.2930
  111OSM    H8F11551   0.658   4.013   9.692 -1.7046  0.8662 -0.8091
  111OSM    H8G11552   0.542   4.120   9.793 -0.1438  0.1098  2.8545
  111OSM    C9F11553   0.492   3.917   9.769  0.4387 -0.4445 -0.3398
  111OSM    H9F11554   0.456   3.870   9.862 -1.2759 -0.5000 -0.9992
  111OSM   C10F11555   0.432   3.878   9.651  1.0803  0.1802  0.2140
  111OSM   H10F11556   0.359   3.795   9.659  0.4719  0.5616 -1.0519
  111OSM   C11F11557   0.448   3.941   9.514 -0.7717 -0.7489  0.3102
  111OSM   H11F11558   0.519   3.882   9.452  2.4857 -0.1759  3.2022
  111OSM   H11G11559   0.487   4.044   9.523 -0.1866 -0.9823  0.4801
  111OSM   C12F11560   0.311   3.938   9.448  0.5890  0.4204 -0.0855
  111OSM   H12F11561   0.245   3.998   9.514 -1.3857 -1.9643  0.2396
  111OSM   H12G11562   0.277   3.833   9.457 -1.7329  1.0471 -0.7836
  111OSM   C13F11563   0.305   4.001   9.305 -0.4289  0.9281  0.2936
  111OSM   H13F11564   0.372   4.089   9.299  1.7701 -0.3428  3.3404
  111OSM   H13G11565   0.199   4.030   9.287 -0.9528 -0.6146  0.7108
  111OSM   C14F11566   0.341   3.898   9.195  0.4389  0.0108  0.4594
  111OSM   H14F11567   0.427   3.836   9.228  0.0672 -0.0497  1.3676
  111OSM   H14G11568   0.369   3.949   9.101 -3.6668  2.8369  0.5078
  111OSM   C15F11569   0.235   3.791   9.168 -0.3583 -0.5363  0.1750
  111OSM   H15F11570   0.134   3.831   9.145 -0.2748  0.2513  1.1173
  111OSM   H15G11571   0.226   3.745   9.269  1.0794  0.9837  1.0417
  111OSM   C16F11572   0.277   3.692   9.056  0.0548  0.0714  0.4126
  111OSM   H16F11573   0.253   3.590   9.093  1.7197 -0.0289  1.3138
  111OSM   H16G11574   0.387   3.705   9.048 -0.0333  0.8948  0.4502
  111OSM   C17F11575   0.226   3.702   8.915  0.2385  0.2158 -0.7397
  111OSM   H17F11576   0.131   3.758   8.912  0.8425  1.2465 -2.4622
  111OSM   H17G11577   0.201   3.603   8.870 -2.3784  0.7105 -0.4977
  111OSM   C18F11578   0.326   3.761   8.820 -0.1660 -0.5268  0.2028
  111OSM   H18F11579   0.279   3.748   8.721 -1.0144  0.1528  0.5008
  111OSM   H18G11580   0.416   3.697   8.820 -1.5605 -2.7198 -2.7074
  111OSM   H18H11581   0.329   3.871   8.836 -3.0312 -0.4144  0.4971
  112OSM      N11582   1.260   3.222  11.129  0.6179 -0.0503  0.0646
  112OSM    C1511583   1.390   3.144  11.143 -0.2157  0.0465  0.5583
  112OSM   H15A11584   1.385   3.094  11.238 -2.4914  0.7490  0.8465
  112OSM   H15B11585   1.471   3.215  11.153 -1.4350  1.3582  1.4109
  112OSM   H15C11586   1.397   3.078  11.057 -0.0874  3.7860 -2.5944
  112OSM    C1411587   1.139   3.122  11.128  0.0052  0.3425 -1.1895
  112OSM   H14A11588   1.145   3.063  11.218  1.1511 -2.0621 -2.7456
  112OSM   H14B11589   1.137   3.056  11.042 -1.9475 -1.3359  0.0379
  112OSM   H14C11590   1.041   3.168  11.136 -0.6075 -1.1032  0.1217
  112OSM    C1311591   1.253   3.311  11.252 -0.7685 -0.1180 -0.0033
  112OSM   H13A11592   1.153   3.350  11.266 -0.8546  0.6068 -2.2857
  112OSM   H13B11593   1.313   3.398  11.233 -0.5133 -0.5848 -1.4370
  112OSM   H13C11594   1.285   3.250  11.336  0.3950  0.4549 -0.0105
  112OSM    C1211595   1.260   3.295  11.000 -0.3282  0.7839  0.7917
  112OSM   H12A11596   1.346   3.360  11.003 -1.0050  1.6877  2.1895
  112OSM   H12B11597   1.178   3.364  10.988 -0.1985  0.7431 -0.3918
  112OSM    C1111598   1.251   3.202  10.869  0.3569  0.3318 -0.3114
  112OSM   H11A11599   1.344   3.141  10.865  0.2255  0.0317  0.8761
  112OSM   H11B11600   1.250   3.275  10.785 -0.6217  1.1063  0.3450
  112OSM      P11601   1.001   3.160  10.800 -0.3985 -0.0107 -0.1464
  112OSM    O1311602   0.902   3.052  10.820 -0.2668  0.3212  0.2525
  112OSM    O1411603   0.962   3.292  10.854 -0.0613  0.0539 -0.2425
  112OSM    O1111604   1.030   3.162  10.645 -0.4308 -0.7852 -0.2868
  112OSM    O1211605   1.133   3.113  10.865 -0.4253  0.1557  0.1961
  112OSM    C1S11606   1.069   3.037  10.584  0.5648  0.5801 -1.0951
  112OSM    H1S11607   0.989   2.960  10.587  1.8280 -0.7542 -0.0794
  112OSM    H1T11608   1.147   2.985  10.644  0.7049  2.3338  0.3282
  112OSM     NF11609   1.186   2.912  10.405  0.5859 -0.0085 -0.1450
  112OSM    HNF11610   1.286   2.903  10.410  0.7209  1.1422 -0.3727
  112OSM    C2S11611   1.140   3.044  10.447 -0.0909 -0.2704 -0.3365
  112OSM    H2S11612   1.059   3.072  10.376 -0.3644  0.2779  0.1779
  112OSM    C3S11613   1.256   3.152  10.440  0.7746  0.3905 -0.4766
  112OSM    H3S11614   1.343   3.119  10.501  0.3217 -1.5501 -0.8095
  112OSM     O311615   1.220   3.286  10.492 -0.1024 -0.0990 -0.5180
  112OSM    HO311616   1.147   3.270  10.552 -1.6998  1.4094 -1.9659
  112OSM    C4S11617   1.294   3.180  10.298 -1.0772  0.3968 -0.6948
  112OSM    H4S11618   1.211   3.187  10.226 -0.2430  0.6794 -1.6535
  112OSM    C5S11619   1.416   3.159  10.253 -0.5237  0.0240  0.3759
  112OSM    H5S11620   1.497   3.121  10.316 -1.2140  0.5771  1.6383
  112OSM    C6S11621   1.446   3.190  10.102  0.3241  0.5426  0.3508
  112OSM    H6S11622   1.536   3.253  10.119  0.2141  0.2136  2.5389
  112OSM    H6T11623   1.361   3.247  10.059  1.8233  3.0337  0.4631
  112OSM    C7S11624   1.467   3.059  10.025 -0.3266 -0.8034 -0.3899
  112OSM    H7S11625   1.375   2.997  10.022 -0.5110 -0.4962 -2.6202
  112OSM    H7T11626   1.543   2.992  10.070 -0.5961 -0.6770  0.2787
  112OSM    C8S11627   1.511   3.095   9.882 -0.1860 -0.5174 -0.0804
  112OSM    H8S11628   1.612   3.143   9.883 -0.6323  0.5015 -1.3747
  112OSM    H8T11629   1.437   3.168   9.843 -1.2228 -0.4469  1.8620
  112OSM    C9S11630   1.521   2.973   9.784 -0.2393  0.3887  0.2753
  112OSM    H9S11631   1.423   2.922   9.775  0.8752 -1.4872 -3.4264
  112OSM    H9T11632   1.597   2.902   9.823 -2.3109 -0.3908  3.2198
  112OSM   C10S11633   1.567   3.025   9.643  0.4998  0.2717 -0.2251
  112OSM   H10S11634   1.678   3.034   9.642  0.4235  1.3217 -0.6608
  112OSM   H10T11635   1.516   3.122   9.631 -2.4066 -1.2709 -1.3827
  112OSM   C11S11636   1.533   2.930   9.520 -0.5140  0.5672 -0.2379
  112OSM   H11S11637   1.424   2.914   9.504 -0.5220  0.5910 -0.2074
  112OSM   H11T11638   1.570   2.829   9.544  0.0190  0.5997 -0.8946
  112OSM   C12S11639   1.581   3.002   9.392 -0.0738  0.7355 -0.1947
  112OSM   H12S11640   1.691   3.014   9.406 -0.1195 -0.0402  1.0606
  112OSM   H12T11641   1.523   3.097   9.389 -0.3259  0.6757  1.6410
  112OSM   C13S11642   1.548   2.923   9.260 -0.5499 -0.4799 -0.4721
  112OSM   H13S11643   1.438   2.915   9.248 -1.1583  4.2780  0.1796
  112OSM   H13T11644   1.587   2.819   9.268 -0.9360 -0.6891 -1.2327
  112OSM   C14S11645   1.607   2.969   9.124 -0.2312 -0.7717  0.3134
  112OSM   H14S11646   1.573   2.907   9.039  0.8389  0.0948 -0.7798
  112OSM   H14T11647   1.716   2.953   9.140 -0.0516  0.5430  0.5772
  112OSM   C15S11648   1.597   3.117   9.080  0.1107  0.3383 -0.2063
  112OSM   H15S11649   1.660   3.175   9.151 -0.5507  0.4474  0.3018
  112OSM   H15T11650   1.494   3.157   9.094 -0.2626 -1.5106  3.5415
  112OSM   C16S11651   1.650   3.139   8.934  0.1330  0.9802 -0.4400
  112OSM   H16S11652   1.628   3.049   8.873  1.4291  0.3810 -0.0600
  112OSM   H16T11653   1.761   3.144   8.945  0.1463 -0.5645  0.2977
  112OSM   C17S11654   1.603   3.261   8.867 -0.5922  0.2506 -0.7073
  112OSM   H17S11655   1.617   3.352   8.930  0.1200  1.1531 -2.1020
  112OSM   H17T11656   1.495   3.253   8.843 -0.8072 -0.3901  0.4348
  112OSM   C18S11657   1.670   3.285   8.728  0.0003  0.3790 -0.7647
  112OSM   H18S11658   1.781   3.280   8.739  0.0404  1.9640 -0.1891
  112OSM   H18T11659   1.658   3.389   8.691  1.4387  1.0030  0.4027
  112OSM   H18U11660   1.636   3.207   8.657 -0.6868  0.0250 -0.0625
  112OSM    C1F11661   1.108   2.806  10.372  0.4339 -0.3982  0.1991
  112OSM     OF11662   0.992   2.820  10.346  0.5780  0.0295 -0.2007
  112OSM    C2F11663   1.174   2.671  10.358 -0.9178 -0.6230 -0.4790
  112OSM    H2F11664   1.167   2.622  10.458  1.0525 -2.2650 -1.0808
  112OSM    H2G11665   1.282   2.681  10.335 -1.5453  0.8040 -3.2031
  112OSM    C3F11666   1.118   2.575  10.246 -0.3793 -0.5225  0.1558
  112OSM    H3F11667   1.015   2.550  10.278 -0.5411 -0.1439 -0.0691
  112OSM    H3G11668   1.173   2.478  10.254 -0.6494 -0.5991  1.3000
  112OSM    C4F11669   1.117   2.636  10.107  0.0251  0.4495 -0.4168
  112OSM    H4F11670   1.209   2.697  10.107  1.6781 -1.7556  2.3969
  112OSM    H4G11671   1.021   2.686  10.085 -0.7204 -2.1851 -4.0217
  112OSM    C5F11672   1.113   2.522  10.004  1.0887  0.3850 -0.1102
  112OSM    H5F11673   1.008   2.500   9.976  0.0603  2.0994  2.1090
  112OSM    H5G11674   1.161   2.429  10.042 -1.7870 -0.2591  2.3123
  112OSM    C6F11675   1.183   2.555   9.869 -0.2212 -0.6879  0.3436
  112OSM    H6F11676   1.288   2.574   9.900 -0.3262  0.2630  0.1496
  112OSM    H6G11677   1.143   2.652   9.831 -0.4611 -0.0581  2.0807
  112OSM    C7F11678   1.185   2.447   9.755 -0.0636 -0.3740  0.2878
  112OSM    H7F11679   1.200   2.355   9.816  1.7714  0.3402  0.9840
  112OSM    H7G11680   1.276   2.464   9.692 -1.5943 -1.2543 -2.3126
  112OSM    C8F11681   1.062   2.432   9.659 -0.3793 -0.1477  0.2446
  112OSM    H8F11682   1.058   2.531   9.610 -2.1137 -0.1166  0.4046
  112OSM    H8G11683   0.969   2.427   9.719 -0.6412  1.4206  0.0092
  112OSM    C9F11684   1.089   2.308   9.570  0.8854  0.4797  0.5194
  112OSM    H9F11685   1.122   2.215   9.617  0.5654  0.0156 -0.1546
  112OSM   C10F11686   1.043   2.305   9.446  0.2245  0.2793  0.7027
  112OSM   H10F11687   1.042   2.209   9.392 -1.7176  0.7988 -0.2960
  112OSM   C11F11688   0.972   2.415   9.367  0.1502  0.3096 -0.5982
  112OSM   H11F11689   0.964   2.517   9.412 -3.9800 -1.4294  3.4690
  112OSM   H11G11690   0.865   2.387   9.370 -0.1270  1.3529 -0.0842
  112OSM   C12F11691   1.023   2.424   9.221 -0.0072 -0.0780  0.4384
  112OSM   H12F11692   0.949   2.493   9.175 -1.9854 -0.6690  2.5018
  112OSM   H12G11693   1.006   2.333   9.159  2.2260  0.5153 -1.1886
  112OSM   C13F11694   1.172   2.458   9.211  0.7214 -0.1547 -0.6127
  112OSM   H13F11695   1.221   2.363   9.242 -2.0956 -1.2377  0.8920
  112OSM   H13G11696   1.206   2.534   9.286 -0.7316 -0.7258  0.6785
  112OSM   C14F11697   1.216   2.515   9.077  0.0374  0.2120  0.0147
  112OSM   H14F11698   1.168   2.462   8.993 -2.4767  0.0399  1.4606
  112OSM   H14G11699   1.326   2.502   9.072 -0.2875 -2.8929 -0.9793
  112OSM   C15F11700   1.203   2.672   9.068  0.1845 -0.1649  0.2530
  112OSM   H15F11701   1.272   2.718   9.143 -0.8839  3.9269 -1.0606
  112OSM   H15G11702   1.098   2.694   9.096  0.0238  0.1062 -0.5384
  112OSM   C16F11703   1.229   2.734   8.928  0.3298 -0.3626 -0.1922
  112OSM   H16F11704   1.179   2.661   8.861 -0.8710 -1.3715  1.6998
  112OSM   H16G11705   1.336   2.725   8.897  0.4036 -0.5618  0.1141
  112OSM   C17F11706   1.172   2.871   8.920 -0.2568 -0.3198  0.3238
  112OSM   H17F11707   1.079   2.883   8.979  0.5951  0.2139  1.6216
  112OSM   H17G11708   1.150   2.897   8.815 -0.5462  0.3200  0.5391
  112OSM   C18F11709   1.273   2.971   8.971 -0.4620  0.1788 -0.3067
  112OSM   H18F11710   1.372   2.973   8.922 -0.5756  0.7040 -0.5245
  112OSM   H18G11711   1.293   2.959   9.079 -0.3048 -1.9123 -0.5177
  112OSM   H18H11712   1.234   3.073   8.950  3.5752  1.4319 -2.9006
  113OSM      N11713   5.074   0.707  11.375 -0.3642 -0.7298 -0.6678
  113OSM    C1511714   5.032   0.679  11.521 -0.4298 -0.5346  0.3373
  113OSM   H15A11715   4.996   0.579  11.539  0.3672 -0.8590  0.1817
  113OSM   H15B11716   4.944   0.740  11.536  0.2130 -0.1145  2.9106
  113OSM   H15C11717   5.118   0.694  11.585 -0.0819  1.9867 -0.5939
  113OSM    C1411718   5.130   0.839  11.353  0.3833 -0.4964  0.2957
  113OSM   H14A11719   5.152   0.856  11.249  0.3544 -1.9917  0.0162
  113OSM   H14B11720   5.218   0.861  11.412  0.2254  1.2243 -0.0456
  113OSM   H14C11721   5.059   0.918  11.374  0.2185  0.0264 -2.0282
  113OSM    C1311722   5.188   0.615  11.353  0.1019  0.3908  0.0172
  113OSM   H13A11723   5.215   0.592  11.251 -0.7939 -0.6878  0.0002
  113OSM   H13B11724   5.183   0.522  11.408  1.1531 -0.1209 -0.7151
  113OSM   H13C11725   5.276   0.651  11.404  0.9615 -2.0145  0.3998
  113OSM    C1211726   4.956   0.677  11.291 -0.5040 -0.6332  0.1875
  113OSM   H12A11727   4.877   0.750  11.301 -0.1313 -0.2329  0.2434
  113OSM   H12B11728   4.920   0.581  11.326 -0.9037 -0.2557  0.8406
  113OSM    C1111729   4.967   0.660  11.134  0.1717  0.4287 -0.7979
  113OSM   H11A11730   4.951   0.761  11.092  1.2620 -0.1552 -2.7350
  113OSM   H11B11731   4.884   0.594  11.100 -0.0646 -0.2359  0.9420
  113OSM      P11732   5.111   0.510  10.980 -0.3319  0.4289  0.6284
  113OSM    O1311733   5.241   0.538  10.908 -0.3459  0.2603 -0.2071
  113OSM    O1411734   5.100   0.374  11.040  0.3714  0.0027  0.2428
  113OSM    O1111735   5.004   0.538  10.873  0.0877  0.6171 -0.1768
  113OSM    O1211736   5.093   0.618  11.091 -0.0076  0.1576 -0.0637
  113OSM    C1S11737   5.019   0.647  10.790 -0.4973  0.5629  0.2298
  113OSM    H1S11738   5.118   0.642  10.739 -0.7467 -3.8486 -0.2251
  113OSM    H1T11739   5.013   0.742  10.847  0.6760  1.9528 -1.7940
  113OSM     NF11740   4.928   0.766  10.591  0.4301 -0.0077  0.0293
  113OSM    HNF11741   4.899   0.860  10.609  0.6275 -0.1550  1.1568
  113OSM    C2S11742   4.896   0.663  10.691  0.2564  0.0948 -0.3035
  113OSM    H2S11743   4.885   0.566  10.638 -0.2810  1.1791 -2.2957
  113OSM    C3S11744   4.764   0.699  10.770  0.5447  0.4384 -0.0684
  113OSM    H3S11745   4.777   0.790  10.832 -0.8259 -0.6735  1.9555
  113OSM     O311746   4.716   0.605  10.872  0.1923 -0.6928 -0.0700
  113OSM    HO311747   4.786   0.539  10.869  0.5859 -0.2520 -2.6023
  113OSM    C4S11748   4.657   0.720  10.664 -0.1448 -0.3095  0.2961
  113OSM    H4S11749   4.661   0.811  10.601 -0.4855 -0.6326 -0.2027
  113OSM    C5S11750   4.566   0.630  10.622 -0.5836  0.2887  0.3817
  113OSM    H5S11751   4.549   0.544  10.689  0.3332  1.7988  2.6717
  113OSM    C6S11752   4.458   0.639  10.517 -0.1458  0.0846  0.0722
  113OSM    H6S11753   4.379   0.707  10.553 -0.5562  0.6398 -1.7673
  113OSM    H6T11754   4.403   0.546  10.492  0.1929 -0.0943 -0.0257
  113OSM    C7S11755   4.517   0.686  10.381  0.7464 -0.0838  0.4494
  113OSM    H7S11756   4.556   0.592  10.337  0.9103  0.4506 -0.5553
  113OSM    H7T11757   4.597   0.762  10.391  3.0897 -2.4471  0.7213
  113OSM    C8S11758   4.416   0.743  10.284 -0.1431  0.1103 -0.1135
  113OSM    H8S11759   4.370   0.824  10.344  1.5593 -0.9559  2.8605
  113OSM    H8T11760   4.346   0.659  10.266  1.5443 -1.3406 -0.2041
  113OSM    C9S11761   4.476   0.793  10.152 -0.4967 -0.1494  0.6762
  113OSM    H9S11762   4.396   0.818  10.079  0.9531  2.4783 -0.1514
  113OSM    H9T11763   4.527   0.709  10.101 -2.5795 -1.2333  0.2890
  113OSM   C10S11764   4.570   0.917  10.167  0.2363 -0.1202  0.0937
  113OSM   H10S11765   4.656   0.896  10.234  0.0730 -1.3997 -0.0677
  113OSM   H10T11766   4.503   0.999  10.201  0.0439 -0.8873  1.6532
  113OSM   C11S11767   4.632   0.958  10.034 -0.6851  0.1316 -0.1184
  113OSM   H11S11768   4.680   0.866   9.993  0.0860  1.2191 -1.7673
  113OSM   H11T11769   4.727   1.016  10.046  0.0621 -0.3366 -2.9954
  113OSM   C12S11770   4.543   1.021   9.928  0.1499  0.7165  0.1412
  113OSM   H12S11771   4.497   1.107   9.980  1.2377  0.0329  2.3416
  113OSM   H12T11772   4.463   0.951   9.894  0.2948 -0.4089  1.9993
  113OSM   C13S11773   4.617   1.072   9.803  0.3887 -0.0905  0.2203
  113OSM   H13S11774   4.681   0.990   9.764  0.5250 -0.1630  0.5872
  113OSM   H13T11775   4.693   1.149   9.829 -0.8683  1.0427  0.6971
  113OSM   C14S11776   4.522   1.143   9.704 -0.9889  0.1368  0.9649
  113OSM   H14S11777   4.590   1.203   9.640  0.2511 -0.9663  1.2167
  113OSM   H14T11778   4.451   1.206   9.763 -0.9879  1.5357 -0.4556
  113OSM   C15S11779   4.447   1.039   9.638 -0.1470  0.2024  0.1360
  113OSM   H15S11780   4.363   1.008   9.704  0.1611  1.4510  1.1602
  113OSM   H15T11781   4.512   0.950   9.622  0.5520  0.4718  1.3076
  113OSM   C16S11782   4.391   1.086   9.511  0.0306 -0.6235  0.3095
  113OSM   H16S11783   4.329   1.178   9.512  0.1093 -0.4579 -2.4034
  113OSM   H16T11784   4.320   1.013   9.467 -0.7400  0.9899 -1.2353
  113OSM   C17S11785   4.498   1.110   9.400 -0.2279  0.3399 -0.2990
  113OSM   H17S11786   4.466   1.056   9.309  2.4317  1.0799 -1.7839
  113OSM   H17T11787   4.593   1.060   9.431 -0.0602  1.1242  0.5020
  113OSM   C18S11788   4.538   1.256   9.365  0.2320 -0.2004  0.0238
  113OSM   H18S11789   4.624   1.254   9.295 -0.0164  0.5786 -0.3050
  113OSM   H18T11790   4.594   1.313   9.442  2.0343  0.8958 -1.9952
  113OSM   H18U11791   4.452   1.313   9.325  1.0044  0.1238 -1.1965
  113OSM    C1F11792   5.020   0.737  10.498  0.2885  0.3794  0.9244
  113OSM     OF11793   5.080   0.630  10.492  0.0672 -0.1613 -0.2909
  113OSM    C2F11794   5.052   0.850  10.394  0.3360  0.1863  0.2870
  113OSM    H2F11795   5.160   0.862  10.369 -0.1674  3.1151 -0.8842
  113OSM    H2G11796   5.014   0.948  10.428 -1.2532 -0.6345  0.9636
  113OSM    C3F11797   4.976   0.826  10.262  0.5348  0.3540 -0.2018
  113OSM    H3F11798   4.867   0.814  10.279  0.1758 -0.4514 -2.7288
  113OSM    H3G11799   4.991   0.722  10.225 -2.0399 -0.1828  0.0669
  113OSM    C4F11800   4.992   0.931  10.154 -0.2392 -0.5279 -0.6034
  113OSM    H4F11801   4.977   1.032  10.199 -0.3065 -0.4932 -0.7036
  113OSM    H4G11802   4.919   0.904  10.074 -1.2150  0.6836 -0.1558
  113OSM    C5F11803   5.131   0.926  10.087 -0.4265 -0.1251 -1.1055
  113OSM    H5F11804   5.152   0.817  10.077 -2.2520 -0.6812  0.4301
  113OSM    H5G11805   5.207   0.971  10.155 -1.5084  0.3242 -0.1534
  113OSM    C6F11806   5.141   0.995   9.958 -0.7121 -0.0850  0.6784
  113OSM    H6F11807   5.088   0.938   9.879 -2.2551  1.7238  0.3522
  113OSM    H6G11808   5.249   1.000   9.935 -0.7558 -1.1839  0.1452
  113OSM    C7F11809   5.081   1.137   9.961  0.3735  0.2380 -0.2507
  113OSM    H7F11810   5.130   1.175  10.053  0.1905 -1.4029  0.5653
  113OSM    H7G11811   4.971   1.140   9.975  0.1404 -2.0089 -1.2004
  113OSM    C8F11812   5.124   1.223   9.840 -0.2185 -0.8002 -0.0280
  113OSM    H8F11813   5.235   1.220   9.834 -0.0940  1.2927  0.2593
  113OSM    H8G11814   5.100   1.327   9.870  1.4232 -0.7116  1.1311
  113OSM    C9F11815   5.042   1.186   9.719  0.2341  0.1214  0.3607
  113OSM    H9F11816   4.933   1.197   9.718  0.1576 -0.5745 -0.9981
  113OSM   C10F11817   5.096   1.139   9.602 -0.3053 -0.1307 -0.2640
  113OSM   H10F11818   5.034   1.098   9.521  0.4588 -0.5358 -0.6491
  113OSM   C11F11819   5.240   1.109   9.570 -0.4953 -0.0298  0.1334
  113OSM   H11F11820   5.271   1.022   9.631 -3.0863 -0.5646  0.8077
  113OSM   H11G11821   5.300   1.192   9.612 -2.7752  0.8822  1.8180
  113OSM   C12F11822   5.282   1.092   9.419  0.0371 -0.0484 -0.4299
  113OSM   H12F11823   5.390   1.065   9.423 -0.0386 -0.5823 -1.7653
  113OSM   H12G11824   5.281   1.190   9.368 -2.3072 -1.4577 -3.4589
  113OSM   C13F11825   5.198   0.996   9.328 -0.3763  0.3618  0.8052
  113OSM   H13F11826   5.093   1.033   9.329 -0.4002  0.2701  2.0188
  113OSM   H13G11827   5.201   0.894   9.369  0.8280 -0.7509 -1.7829
  113OSM   C14F11828   5.246   1.009   9.181 -0.8171  0.2597 -0.2525
  113OSM   H14F11829   5.354   0.983   9.174 -0.5125  1.3137  0.3221
  113OSM   H14G11830   5.235   1.118   9.161  0.4406  0.3974 -0.3055
  113OSM   C15F11831   5.164   0.944   9.078 -0.2076 -0.0566 -0.3866
  113OSM   H15F11832   5.069   1.002   9.082  1.8428  3.9186 -2.4367
  113OSM   H15G11833   5.151   0.836   9.101  0.4514 -0.0258  0.1917
  113OSM   C16F11834   5.218   0.961   8.935 -0.5622 -0.8422  0.3490
  113OSM   H16F11835   5.300   0.888   8.920  1.2023  1.2354 -0.5107
  113OSM   H16G11836   5.267   1.059   8.925 -1.6594 -0.5283 -3.8964
  113OSM   C17F11837   5.127   0.938   8.818  0.8134  0.3063  0.6058
  113OSM   H17F11838   5.057   1.023   8.829  1.7516  0.9400  1.9305
  113OSM   H17G11839   5.065   0.846   8.827 -1.5989  1.0882 -4.2165
  113OSM   C18F11840   5.185   0.936   8.679 -0.0527  0.6909 -0.0695
  113OSM   H18F11841   5.261   0.857   8.664 -3.0200 -1.9841 -2.3765
  113OSM   H18G11842   5.231   1.036   8.663  0.2542  0.6993  0.7695
  113OSM   H18H11843   5.120   0.931   8.589 -0.5878 -0.5622  0.3652
  114OSM      N11844   1.020   2.709  10.964 -0.3543  0.9948  0.3524
  114OSM    C1511845   0.973   2.611  10.865 -0.1892 -0.7584  0.1135
  114OSM   H15A11846   0.901   2.544  10.910 -1.7196  0.3198 -0.6441
  114OSM   H15B11847   1.049   2.550  10.819 -1.3068 -2.3548  0.3145
  114OSM   H15C11848   0.935   2.658  10.775 -0.0827 -0.1799  0.3638
  114OSM    C1411849   0.903   2.762  11.035  0.0337 -0.7099 -0.4648
  114OSM   H14A11850   0.844   2.679  11.069 -0.1731 -0.1447  0.5980
  114OSM   H14B11851   0.836   2.828  10.982 -0.0583  0.5204  1.1040
  114OSM   H14C11852   0.933   2.822  11.120  1.7558 -0.6741 -1.0527
  114OSM    C1311853   1.091   2.620  11.067  0.2555 -0.3046 -0.4661
  114OSM   H13A11854   1.179   2.573  11.027  0.5275 -1.9783  1.9115
  114OSM   H13B11855   1.027   2.548  11.115  1.2814 -1.2543 -0.4762
  114OSM   H13C11856   1.132   2.692  11.138 -0.7297  0.1562 -0.3427
  114OSM    C1211857   1.104   2.821  10.908  1.2024 -0.1016 -0.5310
  114OSM   H12A11858   1.154   2.877  10.986 -0.1753 -0.1056  0.3804
  114OSM   H12B11859   1.049   2.900  10.859  0.6367 -0.4858 -0.5282
  114OSM    C1111860   1.222   2.780  10.813  0.2265 -0.3269 -0.5013
  114OSM   H11A11861   1.266   2.864  10.755  0.2364 -0.3617 -0.5438
  114OSM   H11B11862   1.194   2.719  10.724 -1.2091  0.8646 -0.9081
  114OSM      P11863   1.416   2.780  10.987  0.6646  0.0751  0.2631
  114OSM    O1311864   1.346   2.853  11.097  0.8078  0.8487  0.0143
  114OSM    O1411865   1.526   2.694  11.035  1.1906 -0.1852  0.4950
  114OSM    O1111866   1.482   2.891  10.895  0.0444  0.8130 -0.0027
  114OSM    O1211867   1.321   2.701  10.886  0.1382  0.0772 -0.7026
  114OSM    C1S11868   1.541   2.855  10.769 -0.3289  1.0374  0.3451
  114OSM    H1S11869   1.470   2.789  10.715  0.6430  0.9729 -0.8873
  114OSM    H1T11870   1.630   2.791  10.786  0.3713  1.2794 -2.1335
  114OSM     NF11871   1.637   2.926  10.562  0.3487  0.2887  0.4955
  114OSM    HNF11872   1.733   2.953  10.552  0.1643  0.6370 -0.4420
  114OSM    C2S11873   1.569   2.977  10.679 -0.3397 -0.6536  0.0048
  114OSM    H2S11874   1.470   3.019  10.651 -0.1236 -2.8216 -5.3340
  114OSM    C3S11875   1.655   3.088  10.753  0.4650  0.3490 -0.4531
  114OSM    H3S11876   1.762   3.061  10.763 -0.1418 -1.8592  0.5528
  114OSM     O311877   1.604   3.117  10.883 -0.2967 -0.2399 -0.6340
  114OSM    HO311878   1.548   3.040  10.898  0.3778 -0.7910 -0.9272
  114OSM    C4S11879   1.645   3.208  10.660 -0.1988 -0.0843  0.1674
  114OSM    H4S11880   1.727   3.211  10.586  1.0987  0.1979  1.5721
  114OSM    C5S11881   1.568   3.320  10.671 -0.0016  0.0283 -0.3909
  114OSM    H5S11882   1.506   3.339  10.760  0.2299  2.9925 -0.7562
  114OSM    C6S11883   1.587   3.438  10.578 -0.4497 -0.7495  0.4670
  114OSM    H6S11884   1.611   3.526  10.641  0.4820 -0.5043 -0.2086
  114OSM    H6T11885   1.490   3.451  10.526  0.4985 -2.2485 -1.7943
  114OSM    C7S11886   1.688   3.416  10.455 -0.0781 -1.2626  1.0007
  114OSM    H7S11887   1.671   3.319  10.403  0.3636 -0.3271 -0.9472
  114OSM    H7T11888   1.785   3.437  10.505  0.4121  2.3569 -1.1608
  114OSM    C8S11889   1.655   3.520  10.350 -0.1623  0.2847 -0.3398
  114OSM    H8S11890   1.649   3.618  10.402  0.2902 -0.0636  0.3808
  114OSM    H8T11891   1.553   3.497  10.311  0.1600  0.7968 -1.5253
  114OSM    C9S11892   1.764   3.524  10.245  0.7856 -0.1245  0.3291
  114OSM    H9S11893   1.760   3.430  10.186  0.2478  0.4650 -0.5902
  114OSM    H9T11894   1.867   3.527  10.288  0.9528 -2.5709  0.2268
  114OSM   C10S11895   1.746   3.645  10.154 -0.0683  0.3947 -0.4701
  114OSM   H10S11896   1.727   3.723  10.230  1.3682 -0.7497  1.1506
  114OSM   H10T11897   1.654   3.630  10.094  0.1387 -0.1821 -0.6597
  114OSM   C11S11898   1.862   3.687  10.070 -0.1366  0.1162 -0.2227
  114OSM   H11S11899   1.953   3.696  10.133  0.6533 -1.1391 -1.1368
  114OSM   H11T11900   1.840   3.784  10.021  2.2790  2.1879  2.5191
  114OSM   C12S11901   1.893   3.578   9.967  0.6859  0.1446  0.3566
  114OSM   H12S11902   1.804   3.574   9.901 -0.5133  1.1158  1.8530
  114OSM   H12T11903   1.912   3.479  10.015  1.1224 -0.1988 -0.5122
  114OSM   C13S11904   2.021   3.611   9.891 -0.8015 -0.6189  0.5884
  114OSM   H13S11905   2.110   3.620   9.956  0.9021 -1.2506 -1.5591
  114OSM   H13T11906   2.006   3.702   9.830 -0.0628 -1.9282 -1.6769
  114OSM   C14S11907   2.046   3.503   9.784 -0.1372  0.9069  0.0209
  114OSM   H14S11908   2.078   3.412   9.840 -3.1676  0.0097  0.4644
  114OSM   H14T11909   2.127   3.545   9.720  0.4197  2.1173  1.4527
  114OSM   C15S11910   1.930   3.464   9.699  0.3541 -1.2218  0.2077
  114OSM   H15S11911   1.883   3.561   9.672  0.3365 -0.9330  1.2350
  114OSM   H15T11912   1.862   3.408   9.766 -1.4398 -0.8613 -1.2288
  114OSM   C16S11913   1.968   3.396   9.568  0.3641  0.9791 -0.0034
  114OSM   H16S11914   2.048   3.326   9.598 -1.1994 -0.4085  1.0847
  114OSM   H16T11915   2.011   3.469   9.496  1.6151  0.4987  0.2386
  114OSM   C17S11916   1.843   3.328   9.513 -0.1223  0.2904 -0.1029
  114OSM   H17S11917   1.770   3.411   9.506 -2.1499 -1.1638  2.1146
  114OSM   H17T11918   1.794   3.263   9.589 -1.3799 -0.1148 -1.2209
  114OSM   C18S11919   1.870   3.261   9.385  0.5430 -0.0280 -0.1770
  114OSM   H18S11920   1.951   3.187   9.405  1.2170  0.3366 -1.4207
  114OSM   H18T11921   1.920   3.322   9.306 -1.2291 -0.3377 -1.6072
  114OSM   H18U11922   1.775   3.216   9.349 -0.2170 -0.4521  2.2125
  114OSM    C1F11923   1.569   2.850  10.471  0.2125  0.0091  0.0502
  114OSM     OF11924   1.449   2.834  10.485  0.5948  0.2000  0.6866
  114OSM    C2F11925   1.654   2.785  10.371  0.0538  0.6185  0.0987
  114OSM    H2F11926   1.709   2.700  10.416  0.7797  0.2187 -1.4631
  114OSM    H2G11927   1.722   2.863  10.331 -0.4113  0.8891 -0.1802
  114OSM    C3F11928   1.572   2.717  10.261 -0.8238 -0.0979  0.2196
  114OSM    H3F11929   1.496   2.779  10.210  0.6100  0.3168 -1.5076
  114OSM    H3G11930   1.508   2.640  10.309  0.4305 -1.4922 -0.2343
  114OSM    C4F11931   1.661   2.660  10.148 -0.0696  0.3513 -0.8336
  114OSM    H4F11932   1.734   2.589  10.191 -0.7697 -0.9822 -1.7637
  114OSM    H4G11933   1.719   2.743  10.102  0.2611 -0.3908 -1.8021
  114OSM    C5F11934   1.585   2.605  10.030 -0.1298  0.2274  0.5884
  114OSM    H5F11935   1.506   2.675   9.994  0.3620 -0.1470 -1.3490
  114OSM    H5G11936   1.531   2.514  10.065 -0.8495  0.7869  0.9776
  114OSM    C6F11937   1.670   2.570   9.899  0.1569 -0.3983  0.0353
  114OSM    H6F11938   1.763   2.514   9.922  0.0820 -0.4700  0.1687
  114OSM    H6G11939   1.712   2.664   9.856  0.5056  0.7686  2.7298
  114OSM    C7F11940   1.579   2.504   9.790  0.0194 -0.5758 -0.4163
  114OSM    H7F11941   1.492   2.571   9.769 -1.5419 -1.8359  1.6679
  114OSM    H7G11942   1.533   2.416   9.839 -0.1939 -0.3844 -0.2742
  114OSM    C8F11943   1.646   2.458   9.660 -0.5392  0.4237  0.0624
  114OSM    H8F11944   1.744   2.420   9.694  0.0596  1.9390  0.0995
  114OSM    H8G11945   1.681   2.555   9.619 -0.9889  1.5704  2.2301
  114OSM    C9F11946   1.567   2.368   9.567 -0.4664 -0.3282  0.6037
  114OSM    H9F11947   1.566   2.264   9.601  0.6679 -0.3851  0.5034
  114OSM   C10F11948   1.512   2.400   9.444  0.2532  0.8053  0.3696
  114OSM   H10F11949   1.446   2.329   9.392 -0.0431  1.8126 -0.6540
  114OSM   C11F11950   1.523   2.527   9.375  0.0278 -0.0270 -0.2208
  114OSM   H11F11951   1.549   2.614   9.439 -3.9898  1.6085 -0.4780
  114OSM   H11G11952   1.429   2.549   9.321  0.7063  0.6964 -1.1266
  114OSM   C12F11953   1.644   2.527   9.277  0.1112 -0.3246 -0.9208
  114OSM   H12F11954   1.735   2.517   9.340  0.8360  1.2283 -1.6355
  114OSM   H12G11955   1.642   2.628   9.230 -2.0783  0.9259  1.5887
  114OSM   C13F11956   1.643   2.420   9.168 -0.0237 -0.3369 -0.1101
  114OSM   H13F11957   1.542   2.421   9.122 -0.2838 -2.6325  0.3127
  114OSM   H13G11958   1.650   2.321   9.216 -2.5498 -0.2751  0.5504
  114OSM   C14F11959   1.762   2.446   9.078  0.1801  0.3604 -0.6227
  114OSM   H14F11960   1.854   2.475   9.132  0.4422 -0.1652 -0.7763
  114OSM   H14G11961   1.751   2.531   9.008  1.1158 -0.3165 -1.6231
  114OSM   C15F11962   1.795   2.316   8.993 -0.3672 -0.1263  0.7421
  114OSM   H15F11963   1.790   2.230   9.064 -0.3087 -1.6318 -1.0066
  114OSM   H15G11964   1.896   2.326   8.948 -0.0476  0.6808  1.5920
  114OSM   C16F11965   1.685   2.284   8.887  0.1683 -0.5555 -0.0640
  114OSM   H16F11966   1.666   2.386   8.846 -0.1044 -0.4976  0.2017
  114OSM   H16G11967   1.602   2.252   8.954  3.1717 -2.4770  3.0265
  114OSM   C17F11968   1.725   2.192   8.770 -0.3188 -0.1403 -0.4644
  114OSM   H17F11969   1.633   2.189   8.708 -1.6482  1.0839  1.3128
  114OSM   H17G11970   1.730   2.090   8.814 -0.7328 -0.6396 -1.5451
  114OSM   C18F11971   1.850   2.229   8.687 -0.0671  0.1989  0.4251
  114OSM   H18F11972   1.826   2.327   8.640 -0.6539 -0.3783 -0.5173
  114OSM   H18G11973   1.865   2.162   8.601  0.6477 -0.4645  1.0597
  114OSM   H18H11974   1.949   2.234   8.737  0.4191 -1.9413 -0.2526
  115OSM      N11975   5.386   3.550  10.855  0.3279  0.5792 -0.0569
  115OSM    C1511976   5.516   3.474  10.863 -0.1030 -0.0740  0.8345
  115OSM   H15A11977   5.565   3.476  10.767 -0.4781  0.9042  0.6518
  115OSM   H15B11978   5.492   3.369  10.876 -0.2795  0.0010  1.1218
  115OSM   H15C11979   5.578   3.506  10.946 -0.4778 -0.7178  1.3762
  115OSM    C1411980   5.422   3.692  10.831 -0.1715  0.0096  0.0569
  115OSM   H14A11981   5.480   3.729  10.914  0.3014 -0.1288 -0.2112
  115OSM   H14B11982   5.331   3.750  10.824 -0.4660 -0.6619 -2.5294
  115OSM   H14C11983   5.480   3.705  10.741  0.4402 -0.1993  0.4111
  115OSM    C1311984   5.303   3.491  10.743 -0.4207  0.0397 -0.0890
  115OSM   H13A11985   5.351   3.508  10.648 -3.3175  0.3448 -1.6069
  115OSM   H13B11986   5.212   3.547  10.726  0.4236  1.3609 -0.4697
  115OSM   H13C11987   5.291   3.384  10.745 -1.9866  0.1987  0.0157
  115OSM    C1211988   5.303   3.526  10.985 -0.0261 -0.0581 -0.5352
  115OSM   H12A11989   5.372   3.548  11.065  1.6779  0.7637 -2.1460
  115OSM   H12B11990   5.276   3.424  11.005 -1.4115 -0.0117 -1.9207
  115OSM    C1111991   5.168   3.597  11.006  0.5424  0.6247  0.1417
  115OSM   H11A11992   5.102   3.561  11.089  0.3372 -1.1632 -0.7518
  115OSM   H11B11993   5.111   3.573  10.914  1.2865  3.5511 -1.1720
  115OSM      P11994   5.073   3.840  10.959 -0.1062 -0.0385 -0.3261
  115OSM    O1311995   4.936   3.785  10.965  0.1370  0.3654 -0.0702
  115OSM    O1411996   5.098   3.978  11.028  0.1357  0.2339  0.0219
  115OSM    O1111997   5.119   3.841  10.812  0.0749 -0.2747 -0.2651
  115OSM    O1211998   5.176   3.740  11.029  0.2416  0.0925  0.4028
  115OSM    C1S11999   5.115   3.958  10.728 -0.6062 -0.5154  0.4475
  115OSM    H1S12000   5.185   4.033  10.771 -1.2805  0.0298  0.6197
  115OSM    H1T12001   5.018   4.013  10.724 -0.7894 -0.8018  0.9014
  115OSM     NF12002   5.193   4.034  10.492 -0.3128 -0.5899  0.0087
  115OSM    HNF12003   5.131   4.053  10.416  0.3806 -1.5130 -0.8056
  115OSM    C2S12004   5.168   3.922  10.584  0.2584 -0.1162  0.4207
  115OSM    H2S12005   5.265   3.874  10.611 -0.9470 -1.8282  1.9227
  115OSM    C3S12006   5.081   3.807  10.517  0.5819  0.1459  0.5533
  115OSM    H3S12007   4.982   3.853  10.499  0.3107 -1.1799 -1.7839
  115OSM     O312008   5.064   3.696  10.599  0.1966 -0.1788 -0.0973
  115OSM    HO312009   5.115   3.727  10.674  1.7630 -1.8639 -0.3802
  115OSM    C4S12010   5.146   3.763  10.390 -0.0174 -0.0524  0.3645
  115OSM    H4S12011   5.250   3.727  10.391 -0.4444 -1.3094  1.0104
  115OSM    C5S12012   5.078   3.767  10.274  0.3553 -0.2599  0.5322
  115OSM    H5S12013   4.971   3.794  10.273 -0.1101 -1.4859  3.6725
  115OSM    C6S12014   5.136   3.739  10.143  0.0564 -0.3064 -0.3302
  115OSM    H6S12015   5.084   3.646  10.110 -0.0354 -0.6200  0.6636
  115OSM    H6T12016   5.244   3.716  10.153  0.2953  1.2916  1.3754
  115OSM    C7S12017   5.098   3.844  10.036 -0.3115  0.0051 -0.4498
  115OSM    H7S12018   5.160   3.934  10.055  2.0702 -1.4009 -1.0733
  115OSM    H7T12019   4.992   3.872  10.052 -0.2226  0.6057 -0.9034
  115OSM    C8S12020   5.113   3.800   9.893 -0.4725  0.7514  0.0194
  115OSM    H8S12021   5.041   3.716   9.880 -0.2785  0.4729  0.6611
  115OSM    H8T12022   5.212   3.753   9.876 -1.4110 -0.7369 -1.6987
  115OSM    C9S12023   5.107   3.909   9.793  0.7822 -0.9023  0.9156
  115OSM    H9S12024   5.186   3.986   9.807  0.5527 -0.5887  0.5000
  115OSM    H9T12025   5.003   3.947   9.792  0.8873 -0.5321 -1.5280
  115OSM   C10S12026   5.134   3.849   9.653 -0.3172 -0.3590  0.3718
  115OSM   H10S12027   5.072   3.764   9.616 -0.6042 -0.2721  0.6493
  115OSM   H10T12028   5.239   3.811   9.649 -0.3821 -0.4716 -3.1270
  115OSM   C11S12029   5.138   3.961   9.544  0.3282  0.4809  0.1588
  115OSM   H11S12030   5.228   4.021   9.572  1.4268 -1.5301  1.1692
  115OSM   H11T12031   5.043   4.018   9.551 -0.3045 -0.7122  2.0127
  115OSM   C12S12032   5.158   3.910   9.395 -0.1120 -0.1784 -0.6054
  115OSM   H12S12033   5.142   3.992   9.322 -1.4415 -0.6472 -0.8692
  115OSM   H12T12034   5.086   3.826   9.384 -0.1702 -0.4005  1.1208
  115OSM   C13S12035   5.297   3.853   9.364  0.5181 -0.7668  0.2534
  115OSM   H13S12036   5.311   3.752   9.408  1.0116 -0.7803  0.0729
  115OSM   H13T12037   5.373   3.921   9.409 -0.6442  0.6303  0.1804
  115OSM   C14S12038   5.338   3.851   9.213  0.2147  0.4786  0.9057
  115OSM   H14S12039   5.325   3.952   9.168  0.4404 -0.0708 -0.4335
  115OSM   H14T12040   5.263   3.787   9.162  1.3226 -1.2130  1.3195
  115OSM   C15S12041   5.486   3.809   9.187 -0.4704  0.5924 -0.4146
  115OSM   H15S12042   5.554   3.866   9.254  1.5136  0.2721 -2.0631
  115OSM   H15T12043   5.532   3.835   9.089  1.5838 -1.6816 -0.1566
  115OSM   C16S12044   5.516   3.658   9.221 -0.0398 -0.2822  0.6057
  115OSM   H16S12045   5.468   3.592   9.146  1.2998  2.3662 -2.8711
  115OSM   H16T12046   5.462   3.647   9.318 -2.3140  1.0005 -0.4372
  115OSM   C17S12047   5.655   3.619   9.244 -0.7214 -0.6404 -0.4504
  115OSM   H17S12048   5.671   3.512   9.268 -1.1417 -0.5870  0.0809
  115OSM   H17T12049   5.704   3.672   9.328  0.2161 -1.6651 -0.3313
  115OSM   C18S12050   5.746   3.632   9.119  0.0889 -0.3719 -0.0012
  115OSM   H18S12051   5.844   3.589   9.147 -0.3675 -0.5389  1.3877
  115OSM   H18T12052   5.765   3.740   9.102  1.3582 -0.2558  1.9384
  115OSM   H18U12053   5.698   3.576   9.035  0.6224  0.3980 -0.8486
  115OSM    C1F12054   5.294   4.110  10.512  0.0156 -0.9818 -0.1488
  115OSM     OF12055   5.379   4.085  10.600 -0.1761  0.3905 -0.0242
  115OSM    C2F12056   5.311   4.229  10.414  0.1152  0.5137 -0.2345
  115OSM    H2F12057   5.282   4.322  10.468 -2.3586 -0.4089  0.1906
  115OSM    H2G12058   5.242   4.220  10.327 -1.0017 -0.7628  0.7326
  115OSM    C3F12059   5.459   4.255  10.365 -0.6789 -0.4732 -1.2131
  115OSM    H3F12060   5.524   4.273  10.453 -0.5069  1.3755 -1.6642
  115OSM    H3G12061   5.457   4.350  10.307  0.9004  0.1844 -0.2325
  115OSM    C4F12062   5.515   4.147  10.271  0.1049 -0.2284  0.6147
  115OSM    H4F12063   5.520   4.053  10.330 -0.1639 -0.9920 -0.5512
  115OSM    H4G12064   5.614   4.187  10.241 -0.3226  0.2334 -0.2290
  115OSM    C5F12065   5.432   4.111  10.135  0.2878  1.2640 -0.2391
  115OSM    H5F12066   5.383   4.201  10.093  0.4725  0.4108 -2.4447
  115OSM    H5G12067   5.354   4.038  10.168  2.4084 -0.6196  0.9195
  115OSM    C6F12068   5.518   4.053  10.022  0.4650 -0.3206 -0.4381
  115OSM    H6F12069   5.548   3.947  10.032  0.0981 -0.6426 -2.3663
  115OSM    H6G12070   5.603   4.124  10.024 -0.4712  0.8433  2.0599
  115OSM    C7F12071   5.448   4.060   9.885  0.7676 -0.1075  0.5404
  115OSM    H7F12072   5.408   4.164   9.877  1.0284 -0.1013 -1.0448
  115OSM    H7G12073   5.370   3.982   9.895 -0.3337  0.8148 -0.4642
  115OSM    C8F12074   5.520   4.015   9.754  0.5952 -0.2198 -0.0626
  115OSM    H8F12075   5.452   4.024   9.666  0.8174  0.4599 -0.1733
  115OSM    H8G12076   5.554   3.910   9.768  0.9947 -0.3444 -1.7311
  115OSM    C9F12077   5.635   4.116   9.733  1.0494  0.2294  0.4714
  115OSM    H9F12078   5.714   4.112   9.810 -0.0004 -1.2168  1.5115
  115OSM   C10F12079   5.627   4.212   9.634 -0.7013 -0.9409 -0.3557
  115OSM   H10F12080   5.704   4.287   9.610  0.2451 -1.6188  0.5078
  115OSM   C11F12081   5.512   4.249   9.534 -1.0339  0.8859  0.0217
  115OSM   H11F12082   5.473   4.347   9.567  1.4997  1.6193  1.1022
  115OSM   H11G12083   5.431   4.174   9.544  0.5902 -1.1536 -1.1958
  115OSM   C12F12084   5.544   4.263   9.379  0.5415  0.0969 -0.1234
  115OSM   H12F12085   5.593   4.166   9.357 -1.2243 -0.8207 -0.1785
  115OSM   H12G12086   5.614   4.347   9.359 -0.2143  0.2447 -2.4751
  115OSM   C13F12087   5.408   4.280   9.301 -0.0027 -0.3580  0.4499
  115OSM   H13F12088   5.358   4.365   9.352  0.9693 -0.6375  1.9243
  115OSM   H13G12089   5.351   4.186   9.319 -0.8184 -0.5386 -2.5003
  115OSM   C14F12090   5.432   4.307   9.154 -1.3825  0.4288  0.2773
  115OSM   H14F12091   5.463   4.210   9.109 -1.8789  0.5269 -0.2968
  115OSM   H14G12092   5.526   4.365   9.147 -0.3767 -1.2024 -0.2910
  115OSM   C15F12093   5.314   4.365   9.072 -0.5248  0.4851 -0.1450
  115OSM   H15F12094   5.345   4.419   8.980 -1.3130 -0.0990 -0.7805
  115OSM   H15G12095   5.252   4.435   9.132 -3.4209 -1.0429 -1.1433
  115OSM   C16F12096   5.220   4.249   9.034  0.1219 -0.6467 -0.0179
  115OSM   H16F12097   5.203   4.174   9.115  1.2413  0.3243  1.1754
  115OSM   H16G12098   5.268   4.182   8.960 -0.8883 -0.7193 -0.6084
  115OSM   C17F12099   5.084   4.301   8.994  0.7257 -1.0052  0.2298
  115OSM   H17F12100   5.083   4.372   8.909  0.1720 -1.1263  0.1273
  115OSM   H17G12101   5.045   4.354   9.084 -1.2908 -1.3012 -0.4195
  115OSM   C18F12102   4.989   4.192   8.952 -0.4523 -0.2279 -0.3299
  115OSM   H18F12103   4.883   4.225   8.957  0.0960  1.5994 -0.2068
  115OSM   H18G12104   5.011   4.104   9.017  2.4336  0.7575  0.1480
  115OSM   H18H12105   5.018   4.157   8.851  0.2103 -2.2048  0.4999
  116OSM      N12106   0.507   5.874  11.078  0.0628  0.5290 -0.5424
  116OSM    C1512107   0.496   6.011  11.146 -0.2961 -0.1712 -0.2821
  116OSM   H15A12108   0.411   6.019  11.211 -1.2300  0.4883 -1.5370
  116OSM   H15B12109   0.476   6.091  11.076  1.2399  2.4879  2.1266
  116OSM   H15C12110   0.587   6.023  11.204 -0.8920 -0.5925  0.7539
  116OSM    C1412111   0.540   5.758  11.169 -0.4472  0.5910 -0.2787
  116OSM   H14A12112   0.542   5.667  11.111 -0.8766 -0.5101  1.3572
  116OSM   H14B12113   0.466   5.738  11.245  0.3365 -0.7390  0.1776
  116OSM   H14C12114   0.634   5.774  11.220 -0.9154  0.2863  0.7026
  116OSM    C1312115   0.364   5.854  11.033 -0.0412  0.3199 -0.4121
  116OSM   H13A12116   0.349   5.773  10.963  0.6342  0.7538 -1.0877
  116OSM   H13B12117   0.322   5.934  10.973 -1.4447  0.5722  0.8451
  116OSM   H13C12118   0.294   5.837  11.113 -0.5584  0.3747 -0.8466
  116OSM    C1212119   0.607   5.895  10.969 -0.5015 -0.3864 -0.1102
  116OSM   H12A12120   0.706   5.901  11.011  0.3286  2.3351 -2.1663
  116OSM   H12B12121   0.590   5.992  10.926  3.3658  1.8919  2.8064
  116OSM    C1112122   0.608   5.790  10.855  0.1705 -0.5241 -0.2730
  116OSM   H11A12123   0.669   5.839  10.776 -1.0693  1.5967  0.0001
  116OSM   H11B12124   0.508   5.796  10.806  0.5634 -0.5545 -1.0837
  116OSM      P12125   0.803   5.626  10.878  0.0023 -0.2627 -0.3203
  116OSM    O1312126   0.896   5.696  10.969  0.0943 -0.6873  0.1954
  116OSM    O1412127   0.807   5.477  10.868  0.2817 -0.2865  0.3445
  116OSM    O1112128   0.836   5.681  10.730  0.2052  1.1523  0.0682
  116OSM    O1212129   0.651   5.665  10.902 -0.5547 -0.0118 -0.1279
  116OSM    C1S12130   0.798   5.613  10.613  0.4302 -1.1248 -1.2275
  116OSM    H1S12131   0.694   5.575  10.625  1.0657 -2.5849  0.0657
  116OSM    H1T12132   0.860   5.521  10.608  1.0845 -0.9193  1.4825
  116OSM     NF12133   0.750   5.659  10.373  0.8046  0.3022 -0.3696
  116OSM    HNF12134   0.803   5.650  10.289 -0.1650 -1.1665 -0.8649
  116OSM    C2S12135   0.819   5.709  10.492  0.2078 -0.4492 -0.0512
  116OSM    H2S12136   0.771   5.805  10.519 -1.0906 -1.0227 -0.2112
  116OSM    C3S12137   0.969   5.748  10.470  1.3309 -0.2640 -0.1168
  116OSM    H3S12138   1.022   5.681  10.398  0.2841 -0.4022 -0.7817
  116OSM     O312139   1.035   5.762  10.594  0.0046 -0.0363  0.4494
  116OSM    HO312140   0.963   5.729  10.649 -0.0731  1.3999  1.2705
  116OSM    C4S12141   0.980   5.877  10.388  0.0046  0.1867 -0.2219
  116OSM    H4S12142   0.938   5.867  10.287  0.8552  0.3971 -0.6037
  116OSM    C5S12143   1.023   6.001  10.423  0.3794  0.3360  0.1025
  116OSM    H5S12144   1.068   6.025  10.521  2.8285  1.8033 -1.2641
  116OSM    C6S12145   1.032   6.116  10.326  0.0460  0.5498 -0.6963
  116OSM    H6S12146   1.135   6.142  10.295  0.8216 -1.1183  0.3703
  116OSM    H6T12147   0.992   6.208  10.374  1.3022  0.9219 -0.3406
  116OSM    C7S12148   0.951   6.108  10.200  0.1864  0.1332  0.5204
  116OSM    H7S12149   0.842   6.110  10.219  0.2194  0.6415  0.6555
  116OSM    H7T12150   0.968   6.015  10.141 -1.4635 -1.5674  2.5422
  116OSM    C8S12151   0.984   6.227  10.102  0.8220 -0.5346  0.2347
  116OSM    H8S12152   1.095   6.234  10.103  0.8718 -1.0591 -0.4469
  116OSM    H8T12153   0.940   6.314  10.155 -0.3726 -0.6692 -0.4923
  116OSM    C9S12154   0.924   6.212   9.959  1.1025  0.2615  0.4670
  116OSM    H9S12155   0.815   6.195   9.969  1.0768  0.0281 -0.2095
  116OSM    H9T12156   0.968   6.120   9.914 -3.2705 -1.4060 -0.9255
  116OSM   C10S12157   0.943   6.326   9.858  0.3368 -0.2996  0.7912
  116OSM   H10S12158   1.048   6.362   9.864  1.4093 -2.8554 -0.8605
  116OSM   H10T12159   0.870   6.399   9.900 -1.1253 -1.8989  1.1583
  116OSM   C11S12160   0.917   6.295   9.713 -0.2153  0.4316  0.0160
  116OSM   H11S12161   0.815   6.253   9.703  0.0517 -0.4302  0.7994
  116OSM   H11T12162   0.980   6.207   9.688 -1.9382 -1.0288  0.5911
  116OSM   C12S12163   0.933   6.419   9.626 -0.6581 -0.3026  0.4040
  116OSM   H12S12164   1.042   6.438   9.615 -1.0031  0.6994 -1.8284
  116OSM   H12T12165   0.882   6.510   9.664  1.2900  0.9129  0.2133
  116OSM   C13S12166   0.888   6.390   9.480  0.3433 -0.4862 -0.0263
  116OSM   H13S12167   0.780   6.368   9.478  0.6410 -2.0891 -1.2484
  116OSM   H13T12168   0.928   6.293   9.442  2.2498  1.1901 -2.7598
  116OSM   C14S12169   0.917   6.506   9.380  0.0319  0.1303  0.1322
  116OSM   H14S12170   1.028   6.518   9.374 -0.0095  0.8942  0.6836
  116OSM   H14T12171   0.870   6.600   9.416 -0.6861  0.5202 -1.7207
  116OSM   C15S12172   0.874   6.473   9.238 -0.5172  0.3587 -0.3984
  116OSM   H15S12173   0.771   6.510   9.215 -0.8143  0.3066  0.7804
  116OSM   H15T12174   0.884   6.363   9.226  0.0305  0.4448 -0.7552
  116OSM   C16S12175   0.962   6.543   9.129 -1.0697  0.4121 -0.2959
  116OSM   H16S12176   1.061   6.494   9.126 -0.6527  1.2526 -0.4430
  116OSM   H16T12177   0.975   6.651   9.148  0.2614  0.3915 -1.0177
  116OSM   C17S12178   0.895   6.520   8.987  0.0556  0.3480 -0.6860
  116OSM   H17S12179   0.948   6.576   8.907  0.0305 -1.2943 -1.9231
  116OSM   H17T12180   0.790   6.557   8.989 -0.9337 -2.1956  0.9790
  116OSM   C18S12181   0.895   6.367   8.954 -0.8582 -0.4584  0.1313
  116OSM   H18S12182   0.836   6.308   9.028 -0.1766 -1.7740 -0.3422
  116OSM   H18T12183   1.001   6.333   8.963 -0.2082  1.4555  0.0039
  116OSM   H18U12184   0.862   6.350   8.850  0.2156  0.6403 -0.4112
  116OSM    C1F12185   0.624   5.614  10.373 -0.4426  0.1327  0.5491
  116OSM     OF12186   0.543   5.656  10.454  0.1451 -0.4714  0.1406
  116OSM    C2F12187   0.587   5.499  10.279 -0.6254  0.0228  0.3651
  116OSM    H2F12188   0.608   5.404  10.332  0.0041  0.4949  0.9693
  116OSM    H2G12189   0.646   5.498  10.185 -2.2153 -2.2959 -0.7169
  116OSM    C3F12190   0.439   5.507  10.242  0.4269 -0.3373  0.2338
  116OSM    H3F12191   0.406   5.612  10.227 -1.0733 -0.3663  2.7643
  116OSM    H3G12192   0.369   5.475  10.321 -1.8690  1.6359 -0.8646
  116OSM    C4F12193   0.409   5.429  10.113  0.4277  0.4714  0.0215
  116OSM    H4F12194   0.306   5.389  10.127 -0.8585  3.3859 -0.3967
  116OSM    H4G12195   0.482   5.346  10.102 -1.0324 -0.6734 -1.5096
  116OSM    C5F12196   0.394   5.515   9.984 -0.0847 -0.0467 -0.3856
  116OSM    H5F12197   0.487   5.569   9.956  0.0284  0.4660  0.8931
  116OSM    H5G12198   0.324   5.596  10.012  0.5766  0.7350 -0.9573
  116OSM    C6F12199   0.344   5.444   9.858  0.8456  0.4491  0.2070
  116OSM    H6F12200   0.246   5.395   9.876  0.8512  1.3161  2.9806
  116OSM    H6G12201   0.418   5.366   9.830  1.4342  0.5459  1.4768
  116OSM    C7F12202   0.314   5.543   9.738  0.2354 -0.1902  0.2334
  116OSM    H7F12203   0.405   5.579   9.685 -0.7234 -0.0951 -1.4266
  116OSM    H7G12204   0.266   5.630   9.788 -2.5820 -2.6696  2.1798
  116OSM    C8F12205   0.229   5.492   9.621  0.2294  0.2594 -0.3676
  116OSM    H8F12206   0.207   5.573   9.548 -1.5762 -0.0128 -0.1582
  116OSM    H8G12207   0.131   5.458   9.661  0.4749  0.1108  0.1103
  116OSM    C9F12208   0.314   5.389   9.549 -0.0584 -0.5601 -0.1749
  116OSM    H9F12209   0.352   5.302   9.605 -1.6391 -1.7067 -0.8022
  116OSM   C10F12210   0.334   5.382   9.415 -0.1907 -0.2812 -0.1181
  116OSM   H10F12211   0.398   5.299   9.381  0.5680  0.0983  0.3441
  116OSM   C11F12212   0.289   5.480   9.309  0.0725 -0.0698 -0.6190
  116OSM   H11F12213   0.183   5.513   9.319 -0.3809 -1.2901 -1.1315
  116OSM   H11G12214   0.285   5.432   9.209 -1.4700  0.7157 -0.9584
  116OSM   C12F12215   0.381   5.601   9.314 -0.2653 -0.4202 -0.1264
  116OSM   H12F12216   0.483   5.557   9.317 -0.4914 -0.9536  2.3383
  116OSM   H12G12217   0.352   5.668   9.398  1.3334  0.7930 -0.5070
  116OSM   C13F12218   0.370   5.696   9.195  0.7424  0.1308 -0.3119
  116OSM   H13F12219   0.448   5.776   9.204  0.3387  0.4310  0.6463
  116OSM   H13G12220   0.275   5.752   9.188  1.2302  0.8916 -1.1051
  116OSM   C14F12221   0.381   5.623   9.064  0.3160  0.3659  0.1523
  116OSM   H14F12222   0.279   5.585   9.044  1.2160 -1.0228 -2.2453
  116OSM   H14G12223   0.451   5.537   9.073  1.1584  1.0047 -0.1880
  116OSM   C15F12224   0.417   5.721   8.948  0.7151 -0.3675  0.2433
  116OSM   H15F12225   0.528   5.713   8.956  0.5999  0.0518  3.2102
  116OSM   H15G12226   0.397   5.830   8.956  0.9104 -0.2093 -1.1544
  116OSM   C16F12227   0.371   5.668   8.812  0.4201  0.1162  0.1748
  116OSM   H16F12228   0.269   5.702   8.784  0.8718  0.7902 -0.7039
  116OSM   H16G12229   0.357   5.558   8.810 -0.6264  0.2177  1.0012
  116OSM   C17F12230   0.462   5.705   8.698 -0.0391  0.2503 -0.1782
  116OSM   H17F12231   0.567   5.694   8.732  0.4603 -3.1717 -2.3788
  116OSM   H17G12232   0.444   5.811   8.666  0.1408 -0.5179 -3.1710
  116OSM   C18F12233   0.443   5.613   8.579 -0.6584  0.4402 -0.3482
  116OSM   H18F12234   0.335   5.609   8.553 -0.7240 -4.8012 -0.2395
  116OSM   H18G12235   0.475   5.512   8.610 -1.1768  0.7319  1.2278
  116OSM   H18H12236   0.498   5.651   8.491 -1.1157  0.5721 -0.5833
  117OSM      N12237   5.025   6.492  10.951  0.0781 -0.4667  0.2972
  117OSM    C1512238   5.021   6.347  10.922 -0.0306  0.9244  0.6194
  117OSM   H15A12239   5.107   6.303  10.874 -2.4107 -3.7600  0.0584
  117OSM   H15B12240   4.937   6.329  10.856  0.7727  0.2738 -0.2485
  117OSM   H15C12241   5.009   6.281  11.007  2.8825 -0.1779  0.2905
  117OSM    C1412242   4.888   6.524  10.999 -0.0262  0.1155 -0.6195
  117OSM   H14A12243   4.884   6.627  11.031  2.2942  0.0012  0.2160
  117OSM   H14B12244   4.861   6.471  11.089  1.2559  0.9175  0.2653
  117OSM   H14C12245   4.818   6.525  10.917 -1.3048 -0.5774  0.4154
  117OSM    C1312246   5.128   6.524  11.051  0.4433 -0.4723 -0.1418
  117OSM   H13A12247   5.226   6.492  11.019  1.6611  2.6215  0.1753
  117OSM   H13B12248   5.102   6.493  11.151 -0.3220  0.5153 -0.0233
  117OSM   H13C12249   5.137   6.630  11.068  1.0128 -0.5755  0.2370
  117OSM    C1212250   5.049   6.573  10.830 -0.1109  0.2211  0.3759
  117OSM   H12A12251   4.965   6.555  10.765 -0.9563  0.9368  1.2560
  117OSM   H12B12252   5.135   6.538  10.775 -0.1502 -1.3792  1.2966
  117OSM    C1112253   5.067   6.722  10.849 -0.3155 -0.3691  0.5950
  117OSM   H11A12254   5.062   6.779  10.754 -0.9278 -1.7854 -0.2424
  117OSM   H11B12255   5.169   6.733  10.893 -0.2553  0.5353  0.2550
  117OSM      P12256   4.836   6.844  10.888  0.0140  0.0574 -0.4952
  117OSM    O1312257   4.739   6.735  10.859 -0.0955  0.1808  0.4822
  117OSM    O1412258   4.794   6.946  10.986 -0.0501 -0.0845 -0.2589
  117OSM    O1112259   4.879   6.916  10.751 -0.2102 -0.2349  0.3267
  117OSM    O1212260   4.972   6.781  10.939 -0.3084  0.5442 -0.0273
  117OSM    C1S12261   4.980   7.023  10.735  0.0721  0.1833 -0.0932
  117OSM    H1S12262   5.077   6.991  10.778  0.4346 -2.0498 -2.3045
  117OSM    H1T12263   4.954   7.118  10.786 -0.2097  0.4310 -0.6947
  117OSM     NF12264   5.122   7.155  10.572  0.1356 -0.3753 -0.0532
  117OSM    HNF12265   5.093   7.250  10.564  0.8810 -0.2509 -1.5800
  117OSM    C2S12266   5.012   7.059  10.581  0.4232  0.4307 -0.6489
  117OSM    H2S12267   5.040   6.969  10.523  2.3137  0.7106 -0.2482
  117OSM    C3S12268   4.873   7.102  10.518  0.7732  0.4810 -0.2901
  117OSM    H3S12269   4.827   7.183  10.578 -0.4498  0.3910 -1.0750
  117OSM     O312270   4.774   7.004  10.531  0.1814  0.2220  0.2443
  117OSM    HO312271   4.788   6.955  10.612 -0.3873  0.5570  0.5539
  117OSM    C4S12272   4.883   7.136  10.377  0.0571  0.3416  0.1613
  117OSM    H4S12273   4.922   7.059  10.308  2.1416  1.8464 -0.4631
  117OSM    C5S12274   4.825   7.245  10.325 -0.9601 -0.7862  0.4882
  117OSM    H5S12275   4.755   7.307  10.382 -1.7947 -0.3144 -1.0112
  117OSM    C6S12276   4.820   7.294  10.180 -0.2606 -0.5898  0.6468
  117OSM    H6S12277   4.844   7.403  10.185 -1.6465 -0.2234 -0.1871
  117OSM    H6T12278   4.713   7.291  10.152 -0.1649  1.5434 -0.1526
  117OSM    C7S12279   4.926   7.231  10.077 -0.5439  0.2421 -0.1123
  117OSM    H7S12280   4.915   7.121  10.070  1.3397 -0.0518  1.0173
  117OSM    H7T12281   5.031   7.256  10.101  0.7906 -1.8604 -3.2302
  117OSM    C8S12282   4.906   7.269   9.924  0.1168  0.0427  0.6677
  117OSM    H8S12283   4.798   7.261   9.900 -0.0844 -1.8711  2.0084
  117OSM    H8T12284   4.954   7.199   9.852 -0.7510 -1.1012  1.1724
  117OSM    C9S12285   4.953   7.406   9.873  0.0218  0.1415  0.2386
  117OSM    H9S12286   5.062   7.421   9.884  0.2886 -1.6206  0.4087
  117OSM    H9T12287   4.902   7.489   9.927 -1.5053  2.0747 -3.7869
  117OSM   C10S12288   4.911   7.429   9.723 -0.6178 -1.1585 -0.1490
  117OSM   H10S12289   4.813   7.378   9.725  1.3319 -5.3026  0.9110
  117OSM   H10T12290   4.985   7.364   9.671  0.6421 -1.1934  1.6246
  117OSM   C11S12291   4.914   7.574   9.678  0.4678 -0.2734  0.2535
  117OSM   H11S12292   5.016   7.615   9.658  0.5631  0.4879  2.0552
  117OSM   H11T12293   4.878   7.644   9.757  2.1913 -0.7933  1.5722
  117OSM   C12S12294   4.832   7.596   9.553  0.2091 -0.0872  0.1795
  117OSM   H12S12295   4.850   7.701   9.521  3.6005 -0.1334  1.6162
  117OSM   H12T12296   4.724   7.572   9.568  0.2898  0.4939  1.8877
  117OSM   C13S12297   4.896   7.509   9.443  0.3997  0.1546  0.4066
  117OSM   H13S12298   4.924   7.406   9.475  1.6745  1.4320  3.8870
  117OSM   H13T12299   4.997   7.547   9.419  1.5609 -0.9811  3.0720
  117OSM   C14S12300   4.801   7.496   9.317  0.4238 -0.1295 -0.4177
  117OSM   H14S12301   4.699   7.459   9.342 -0.2889  1.3604 -1.0346
  117OSM   H14T12302   4.843   7.424   9.244 -1.9638  0.2772 -2.2872
  117OSM   C15S12303   4.781   7.640   9.256 -0.1461  0.2425  0.1347
  117OSM   H15S12304   4.875   7.699   9.247  0.8113 -0.9118  1.9912
  117OSM   H15T12305   4.725   7.712   9.319 -0.7503 -1.6621  1.8772
  117OSM   C16S12306   4.719   7.631   9.111  0.7426  0.4739 -0.0966
  117OSM   H16S12307   4.788   7.567   9.053 -0.0447 -1.7594  1.2943
  117OSM   H16T12308   4.720   7.736   9.075 -1.4725  0.8061  0.6314
  117OSM   C17S12309   4.582   7.575   9.096  0.2469  0.8519  0.0857
  117OSM   H17S12310   4.509   7.638   9.151  1.0000  1.1332  0.7799
  117OSM   H17T12311   4.581   7.476   9.148  0.7725  2.2239  2.9028
  117OSM   C18S12312   4.541   7.572   8.946 -0.1336 -0.5247  1.0339
  117OSM   H18S12313   4.604   7.515   8.875 -1.6416 -1.4277  0.3754
  117OSM   H18T12314   4.535   7.673   8.899  0.1603 -1.8805 -2.1335
  117OSM   H18U12315   4.437   7.534   8.932 -0.9543  1.5481  1.1196
  117OSM    C1F12316   5.249   7.119  10.578  0.7174 -0.3252  0.1451
  117OSM     OF12317   5.262   6.999  10.610 -0.3381 -0.4412 -0.3067
  117OSM    C2F12318   5.365   7.221  10.564  0.3417 -0.7850 -0.3134
  117OSM    H2F12319   5.425   7.220  10.658 -1.3124  1.5545  0.8441
  117OSM    H2G12320   5.313   7.319  10.564 -1.8823 -1.8685  1.8729
  117OSM    C3F12321   5.453   7.193  10.443  0.0405 -0.5722  0.1811
  117OSM    H3F12322   5.518   7.106  10.465 -1.3983 -1.7828 -0.2180
  117OSM    H3G12323   5.509   7.287  10.422 -3.0662  1.1256 -1.3222
  117OSM    C4F12324   5.390   7.154  10.313  0.5096  0.2077  0.0921
  117OSM    H4F12325   5.340   7.058  10.338  0.8429  0.2830  1.0695
  117OSM    H4G12326   5.475   7.135  10.244  0.4582  0.1960  0.0309
  117OSM    C5F12327   5.301   7.266  10.256  0.0776  0.0344  0.2581
  117OSM    H5F12328   5.225   7.287  10.335  0.3983  1.5283  0.1940
  117OSM    H5G12329   5.260   7.250  10.154  0.5858  0.9446 -0.0924
  117OSM    C6F12330   5.377   7.398  10.227 -0.3957  0.0025  0.3685
  117OSM    H6F12331   5.412   7.444  10.322 -2.7495  0.1298  1.2267
  117OSM    H6G12332   5.306   7.473  10.185 -0.5687  0.5460  1.5779
  117OSM    C7F12333   5.489   7.395  10.124 -0.4791  0.5345  0.8323
  117OSM    H7F12334   5.563   7.316  10.149 -0.5484  0.1551 -0.1353
  117OSM    H7G12335   5.546   7.490  10.120  0.8220 -0.2701 -0.8919
  117OSM    C8F12336   5.455   7.357   9.977  0.5559  0.0197  0.4580
  117OSM    H8F12337   5.398   7.262   9.968  0.5409  0.1638 -1.2955
  117OSM    H8G12338   5.556   7.333   9.937 -0.1032  0.1783 -1.3851
  117OSM    C9F12339   5.386   7.470   9.913 -0.5901  0.0784 -0.2176
  117OSM    H9F12340   5.289   7.497   9.957  0.2463 -0.2868  1.9850
  117OSM   C10F12341   5.445   7.555   9.823 -0.0150 -0.1073  0.0254
  117OSM   H10F12342   5.380   7.633   9.780  1.6254  2.1332  1.3806
  117OSM   C11F12343   5.580   7.530   9.756 -0.0538  0.2085  0.5788
  117OSM   H11F12344   5.598   7.421   9.757 -2.3027 -0.2392 -0.6750
  117OSM   H11G12345   5.664   7.577   9.812  0.2195  2.0497 -1.2477
  117OSM   C12F12346   5.584   7.577   9.613 -0.0935 -0.1738 -0.3928
  117OSM   H12F12347   5.685   7.599   9.573  0.9623 -1.6739  1.3000
  117OSM   H12G12348   5.530   7.674   9.614 -0.0984 -0.1207  2.6719
  117OSM   C13F12349   5.521   7.465   9.531  0.0107  0.2547  0.2665
  117OSM   H13F12350   5.414   7.461   9.561  0.0828 -0.5108  0.4652
  117OSM   H13G12351   5.563   7.366   9.559  2.5903  1.6503  1.6616
  117OSM   C14F12352   5.538   7.469   9.379  0.0178  0.4368  0.2948
  117OSM   H14F12353   5.635   7.424   9.348 -0.3284 -1.0671  1.2514
  117OSM   H14G12354   5.533   7.570   9.334  1.6417  0.1247 -0.6734
  117OSM   C15F12355   5.428   7.378   9.313 -0.1064 -0.4152 -0.1933
  117OSM   H15F12356   5.332   7.394   9.366 -0.1412  0.7910 -0.5912
  117OSM   H15G12357   5.457   7.273   9.332 -0.2496 -0.6853 -1.4323
  117OSM   C16F12358   5.395   7.402   9.165  0.8053  0.2811  0.6707
  117OSM   H16F12359   5.477   7.367   9.100  0.2772 -1.9897  1.1342
  117OSM   H16G12360   5.402   7.511   9.146  2.4499  0.5317  2.3619
  117OSM   C17F12361   5.270   7.337   9.102 -0.2064 -0.2055 -0.2718
  117OSM   H17F12362   5.178   7.378   9.149  0.5300  2.1573 -0.7573
  117OSM   H17G12363   5.279   7.228   9.117  1.3093  0.0297  0.7092
  117OSM   C18F12364   5.258   7.360   8.952  0.5039  0.3159  0.1851
  117OSM   H18F12365   5.315   7.286   8.892 -0.5222 -0.7894  0.5334
  117OSM   H18G12366   5.279   7.466   8.927 -1.9798  0.7986 -0.1574
  117OSM   H18H12367   5.149   7.339   8.941  0.7192 -0.5867 -0.3522
  118OSM      N12368   3.964   2.101  10.950 -0.0185  0.4903 -0.2533
  118OSM    C1512369   3.987   2.079  10.800  0.3021  0.5084 -0.4159
  118OSM   H15A12370   4.041   1.991  10.772 -0.0758 -0.4798  1.7390
  118OSM   H15B12371   4.023   2.170  10.754 -1.4020  1.5545  0.1862
  118OSM   H15C12372   3.890   2.063  10.756 -0.1275 -0.8459  0.9443
  118OSM    C1412373   3.909   2.236  10.970  0.7140  0.0774 -0.2700
  118OSM   H14A12374   3.818   2.247  10.912  0.0103 -0.5399  0.6862
  118OSM   H14B12375   3.983   2.309  10.941  0.4227  1.2822  1.7987
  118OSM   H14C12376   3.882   2.247  11.074 -0.8472 -0.9233 -0.5404
  118OSM    C1312377   3.853   2.013  11.000 -0.7252 -0.1631 -0.2002
  118OSM   H13A12378   3.834   2.026  11.106  1.4359  0.9438  0.1322
  118OSM   H13B12379   3.865   1.909  10.971  0.8829 -0.0307 -0.1485
  118OSM   H13C12380   3.764   2.051  10.953 -0.8590  0.3669  0.4763
  118OSM    C1212381   4.084   2.076  11.036  0.0406 -0.0626  0.3800
  118OSM   H12A12382   4.117   1.974  11.023  1.0100  0.3361 -0.3972
  118OSM   H12B12383   4.058   2.089  11.140 -2.0262 -0.5716 -0.0384
  118OSM    C1112384   4.208   2.166  11.009  0.0328  0.0954 -0.0247
  118OSM   H11A12385   4.183   2.271  11.036 -2.5135 -1.2132  3.4583
  118OSM   H11B12386   4.222   2.167  10.898 -1.6815  2.1830 -0.3010
  118OSM      P12387   4.406   2.004  11.060  0.0597  0.1262  0.1137
  118OSM    O1312388   4.523   2.014  11.143  0.0336  0.5297 -0.0761
  118OSM    O1412389   4.327   1.877  11.077 -0.0907  0.5200 -0.4560
  118OSM    O1112390   4.446   2.017  10.907 -0.1512 -0.3306  0.4338
  118OSM    O1212391   4.323   2.132  11.087  0.3131 -0.1955  0.1216
  118OSM    C1S12392   4.576   2.021  10.861  0.0423 -0.0894 -0.3585
  118OSM    H1S12393   4.644   1.958  10.922 -1.2847 -2.4330 -1.1838
  118OSM    H1T12394   4.611   2.127  10.863 -1.7571  0.5226  0.8258
  118OSM     NF12395   4.732   1.938  10.676  0.2197 -0.1919 -0.1460
  118OSM    HNF12396   4.762   1.990  10.596 -1.2258 -0.2114 -0.7384
  118OSM    C2S12397   4.587   1.963  10.711 -0.3226 -0.9516 -0.8472
  118OSM    H2S12398   4.542   1.862  10.704 -0.0066 -1.0619 -1.3391
  118OSM    C3S12399   4.505   2.061  10.619  0.0982  0.3110 -0.0528
  118OSM    H3S12400   4.549   2.160  10.641 -3.6189  1.6183  2.2738
  118OSM     O312401   4.363   2.073  10.653 -0.0300 -0.7255 -0.0831
  118OSM    HO312402   4.364   2.044  10.745 -0.3199 -0.1722  0.1007
  118OSM    C4S12403   4.498   2.010  10.483 -0.0030 -0.2950  0.3197
  118OSM    H4S12404   4.431   1.923  10.473  0.7921 -0.7376 -1.6719
  118OSM    C5S12405   4.560   2.057  10.371  0.2964 -0.0571 -0.2615
  118OSM    H5S12406   4.613   2.153  10.374  1.8232 -0.8821  1.1159
  118OSM    C6S12407   4.553   1.989  10.238  0.2608 -0.7523 -0.2131
  118OSM    H6S12408   4.501   1.891  10.244 -2.5815  0.7292  2.0346
  118OSM    H6T12409   4.652   1.973  10.191 -0.3426 -1.5600 -1.2593
  118OSM    C7S12410   4.488   2.075  10.130  0.4019  0.2484  0.0094
  118OSM    H7S12411   4.535   2.175  10.118  2.5719 -0.7603 -0.3574
  118OSM    H7T12412   4.378   2.082  10.148  0.3596 -0.0177 -0.1548
  118OSM    C8S12413   4.508   2.002   9.998 -0.4840  0.3814 -0.9572
  118OSM    H8S12414   4.462   1.901   9.997 -1.8042  0.9659 -1.7655
  118OSM    H8T12415   4.611   1.992   9.957  0.7624  1.6534  1.5879
  118OSM    C9S12416   4.442   2.077   9.886  0.3685  0.2537  1.0499
  118OSM    H9S12417   4.470   2.184   9.874  3.1546 -0.5046  0.1730
  118OSM    H9T12418   4.331   2.084   9.891  0.3568  0.1891  0.8843
  118OSM   C10S12419   4.464   2.029   9.737  0.9097  0.0176  0.1879
  118OSM   H10S12420   4.466   1.918   9.739  1.1583 -0.0071  2.8265
  118OSM   H10T12421   4.562   2.072   9.708  1.2505 -0.4416  0.6627
  118OSM   C11S12422   4.361   2.086   9.636  0.3126  0.2212 -0.0744
  118OSM   H11S12423   4.359   2.197   9.645 -0.3436  0.4365 -2.3018
  118OSM   H11T12424   4.263   2.044   9.666  0.6271  1.0737  2.4425
  118OSM   C12S12425   4.398   2.058   9.497 -0.4258  0.2673 -0.5504
  118OSM   H12S12426   4.405   1.949   9.479 -2.2125 -0.1000  0.6879
  118OSM   H12T12427   4.499   2.100   9.476 -0.3578  0.1522 -0.4512
  118OSM   C13S12428   4.303   2.104   9.392  0.0194 -0.1373  0.5681
  118OSM   H13S12429   4.296   2.215   9.394  0.5335 -0.0871  0.0682
  118OSM   H13T12430   4.199   2.068   9.409 -0.6332 -0.2222 -2.8463
  118OSM   C14S12431   4.337   2.058   9.245  0.5137  0.3984 -0.6566
  118OSM   H14S12432   4.245   2.065   9.183  0.6877 -3.0958 -1.5469
  118OSM   H14T12433   4.346   1.948   9.258 -1.1750  0.4458  1.7030
  118OSM   C15S12434   4.458   2.133   9.192 -0.5758  0.7512 -0.0994
  118OSM   H15S12435   4.550   2.095   9.242 -1.2253 -0.0529  0.5317
  118OSM   H15T12436   4.444   2.240   9.217 -1.8690 -0.0008  2.9610
  118OSM   C16S12437   4.477   2.110   9.038 -0.5911  0.1665  0.4463
  118OSM   H16S12438   4.378   2.126   8.991 -1.0732  0.3552  1.4882
  118OSM   H16T12439   4.496   2.001   9.037  1.9189  0.5242 -1.6403
  118OSM   C17S12440   4.584   2.193   8.968  0.3542  0.0342 -0.0047
  118OSM   H17S12441   4.676   2.192   9.030  0.0527  1.0234  0.4764
  118OSM   H17T12442   4.550   2.299   8.967  0.4174  0.0547  0.0437
  118OSM   C18S12443   4.617   2.137   8.831  0.1918 -0.7821  0.4544
  118OSM   H18S12444   4.664   2.037   8.841  0.5302 -0.4572  2.4606
  118OSM   H18T12445   4.679   2.212   8.776  0.1272 -1.4054 -0.4953
  118OSM   H18U12446   4.520   2.136   8.778 -1.2034  0.7225  2.8029
  118OSM    C1F12447   4.800   1.838  10.726 -0.0884  0.1380 -0.6283
  118OSM     OF12448   4.731   1.752  10.777  0.6681  0.3097 -0.5446
  118OSM    C2F12449   4.947   1.816  10.716 -0.2252 -0.1155 -1.3340
  118OSM    H2F12450   4.984   1.806  10.820 -1.4188  0.7155 -0.8066
  118OSM    H2G12451   4.993   1.901  10.662  1.3898 -0.1752 -0.0997
  118OSM    C3F12452   4.977   1.692  10.637 -0.5280 -0.8366  0.6359
  118OSM    H3F12453   4.935   1.597  10.676 -1.4384 -1.7639 -2.3309
  118OSM    H3G12454   5.087   1.699  10.633 -0.3575 -0.0599  3.7648
  118OSM    C4F12455   4.914   1.694  10.494  0.3348 -0.2504 -0.1159
  118OSM    H4F12456   4.803   1.690  10.492  0.2327  1.9163 -1.4895
  118OSM    H4G12457   4.951   1.617  10.424  1.6871  1.3361 -1.2078
  118OSM    C5F12458   4.953   1.822  10.416 -0.7213 -0.3680 -0.3038
  118OSM    H5F12459   5.054   1.854  10.448 -1.2585  0.4129  0.6836
  118OSM    H5G12460   4.886   1.904  10.452  0.6431  0.2605  0.9123
  118OSM    C6F12461   4.966   1.815  10.259  0.1851 -0.4203 -0.5631
  118OSM    H6F12462   4.870   1.767  10.229 -0.6432 -0.9031  2.4485
  118OSM    H6G12463   5.060   1.764  10.228  0.8799 -0.4873  1.4997
  118OSM    C7F12464   4.966   1.952  10.193 -0.0376  0.3851 -0.4465
  118OSM    H7F12465   5.043   2.015  10.242  1.0572  0.3102 -1.9942
  118OSM    H7G12466   4.866   1.998  10.207 -0.7276 -0.3355 -2.6652
  118OSM    C8F12467   5.004   1.949  10.043 -0.6617 -0.3873  0.1074
  118OSM    H8F12468   5.102   1.898  10.036 -0.6415 -0.7668  2.4042
  118OSM    H8G12469   5.021   2.054  10.012  0.5754 -0.7513 -0.4765
  118OSM    C9F12470   4.894   1.883   9.956 -0.0403 -0.4986 -1.0606
  118OSM    H9F12471   4.869   1.782   9.992 -0.3217  0.4438  1.6713
  118OSM   C10F12472   4.840   1.925   9.839 -0.7110  0.5988  0.3855
  118OSM   H10F12473   4.782   1.851   9.782  0.4183  0.0116 -0.0314
  118OSM   C11F12474   4.866   2.052   9.766  0.3353  0.6204 -0.1385
  118OSM   H11F12475   4.919   2.121   9.835 -1.2197  2.0322 -0.2726
  118OSM   H11G12476   4.767   2.103   9.757  0.2097  0.5095  0.6087
  118OSM   C12F12477   4.928   2.048   9.623  0.4584 -0.7564 -0.4813
  118OSM   H12F12478   5.006   1.970   9.613 -0.0785 -1.5115  0.8341
  118OSM   H12G12479   4.982   2.144   9.619  2.1047 -1.5783  0.8887
  118OSM   C13F12480   4.816   2.041   9.514  1.5430  0.2530  0.6177
  118OSM   H13F12481   4.734   2.108   9.548  0.1024 -0.8945 -0.4759
  118OSM   H13G12482   4.763   1.943   9.524  1.9979 -0.1392 -0.6706
  118OSM   C14F12483   4.870   2.044   9.372 -0.0970  0.0064 -0.6067
  118OSM   H14F12484   4.980   2.028   9.370 -0.2284 -0.9605 -0.6238
  118OSM   H14G12485   4.855   2.147   9.334 -2.6695 -0.4060 -0.8894
  118OSM   C15F12486   4.816   1.930   9.279  0.5046 -0.2449  0.5157
  118OSM   H15F12487   4.705   1.931   9.276  0.5273 -0.5367 -1.1814
  118OSM   H15G12488   4.842   1.831   9.322  1.1529  0.1255  1.0012
  118OSM   C16F12489   4.865   1.929   9.131  0.1957 -0.7319 -0.1930
  118OSM   H16F12490   4.975   1.915   9.133  0.3743  0.5320 -0.4289
  118OSM   H16G12491   4.835   2.024   9.082 -0.8081 -1.4549 -1.0386
  118OSM   C17F12492   4.800   1.816   9.042  0.5182  0.6045 -0.0562
  118OSM   H17F12493   4.694   1.843   9.023  0.1400 -1.8813 -1.7585
  118OSM   H17G12494   4.796   1.726   9.107 -1.8458 -0.9306 -2.1890
  118OSM   C18F12495   4.869   1.783   8.917  0.2681 -0.1923  0.1058
  118OSM   H18F12496   4.840   1.693   8.858  1.5521 -1.1770  0.9212
  118OSM   H18G12497   4.975   1.772   8.949  0.8528  0.4076 -1.5586
  118OSM   H18H12498   4.878   1.875   8.856  2.3517 -0.0244  0.6123
  119OSM      N12499   6.402   1.847  11.137  0.2572 -0.3508  0.8143
  119OSM    C1512500   6.382   1.984  11.202  0.0496  0.1051 -0.1982
  119OSM   H15A12501   6.276   2.007  11.206 -0.2745 -1.3450  0.0094
  119OSM   H15B12502   6.442   2.059  11.153  0.5108 -0.4798 -0.5327
  119OSM   H15C12503   6.414   1.983  11.305  1.8634  1.2580 -0.7018
  119OSM    C1412504   6.548   1.807  11.150  0.8221  0.0887  0.5411
  119OSM   H14A12505   6.614   1.870  11.092  1.3299  0.9419  2.0151
  119OSM   H14B12506   6.559   1.707  11.111  0.7639 -0.0248  0.8127
  119OSM   H14C12507   6.585   1.804  11.251  1.5330 -1.5915  0.2640
  119OSM    C1312508   6.321   1.742  11.208  0.3126 -0.1742 -0.1951
  119OSM   H13A12509   6.215   1.764  11.214 -0.8552 -4.7024 -0.2804
  119OSM   H13B12510   6.356   1.720  11.308  1.8683 -0.1125 -0.7017
  119OSM   H13C12511   6.319   1.648  11.154  2.5151  0.3526 -1.2827
  119OSM    C1212512   6.373   1.849  10.989 -0.2587  0.0570 -0.0070
  119OSM   H12A12513   6.424   1.937  10.951  0.3714 -0.1781  0.2867
  119OSM   H12B12514   6.266   1.856  10.977 -0.5054  0.9194  2.3073
  119OSM    C1112515   6.408   1.732  10.887  0.4497 -1.0568 -0.3106
  119OSM   H11A12516   6.517   1.723  10.872  0.6224  0.8073 -0.4201
  119OSM   H11B12517   6.366   1.756  10.787 -1.4250 -1.5249  0.3260
  119OSM      P12518   6.449   1.477  10.937 -0.3026 -0.2173 -0.4399
  119OSM    O1312519   6.579   1.518  11.007  0.1728 -0.3087  0.4122
  119OSM    O1412520   6.368   1.377  11.007 -0.0538  0.3411  0.1370
  119OSM    O1112521   6.474   1.431  10.794 -0.8429  0.2806  0.9454
  119OSM    O1212522   6.350   1.603  10.930  0.2314 -0.5090  0.4452
  119OSM    C1S12523   6.371   1.448  10.693 -0.1684 -0.3006  0.0592
  119OSM    H1S12524   6.362   1.557  10.674  1.0596  0.1160  1.6577
  119OSM    H1T12525   6.272   1.401  10.715 -1.2161  1.4085 -0.7460
  119OSM     NF12526   6.325   1.414  10.449  0.9450  0.0567 -0.7907
  119OSM    HNF12527   6.259   1.340  10.437  1.5846 -0.8390  0.9853
  119OSM    C2S12528   6.420   1.392  10.555 -0.1413 -0.0786 -0.6495
  119OSM    H2S12529   6.505   1.457  10.527 -0.8240  1.1951  0.1463
  119OSM    C3S12530   6.469   1.242  10.570 -0.4895  0.3943 -0.2518
  119OSM    H3S12531   6.382   1.178  10.597  0.8884 -1.4604 -0.0294
  119OSM     O312532   6.553   1.225  10.684  0.6181 -0.7821 -0.3620
  119OSM    HO312533   6.530   1.308  10.726 -0.1681 -1.2919  0.2617
  119OSM    C4S12534   6.541   1.189  10.449 -0.2965 -0.5750 -0.1231
  119OSM    H4S12535   6.634   1.244  10.427 -0.8986  0.2496 -0.6348
  119OSM    C5S12536   6.511   1.070  10.385  0.3890 -0.0463  0.1044
  119OSM    H5S12537   6.436   0.997  10.419  0.4311  0.5016  1.4704
  119OSM    C6S12538   6.597   1.021  10.275  0.6141  0.7188  0.3493
  119OSM    H6S12539   6.602   0.910  10.272 -0.6829  0.6283  0.8482
  119OSM    H6T12540   6.700   1.056  10.295  0.4745 -0.0544  2.7046
  119OSM    C7S12541   6.525   1.071  10.149  0.4560  0.0870  0.7756
  119OSM    H7S12542   6.531   1.182  10.146 -0.1242  0.1036 -1.4510
  119OSM    H7T12543   6.419   1.041  10.142  0.6548 -1.2792  2.6924
  119OSM    C8S12544   6.611   1.039  10.018  0.5770 -0.2629 -0.1157
  119OSM    H8S12545   6.720   1.031  10.041  0.4201  0.3686  0.9421
  119OSM    H8T12546   6.590   1.124   9.950 -1.8601 -0.4551  0.3197
  119OSM    C9S12547   6.569   0.902   9.965  0.7501 -0.3760  0.5047
  119OSM    H9S12548   6.459   0.899   9.949  0.5950  0.0581  1.4305
  119OSM    H9T12549   6.585   0.840  10.055  0.3530  0.6775  1.3293
  119OSM   C10S12550   6.632   0.874   9.828  0.5575 -0.3137 -0.6582
  119OSM   H10S12551   6.734   0.833   9.842  1.2643  1.8908  1.2204
  119OSM   H10T12552   6.647   0.968   9.772  1.1364 -0.7903 -1.3128
  119OSM   C11S12553   6.542   0.781   9.745 -0.6240 -0.4400  0.2743
  119OSM   H11S12554   6.434   0.804   9.755 -0.0531  2.2388  1.0374
  119OSM   H11T12555   6.553   0.676   9.781 -0.5486 -0.4939  0.0911
  119OSM   C12S12556   6.576   0.794   9.595 -0.3832  0.1363  0.4200
  119OSM   H12S12557   6.556   0.694   9.551 -1.4090 -0.4655  2.1728
  119OSM   H12T12558   6.686   0.803   9.581 -0.3231 -0.7429  0.3045
  119OSM   C13S12559   6.493   0.909   9.529 -0.1524  0.0645  0.0508
  119OSM   H13S12560   6.510   0.999   9.592 -1.2953  0.5766 -0.3506
  119OSM   H13T12561   6.384   0.896   9.543 -0.2016  1.5826  1.3414
  119OSM   C14S12562   6.523   0.940   9.382 -0.5160 -0.0487  0.2992
  119OSM   H14S12563   6.633   0.941   9.368 -0.4193 -1.8864  0.6261
  119OSM   H14T12564   6.491   1.042   9.354  1.4657  0.6926  0.5716
  119OSM   C15S12565   6.448   0.842   9.289 -0.4738  0.1890  0.0880
  119OSM   H15S12566   6.338   0.841   9.306 -0.7599  0.7973 -1.5200
  119OSM   H15T12567   6.483   0.740   9.319  2.0031  1.9623  3.9931
  119OSM   C16S12568   6.483   0.859   9.142 -0.7101 -0.0043  0.7696
  119OSM   H16S12569   6.586   0.818   9.139 -1.1728 -1.4641  2.7677
  119OSM   H16T12570   6.487   0.968   9.118  0.1181 -0.6049 -2.3441
  119OSM   C17S12571   6.406   0.769   9.046  0.4145 -0.2321  0.5287
  119OSM   H17S12572   6.379   0.685   9.114 -1.6143  0.5783  0.7696
  119OSM   H17T12573   6.464   0.730   8.960 -2.8620 -1.1081 -1.4303
  119OSM   C18S12574   6.282   0.830   8.978 -0.0795  0.2104  0.0977
  119OSM   H18S12575   6.201   0.813   9.053 -2.2531  0.6479 -2.0075
  119OSM   H18T12576   6.243   0.770   8.892  0.5994  0.3444 -0.3102
  119OSM   H18U12577   6.301   0.936   8.953  1.2330 -0.2150 -0.8274
  119OSM    C1F12578   6.298   1.535  10.401  0.3849 -0.2039  0.3531
  119OSM     OF12579   6.368   1.637  10.420  0.3957  0.6584 -0.2057
  119OSM    C2F12580   6.177   1.553  10.314 -0.5652  0.1838 -0.2950
  119OSM    H2F12581   6.088   1.551  10.380  1.3066  0.6670  2.4181
  119OSM    H2G12582   6.163   1.459  10.257 -2.3831 -0.9691  1.9168
  119OSM    C3F12583   6.183   1.675  10.221 -0.4736 -0.5555 -0.1488
  119OSM    H3F12584   6.288   1.678  10.185 -0.2215 -0.4815  0.5747
  119OSM    H3G12585   6.175   1.770  10.278  0.2825  0.9980 -2.4647
  119OSM    C4F12586   6.085   1.666  10.105 -0.2022  0.5154  0.0483
  119OSM    H4F12587   5.984   1.682  10.149 -0.5551 -2.9445  0.7364
  119OSM    H4G12588   6.080   1.562  10.067 -3.1233  0.4357  0.4045
  119OSM    C5F12589   6.097   1.760  10.000  0.3155  0.0308  0.3798
  119OSM    H5F12590   6.195   1.741   9.950 -0.4114 -0.8820 -0.7437
  119OSM    H5G12591   6.096   1.869  10.022  2.1538  0.3269 -0.8269
  119OSM    C6F12592   6.003   1.724   9.880 -0.0830  0.6360 -0.7863
  119OSM    H6F12593   5.905   1.762   9.915 -0.4136 -1.5425  0.8293
  119OSM    H6G12594   5.981   1.616   9.865  1.5413  0.3479 -1.3657
  119OSM    C7F12595   6.038   1.783   9.747 -0.4121 -0.4621  0.2978
  119OSM    H7F12596   6.125   1.720   9.719 -1.2451 -0.7917 -1.7566
  119OSM    H7G12597   6.065   1.890   9.755  0.3020 -0.6520  0.5350
  119OSM    C8F12598   5.928   1.772   9.634 -0.6176  0.6287 -0.2227
  119OSM    H8F12599   5.919   1.669   9.595  3.8949  0.2189 -0.7299
  119OSM    H8G12600   5.973   1.826   9.548 -2.2142  0.1433 -1.3914
  119OSM    C9F12601   5.792   1.832   9.660 -0.2824  0.2951 -0.4918
  119OSM    H9F12602   5.770   1.864   9.763  2.0845  0.2572  0.0889
  119OSM   C10F12603   5.692   1.855   9.570  0.2121  0.2864 -0.4061
  119OSM   H10F12604   5.596   1.901   9.596 -0.2045 -1.3471  1.1701
  119OSM   C11F12605   5.707   1.814   9.424 -0.2914 -0.1397 -0.2413
  119OSM   H11F12606   5.621   1.749   9.396  0.1403  0.6402 -3.7937
  119OSM   H11G12607   5.797   1.750   9.411 -0.7382 -1.4813  2.5951
  119OSM   C12F12608   5.723   1.941   9.344  0.4200 -0.6406  0.3506
  119OSM   H12F12609   5.803   1.996   9.400  0.0552 -2.1302  2.4689
  119OSM   H12G12610   5.637   2.010   9.354  0.5573 -0.5496  0.9244
  119OSM   C13F12611   5.766   1.940   9.199  0.5845 -0.2572  0.3055
  119OSM   H13F12612   5.832   1.852   9.180  0.4494 -0.3336  0.1907
  119OSM   H13G12613   5.817   2.035   9.173 -0.5310  0.7986  1.8170
  119OSM   C14F12614   5.644   1.945   9.105 -0.1088 -0.2045 -0.0828
  119OSM   H14F12615   5.668   1.978   9.002  0.9212  0.7378  0.4440
  119OSM   H14G12616   5.578   2.028   9.138  1.4956  1.1095 -0.0980
  119OSM   C15F12617   5.570   1.806   9.105  0.3006 -0.0948 -0.4428
  119OSM   H15F12618   5.495   1.806   9.187 -0.0673 -0.3962 -0.7749
  119OSM   H15G12619   5.639   1.720   9.121  1.7970  0.8534 -1.5287
  119OSM   C16F12620   5.512   1.778   8.967  0.4791  0.4644  0.5596
  119OSM   H16F12621   5.452   1.869   8.946  0.8800  0.3587 -1.2685
  119OSM   H16G12622   5.444   1.690   8.975  0.0677  0.6945 -0.3093
  119OSM   C17F12623   5.624   1.748   8.865 -0.3580  0.4441  0.2202
  119OSM   H17F12624   5.673   1.650   8.882  0.4165  0.7542 -0.1851
  119OSM   H17G12625   5.702   1.826   8.882  0.9014 -0.5632 -0.7552
  119OSM   C18F12626   5.562   1.766   8.729  0.0826 -0.4711  0.0023
  119OSM   H18F12627   5.493   1.684   8.701 -0.0288 -0.1001 -0.8659
  119OSM   H18G12628   5.643   1.767   8.653  1.3467  0.3381  1.2874
  119OSM   H18H12629   5.496   1.856   8.733 -1.8722 -1.8665  0.2623
  120OSM      N12630   5.419   4.983  10.281 -0.4503 -0.0469 -0.0289
  120OSM    C1512631   5.437   4.835  10.289 -0.3152 -0.3895 -0.0105
  120OSM   H15A12632   5.538   4.799  10.282  0.4365  1.6559 -0.3410
  120OSM   H15B12633   5.365   4.779  10.230  0.1655 -0.7720 -0.2384
  120OSM   H15C12634   5.400   4.794  10.382 -0.0341  0.8321  0.6604
  120OSM    C1412635   5.425   5.029  10.138  0.2847 -0.8592 -0.1839
  120OSM   H14A12636   5.522   5.021  10.091  1.8182  0.5342  2.5505
  120OSM   H14B12637   5.401   5.134  10.130  1.4854 -0.5327  0.3293
  120OSM   H14C12638   5.353   4.963  10.091  0.1859 -2.8352  2.5369
  120OSM    C1312639   5.281   5.022  10.324  0.5081  0.4882 -0.3413
  120OSM   H13A12640   5.212   4.962  10.267 -0.9964  2.2844 -0.5099
  120OSM   H13B12641   5.255   5.123  10.293  0.2359  0.7161  0.6206
  120OSM   H13C12642   5.260   5.006  10.428 -0.3162 -3.6946 -0.9879
  120OSM    C1212643   5.514   5.064  10.370 -0.0362 -0.2593  0.0367
  120OSM   H12A12644   5.612   5.041  10.332 -1.0453  0.2696 -3.1326
  120OSM   H12B12645   5.505   5.023  10.470  0.8683 -1.2697 -0.2860
  120OSM    C1112646   5.494   5.217  10.387  0.3425  0.5615 -0.0361
  120OSM   H11A12647   5.476   5.265  10.288 -1.7233  0.4243  0.2204
  120OSM   H11B12648   5.586   5.258  10.434 -0.5107  0.1150  2.1245
  120OSM      P12649   5.341   5.372  10.526 -0.1518  0.0721  0.1932
  120OSM    O1312650   5.246   5.355  10.639  0.3313 -0.1071 -0.8740
  120OSM    O1412651   5.471   5.440  10.548  0.3421 -0.3319 -0.4795
  120OSM    O1112652   5.271   5.448  10.411 -0.2389 -0.0936 -0.3517
  120OSM    O1212653   5.374   5.234  10.461 -0.7910 -0.0227  0.3547
  120OSM    C1S12654   5.324   5.499  10.288 -0.3217  0.2510 -0.1463
  120OSM    H1S12655   5.421   5.451  10.265 -0.7806 -0.0702 -1.4931
  120OSM    H1T12656   5.355   5.604  10.309  1.3669 -0.1647 -0.4688
  120OSM     NF12657   5.301   5.539  10.049  0.1835 -0.4413  0.8124
  120OSM    HNF12658   5.271   5.624  10.006 -0.9929 -0.4575  1.5519
  120OSM    C2S12659   5.235   5.486  10.161  0.3948  0.1602 -0.7311
  120OSM    H2S12660   5.219   5.377  10.150 -0.7156  0.1911  0.2838
  120OSM    C3S12661   5.090   5.535  10.205 -0.1447 -0.1277 -0.2066
  120OSM    H3S12662   5.104   5.638  10.245 -0.5681 -0.0566 -0.2369
  120OSM     O312663   5.035   5.458  10.310 -0.8382 -0.3354  0.2305
  120OSM    HO312664   5.115   5.413  10.337 -1.0214 -1.8532 -1.5768
  120OSM    C4S12665   5.000   5.527  10.085  0.1962  0.1090 -0.0465
  120OSM    H4S12666   5.040   5.452  10.015 -0.1261 -0.0373 -0.0750
  120OSM    C5S12667   4.891   5.602  10.049 -0.1174 -0.1568  0.5843
  120OSM    H5S12668   4.857   5.677  10.122  1.1206  0.7603  0.2447
  120OSM    C6S12669   4.808   5.582   9.921 -0.3645  1.0040 -0.4174
  120OSM    H6S12670   4.805   5.671   9.855 -0.8075  0.1733 -1.5509
  120OSM    H6T12671   4.705   5.572   9.963  0.0466 -1.6757  0.1545
  120OSM    C7S12672   4.845   5.456   9.846 -0.4990  0.3486 -0.3719
  120OSM    H7S12673   4.831   5.364   9.906 -0.1143  0.6803  0.2310
  120OSM    H7T12674   4.953   5.452   9.823 -0.8290  1.2452 -2.3569
  120OSM    C8S12675   4.757   5.439   9.724  0.2485 -0.0437 -0.2156
  120OSM    H8S12676   4.652   5.457   9.756 -0.0242 -3.3236  1.0640
  120OSM    H8T12677   4.741   5.336   9.686 -1.3192 -0.0463  0.3916
  120OSM    C9S12678   4.797   5.542   9.623 -0.3708 -0.0190  0.2496
  120OSM    H9S12679   4.907   5.557   9.615  0.0517 -2.7640 -0.0254
  120OSM    H9T12680   4.749   5.639   9.646 -0.1107  0.9034 -2.5867
  120OSM   C10S12681   4.747   5.514   9.481  0.2558  0.4383  1.1427
  120OSM   H10S12682   4.643   5.477   9.490 -0.4444  1.1980 -2.1716
  120OSM   H10T12683   4.807   5.423   9.457  0.3642  1.1804 -1.8190
  120OSM   C11S12684   4.764   5.615   9.364 -0.0368 -0.3776 -0.4919
  120OSM   H11S12685   4.871   5.643   9.352  0.1995 -1.1099 -0.1370
  120OSM   H11T12686   4.702   5.703   9.390  1.6831  0.9969 -0.8301
  120OSM   C12S12687   4.724   5.560   9.232  0.4683  0.5025 -1.0055
  120OSM   H12S12688   4.618   5.528   9.230  0.0045  1.8715 -0.2695
  120OSM   H12T12689   4.781   5.466   9.218 -0.8332 -0.1038 -2.5284
  120OSM   C13S12690   4.746   5.660   9.120  0.4079 -0.2883 -0.2819
  120OSM   H13S12691   4.847   5.707   9.119  0.0644  0.4669 -1.0603
  120OSM   H13T12692   4.681   5.746   9.147  0.9045 -0.2261  0.7608
  120OSM   C14S12693   4.712   5.622   8.968  0.0204  0.1369  0.0436
  120OSM   H14S12694   4.611   5.579   8.950  0.5164  0.0128 -3.0110
  120OSM   H14T12695   4.782   5.538   8.951  2.8207  2.4278 -0.5241
  120OSM   C15S12696   4.755   5.730   8.860  0.4585  0.1277 -0.2382
  120OSM   H15S12697   4.852   5.772   8.896  1.3976 -1.4121 -0.8509
  120OSM   H15T12698   4.681   5.812   8.858 -2.7418 -2.5736 -1.3058
  120OSM   C16S12699   4.772   5.658   8.721 -0.3315 -0.7119  0.4360
  120OSM   H16S12700   4.851   5.581   8.735 -0.3773 -0.6608  0.9859
  120OSM   H16T12701   4.822   5.727   8.649  0.0581 -0.5131  0.8825
  120OSM   C17S12702   4.644   5.619   8.643 -0.5864  0.3607  0.4154
  120OSM   H17S12703   4.565   5.685   8.685 -0.0566  0.1766  1.7355
  120OSM   H17T12704   4.619   5.517   8.679  1.5710  0.2760  1.8264
  120OSM   C18S12705   4.655   5.628   8.497 -0.4579  0.8132  0.1818
  120OSM   H18S12706   4.576   5.557   8.463 -1.3038  1.4775  0.7000
  120OSM   H18T12707   4.747   5.582   8.455  0.4083 -0.1269  2.9034
  120OSM   H18U12708   4.637   5.728   8.451 -3.2299 -0.2096 -1.1467
  120OSM    C1F12709   5.408   5.480   9.991  0.8935 -0.3304 -0.2596
  120OSM     OF12710   5.456   5.378  10.037  0.0919  0.0458  0.3794
  120OSM    C2F12711   5.457   5.543   9.866 -0.5404 -0.2025  0.1181
  120OSM    H2F12712   5.557   5.580   9.896 -0.8295  0.3601  0.4139
  120OSM    H2G12713   5.405   5.640   9.850 -1.2581 -0.3853  1.2099
  120OSM    C3F12714   5.453   5.451   9.752  0.3979 -0.4084 -0.5098
  120OSM    H3F12715   5.350   5.442   9.711  0.8126 -0.1742 -1.6545
  120OSM    H3G12716   5.488   5.348   9.774  2.5406  0.3549 -0.0749
  120OSM    C4F12717   5.537   5.513   9.635  0.3664 -0.7034 -0.5483
  120OSM    H4F12718   5.643   5.509   9.670  0.7520  0.7818 -1.4697
  120OSM    H4G12719   5.505   5.619   9.625  1.0766 -0.3007  1.0252
  120OSM    C5F12720   5.509   5.432   9.511 -0.4688 -0.4026 -0.6184
  120OSM    H5F12721   5.402   5.433   9.483 -0.1627 -0.5205 -1.8473
  120OSM    H5G12722   5.526   5.324   9.530 -0.3264 -0.5125 -1.3221
  120OSM    C6F12723   5.595   5.469   9.392  0.0470 -0.8803 -0.9373
  120OSM    H6F12724   5.572   5.399   9.308 -1.7259 -0.0350 -1.1943
  120OSM    H6G12725   5.703   5.467   9.419 -0.4181 -1.5618  1.0129
  120OSM    C7F12726   5.561   5.611   9.347 -0.1341  0.0080  0.3237
  120OSM    H7F12727   5.589   5.682   9.428 -0.7677  2.1098 -1.2374
  120OSM    H7G12728   5.451   5.621   9.349 -0.0604  1.4770 -1.2866
  120OSM    C8F12729   5.616   5.667   9.218  0.2385 -0.2436 -0.5139
  120OSM    H8F12730   5.726   5.652   9.218  0.0334 -2.0794 -1.7661
  120OSM    H8G12731   5.586   5.774   9.223 -1.2226 -0.6177 -0.7337
  120OSM    C9F12732   5.562   5.608   9.094  0.2370  0.6051  0.0683
  120OSM    H9F12733   5.452   5.604   9.085  0.2231 -0.2893  0.5289
  120OSM   C10F12734   5.642   5.557   8.991  0.2310 -0.1572 -0.1044
  120OSM   H10F12735   5.597   5.524   8.896  1.2857 -1.7976 -0.0811
  120OSM   C11F12736   5.791   5.565   8.994 -0.0439 -0.3553  0.1524
  120OSM   H11F12737   5.819   5.532   9.096 -1.6678 -2.7083 -0.0830
  120OSM   H11G12738   5.823   5.668   8.969 -2.3828 -0.3530 -3.8019
  120OSM   C12F12739   5.859   5.453   8.909  0.2902 -0.8259 -0.2153
  120OSM   H12F12740   5.817   5.355   8.941 -3.1808  0.8496  0.8560
  120OSM   H12G12741   5.968   5.462   8.925  0.0338  2.4756  0.3628
  120OSM   C13F12742   5.848   5.481   8.758  0.4220 -0.1650  0.3482
  120OSM   H13F12743   5.872   5.586   8.733  1.0033  0.2700  2.5407
  120OSM   H13G12744   5.739   5.459   8.746 -0.4000  2.5713  1.9455
  120OSM   C14F12745   5.921   5.371   8.679 -0.8805 -0.6026  0.6035
  120OSM   H14F12746   6.013   5.349   8.737 -1.8643 -1.9781  1.6866
  120OSM   H14G12747   5.951   5.407   8.578 -0.4021  0.4566  1.1085
  120OSM   C15F12748   5.841   5.237   8.670 -0.7521  0.0130  0.5067
  120OSM   H15F12749   5.764   5.257   8.592 -0.4146 -0.4686  0.0441
  120OSM   H15G12750   5.786   5.213   8.763 -2.5978  0.2870 -0.4593
  120OSM   C16F12751   5.924   5.120   8.616  0.5694 -0.3974  0.0368
  120OSM   H16F12752   6.010   5.160   8.559 -0.5366  2.8410  0.4519
  120OSM   H16G12753   5.846   5.071   8.554 -2.0719  1.5841  1.5763
  120OSM   C17F12754   5.977   5.033   8.730  0.0622  0.4622  0.2205
  120OSM   H17F12755   5.890   5.012   8.796 -0.2069  3.0995  0.8312
  120OSM   H17G12756   6.057   5.092   8.779 -0.0245 -0.2878  1.2836
  120OSM   C18F12757   6.030   4.894   8.685 -0.1775  0.0197  0.8990
  120OSM   H18F12758   6.098   4.921   8.601  1.1563  0.0136  1.9497
  120OSM   H18G12759   5.944   4.840   8.639  0.9248 -1.0974  0.0813
  120OSM   H18H12760   6.089   4.827   8.751  0.8578 -1.7788 -1.6476
  121OSM      N12761   4.068   6.525  11.182 -0.3131 -0.2197 -0.2945
  121OSM    C1512762   4.144   6.429  11.264  0.6704  0.4768  0.5035
  121OSM   H15A12763   4.072   6.367  11.314 -2.5705  0.4274 -3.6418
  121OSM   H15B12764   4.220   6.469  11.330  0.1935  0.5484  1.0105
  121OSM   H15C12765   4.193   6.356  11.200 -1.0911 -0.6003  0.3130
  121OSM    C1412766   3.966   6.447  11.099 -0.4592 -0.2306 -0.2734
  121OSM   H14A12767   3.911   6.504  11.026  0.1954 -2.2594 -2.5056
  121OSM   H14B12768   3.900   6.402  11.172 -1.2025  0.6747 -0.3788
  121OSM   H14C12769   4.018   6.375  11.037  0.4921 -0.8133  1.1539
  121OSM    C1312770   3.991   6.615  11.279  0.0769 -0.0385 -0.1808
  121OSM   H13A12771   4.055   6.629  11.365  0.6939 -3.1691 -0.0184
  121OSM   H13B12772   3.900   6.569  11.312  0.5578 -0.8707  0.0221
  121OSM   H13C12773   3.968   6.715  11.246  0.3650  0.7106  1.7754
  121OSM    C1212774   4.173   6.598  11.097 -0.2303  0.6351  0.1109
  121OSM   H12A12775   4.113   6.657  11.029 -0.1050  0.9524  0.2708
  121OSM   H12B12776   4.208   6.529  11.022 -0.1638  1.0735 -0.2709
  121OSM    C1112777   4.295   6.655  11.157 -0.9730 -0.0485  0.1235
  121OSM   H11A12778   4.362   6.577  11.200 -1.8515 -1.4818 -0.9819
  121OSM   H11B12779   4.264   6.720  11.241  2.1040  0.8628  0.6774
  121OSM      P12780   4.314   6.883  11.037  0.1108 -0.3159  0.0902
  121OSM    O1312781   4.177   6.898  11.082 -0.1791  0.2815  0.1381
  121OSM    O1412782   4.420   6.968  11.101  0.4802  0.3487  0.0749
  121OSM    O1112783   4.324   6.891  10.881  0.8863  0.0911 -0.3030
  121OSM    O1212784   4.365   6.732  11.054  0.4392  0.1588  0.0419
  121OSM    C1S12785   4.432   6.848  10.799  0.4747  0.7396 -0.9640
  121OSM    H1S12786   4.430   6.737  10.810  0.2829  0.8510  0.3230
  121OSM    H1T12787   4.532   6.889  10.828  0.6618  0.1616 -0.7695
  121OSM     NF12788   4.533   6.832  10.581  1.1188 -0.6815 -0.6106
  121OSM    HNF12789   4.592   6.906  10.551  0.4381 -0.2572 -0.9470
  121OSM    C2S12790   4.421   6.886  10.654 -0.1073 -0.0023 -0.5067
  121OSM    H2S12791   4.333   6.838  10.607  2.1911 -4.9175 -0.4218
  121OSM    C3S12792   4.395   7.042  10.638  0.2436  0.1404  1.3542
  121OSM    H3S12793   4.478   7.107  10.672 -1.2969  3.2321 -0.3184
  121OSM     O312794   4.282   7.091  10.714 -0.4384 -0.3325  0.7078
  121OSM    HO312795   4.269   7.014  10.771  1.7142 -1.5921 -0.3836
  121OSM    C4S12796   4.376   7.074  10.482  0.1897  0.2168  0.1831
  121OSM    H4S12797   4.469   7.059  10.426  0.2186  0.2201  0.2312
  121OSM    C5S12798   4.265   7.084  10.413  1.0078 -0.6226  0.0988
  121OSM    H5S12799   4.168   7.104  10.462  0.3811 -1.0294 -0.9397
  121OSM    C6S12800   4.248   7.121  10.268  0.7729 -0.0260 -0.0420
  121OSM    H6S12801   4.266   7.230  10.264 -0.5875  0.1850 -1.1204
  121OSM    H6T12802   4.146   7.105  10.229  1.3490  2.4503 -2.9120
  121OSM    C7S12803   4.356   7.064  10.176 -0.1958 -0.4454  0.0424
  121OSM    H7S12804   4.338   6.954  10.180 -0.5558 -0.3517  1.4923
  121OSM    H7T12805   4.460   7.083  10.209  0.2382 -0.3135 -1.3295
  121OSM    C8S12806   4.353   7.111  10.023 -0.0331 -0.2008 -0.1727
  121OSM    H8S12807   4.259   7.069   9.982 -1.4747  2.3624  0.2696
  121OSM    H8T12808   4.441   7.061   9.976 -0.2141 -0.1918 -0.5264
  121OSM    C9S12809   4.362   7.263   9.991 -0.8842 -0.1830 -0.0987
  121OSM    H9S12810   4.457   7.294  10.038 -1.1397  0.1383  0.2139
  121OSM    H9T12811   4.272   7.314  10.032  1.7448  4.5447  0.4775
  121OSM   C10S12812   4.361   7.287   9.841 -0.0860 -0.1164  0.1794
  121OSM   H10S12813   4.267   7.244   9.800 -0.0132  1.5816 -2.0196
  121OSM   H10T12814   4.446   7.233   9.793 -1.6427 -1.7246 -0.9012
  121OSM   C11S12815   4.384   7.431   9.796  0.6518  0.1417 -0.6999
  121OSM   H11S12816   4.474   7.470   9.849  0.4735  1.0879 -1.0784
  121OSM   H11T12817   4.291   7.488   9.818 -0.4879 -2.5037  2.1385
  121OSM   C12S12818   4.409   7.453   9.649 -0.5704 -0.4699 -0.8331
  121OSM   H12S12819   4.508   7.412   9.619 -0.8003  0.0287 -2.4104
  121OSM   H12T12820   4.412   7.563   9.632 -1.2150 -0.4544 -0.8594
  121OSM   C13S12821   4.312   7.384   9.548  0.8323  0.3110 -0.1406
  121OSM   H13S12822   4.207   7.414   9.573  0.5072 -1.2014  0.3932
  121OSM   H13T12823   4.308   7.275   9.566  0.3102  0.3538  0.0379
  121OSM   C14S12824   4.353   7.406   9.402 -0.5722 -0.0879  0.2265
  121OSM   H14S12825   4.437   7.334   9.385 -0.6685 -0.4106  1.0313
  121OSM   H14T12826   4.387   7.511   9.395  0.7806 -0.3053  2.3631
  121OSM   C15S12827   4.251   7.376   9.300 -0.9976 -0.2923  0.6733
  121OSM   H15S12828   4.157   7.436   9.299 -0.7880  0.0348 -0.5986
  121OSM   H15T12829   4.219   7.270   9.309 -1.9669  0.1084  2.4981
  121OSM   C16S12830   4.303   7.374   9.155  0.2346  0.3432  0.5959
  121OSM   H16S12831   4.405   7.332   9.152  0.4181  0.7749  0.7914
  121OSM   H16T12832   4.303   7.479   9.118  0.5336  0.4944  1.0182
  121OSM   C17S12833   4.204   7.300   9.062  0.3049  0.1588  1.0411
  121OSM   H17S12834   4.104   7.349   9.069  0.4903  0.4341  1.8591
  121OSM   H17T12835   4.183   7.196   9.096 -3.9095  0.0227 -1.1983
  121OSM   C18S12836   4.236   7.309   8.915 -0.0603  0.3529  0.3577
  121OSM   H18S12837   4.234   7.414   8.879  0.2453 -0.5333 -2.4708
  121OSM   H18T12838   4.171   7.244   8.852  0.3636 -0.7903  1.0653
  121OSM   H18U12839   4.344   7.283   8.903  0.2160  1.9594 -1.0531
  121OSM    C1F12840   4.556   6.700  10.565  0.2431  0.7428 -1.1414
  121OSM     OF12841   4.461   6.622  10.594 -0.3551  0.0239  0.0860
  121OSM    C2F12842   4.698   6.651  10.522  0.2342  0.3012  0.0650
  121OSM    H2F12843   4.724   6.564  10.587  0.7615 -0.7860 -1.5360
  121OSM    H2G12844   4.763   6.738  10.543 -0.7329  0.8084  1.0775
  121OSM    C3F12845   4.693   6.610  10.371 -0.3189  0.0873 -0.3815
  121OSM    H3F12846   4.607   6.545  10.344 -1.5251  1.4426  0.0401
  121OSM    H3G12847   4.784   6.547  10.360  0.3944 -0.3107  5.1733
  121OSM    C4F12848   4.710   6.733  10.273 -0.6207  0.5501  0.6338
  121OSM    H4F12849   4.785   6.802  10.318 -1.7627  1.5685  1.0147
  121OSM    H4G12850   4.613   6.787  10.274 -0.4056  0.9770 -0.4831
  121OSM    C5F12851   4.739   6.708  10.121  0.1000 -0.1147 -0.0713
  121OSM    H5F12852   4.659   6.647  10.076  1.5769 -1.0996 -1.4921
  121OSM    H5G12853   4.829   6.643  10.112 -1.1036 -2.1787  1.7561
  121OSM    C6F12854   4.765   6.822  10.030  0.0138  0.0448 -0.3298
  121OSM    H6F12855   4.849   6.887  10.063 -0.1400 -0.2754  0.7352
  121OSM    H6G12856   4.676   6.888  10.035  1.5595  2.5854 -3.1755
  121OSM    C7F12857   4.789   6.772   9.885 -0.0682  0.2691  0.2589
  121OSM    H7F12858   4.708   6.705   9.850 -0.0826  0.5740 -0.3189
  121OSM    H7G12859   4.883   6.713   9.877 -0.2046  0.3029 -2.9109
  121OSM    C8F12860   4.792   6.881   9.772 -0.1549  0.1320 -0.5998
  121OSM    H8F12861   4.813   6.839   9.672  0.4978  0.7972 -0.7502
  121OSM    H8G12862   4.873   6.947   9.809  0.7412 -2.2986  2.2657
  121OSM    C9F12863   4.663   6.960   9.760 -0.0131 -0.2771  0.3074
  121OSM    H9F12864   4.581   6.941   9.830 -0.6912 -0.4433 -0.5231
  121OSM   C10F12865   4.647   7.037   9.653  0.3712 -1.1689  0.2432
  121OSM   H10F12866   4.546   7.077   9.637  0.7619 -0.1985  0.1079
  121OSM   C11F12867   4.741   7.063   9.541 -0.1621  0.7875 -0.2285
  121OSM   H11F12868   4.823   6.992   9.518 -0.1621  0.7563 -0.1329
  121OSM   H11G12869   4.791   7.149   9.589  0.1072 -0.2432  1.3933
  121OSM   C12F12870   4.670   7.105   9.413  0.3242  0.2742  0.5647
  121OSM   H12F12871   4.750   7.151   9.352  0.2606  2.6380  2.1262
  121OSM   H12G12872   4.594   7.186   9.416  2.0208  2.0177 -1.0826
  121OSM   C13F12873   4.609   6.984   9.335 -0.3554 -0.7472  1.0089
  121OSM   H13F12874   4.531   6.946   9.404 -1.2321 -0.4590  0.1940
  121OSM   H13G12875   4.692   6.910   9.324  0.6712  0.5673 -0.5860
  121OSM   C14F12876   4.559   7.008   9.195 -0.5680  0.5560  0.6818
  121OSM   H14F12877   4.478   7.084   9.195 -2.4050 -1.2879 -0.7556
  121OSM   H14G12878   4.512   6.914   9.160 -0.5209  0.2370  1.4507
  121OSM   C15F12879   4.674   7.054   9.107  0.6464  0.1480  0.1828
  121OSM   H15F12880   4.757   6.982   9.123  1.3616  0.6645 -1.0991
  121OSM   H15G12881   4.702   7.158   9.135 -0.5523  0.3756  0.6180
  121OSM   C16F12882   4.620   7.057   8.963 -0.5754 -0.3292 -0.1260
  121OSM   H16F12883   4.540   7.133   8.954 -1.4015 -1.1315  0.2447
  121OSM   H16G12884   4.590   6.956   8.930 -2.1680  0.3893 -0.9778
  121OSM   C17F12885   4.734   7.108   8.862 -0.4034 -0.1066  0.1200
  121OSM   H17F12886   4.692   7.120   8.760 -1.4472 -1.4124  0.3729
  121OSM   H17G12887   4.817   7.034   8.873 -1.0968 -0.7713  1.0339
  121OSM   C18F12888   4.806   7.236   8.896 -0.0783 -0.0947 -0.4404
  121OSM   H18F12889   4.873   7.227   8.984 -0.4609  1.2422  0.0100
  121OSM   H18G12890   4.740   7.320   8.925 -2.3916 -2.0239  0.2658
  121OSM   H18H12891   4.878   7.256   8.814  0.0196 -3.4945 -1.3518
  122OSM      N12892   6.615   6.123  10.817 -0.3228 -0.3217 -0.7811
  122OSM    C1512893   6.740   6.063  10.775  0.7829 -0.2365 -0.2464
  122OSM   H15A12894   6.744   6.066  10.667 -2.7656  2.4577 -0.4945
  122OSM   H15B12895   6.747   5.960  10.806  0.9096  0.2426  1.3993
  122OSM   H15C12896   6.829   6.108  10.815  1.1964 -0.8694 -0.4516
  122OSM    C1412897   6.505   6.063  10.737 -0.3602  0.7826 -0.2306
  122OSM   H14A12898   6.509   6.087  10.632  3.5942 -0.9914 -0.6760
  122OSM   H14B12899   6.408   6.092  10.775 -0.0046  0.5522  0.9037
  122OSM   H14C12900   6.518   5.955  10.739  2.7327  1.0611  1.4200
  122OSM    C1312901   6.601   6.077  10.960  0.1879 -0.2705 -0.4197
  122OSM   H13A12902   6.699   6.089  11.003 -0.7997  0.7056  1.7594
  122OSM   H13B12903   6.571   5.974  10.970  0.9807 -0.7479 -2.4775
  122OSM   H13C12904   6.538   6.145  11.017  1.7978 -0.0273  1.1436
  122OSM    C1212905   6.611   6.276  10.813 -0.1172  0.1109  0.3088
  122OSM   H12A12906   6.514   6.300  10.853 -1.2407 -3.5280  0.0940
  122OSM   H12B12907   6.615   6.295  10.707 -3.4918 -3.6554 -0.7310
  122OSM    C1112908   6.709   6.345  10.911 -0.7152  0.0932 -0.0143
  122OSM   H11A12909   6.678   6.337  11.018  0.6911  2.5713  0.6453
  122OSM   H11B12910   6.701   6.456  10.904  0.3918  0.3403  1.8390
  122OSM      P12911   6.939   6.363  10.782  0.5691  0.1898 -0.3824
  122OSM    O1312912   7.007   6.485  10.837 -0.1721 -0.2908 -0.5394
  122OSM    O1412913   7.028   6.252  10.745  0.1672  0.3482  0.2613
  122OSM    O1112914   6.856   6.399  10.652  0.0037 -0.4677 -0.2674
  122OSM    O1212915   6.843   6.308  10.890  0.0688 -0.5168  0.0228
  122OSM    C1S12916   6.841   6.535  10.600 -0.4965 -0.0689 -0.5808
  122OSM    H1S12917   6.934   6.591  10.622 -0.9295  0.1323  0.9248
  122OSM    H1T12918   6.749   6.580  10.643  0.4157 -0.1073  1.5507
  122OSM     NF12919   6.881   6.671  10.389  0.0435 -0.3238  0.0409
  122OSM    HNF12920   6.812   6.710  10.329 -0.3640 -0.3489  0.4825
  122OSM    C2S12921   6.845   6.536  10.443  0.3277 -0.2799 -0.3989
  122OSM    H2S12922   6.927   6.465  10.420 -1.6883 -3.9733  2.6959
  122OSM    C3S12923   6.716   6.475  10.386 -0.4522 -0.4468 -0.4347
  122OSM    H3S12924   6.637   6.542  10.427  1.5357  1.6045  0.2582
  122OSM     O312925   6.682   6.349  10.447  0.6069  0.0613 -0.3169
  122OSM    HO312926   6.747   6.347  10.518  0.4205  0.7258 -0.1260
  122OSM    C4S12927   6.703   6.461  10.239 -0.1964 -0.1158  0.2702
  122OSM    H4S12928   6.649   6.546  10.194  1.5135  0.9384  0.1592
  122OSM    C5S12929   6.755   6.365  10.154  0.5743  0.4641  0.0672
  122OSM    H5S12930   6.816   6.287  10.203 -0.9117 -0.2422  0.8584
  122OSM    C6S12931   6.738   6.369  10.005 -0.0605  0.4150  0.3867
  122OSM    H6S12932   6.653   6.301   9.983 -0.2055  1.6989 -4.0327
  122OSM    H6T12933   6.827   6.324   9.954  0.1888  1.2763  0.0424
  122OSM    C7S12934   6.704   6.509   9.946  0.0463  0.3022 -0.1228
  122OSM    H7S12935   6.769   6.593   9.977  1.3154 -0.0901 -1.5825
  122OSM    H7T12936   6.598   6.532   9.970 -0.2175 -1.0800  0.1233
  122OSM    C8S12937   6.702   6.501   9.792 -0.6109  0.8285  0.4009
  122OSM    H8S12938   6.601   6.465   9.763  0.4062 -0.9816 -1.1142
  122OSM    H8T12939   6.791   6.441   9.763 -1.8190 -1.1664  0.5825
  122OSM    C9S12940   6.718   6.634   9.720  0.5876  0.1386 -0.3079
  122OSM    H9S12941   6.810   6.687   9.753  0.3639 -0.8615  2.1358
  122OSM    H9T12942   6.635   6.704   9.741  0.3374 -0.7210  1.8570
  122OSM   C10S12943   6.737   6.618   9.572 -0.2591 -0.2359 -0.1747
  122OSM   H10S12944   6.827   6.555   9.555 -0.2815 -0.1079 -0.8107
  122OSM   H10T12945   6.747   6.727   9.551  0.0198 -0.0670  0.8089
  122OSM   C11S12946   6.623   6.545   9.497  0.2365 -0.2753  0.6418
  122OSM   H11S12947   6.525   6.556   9.548  0.5751  0.0075  1.2459
  122OSM   H11T12948   6.651   6.438   9.501  1.7169  0.0327 -0.4786
  122OSM   C12S12949   6.618   6.600   9.349 -0.3175 -0.0757  0.6562
  122OSM   H12S12950   6.610   6.710   9.353  0.2802  0.0038 -0.1034
  122OSM   H12T12951   6.533   6.563   9.286  0.9004  1.5053 -2.0880
  122OSM   C13S12952   6.748   6.567   9.279 -0.0717 -0.9091 -0.5704
  122OSM   H13S12953   6.759   6.457   9.282  2.1711 -0.7285 -0.0037
  122OSM   H13T12954   6.834   6.613   9.332 -0.3145 -1.1568  0.0551
  122OSM   C14S12955   6.769   6.606   9.134 -0.2001 -0.0509  0.4541
  122OSM   H14S12956   6.874   6.582   9.109 -0.3489 -0.8735  0.6093
  122OSM   H14T12957   6.757   6.714   9.109  0.7178 -0.0174  0.1114
  122OSM   C15S12958   6.668   6.522   9.050  0.6083 -0.1031 -0.6818
  122OSM   H15S12959   6.559   6.542   9.064  0.5744 -1.3015  0.9836
  122OSM   H15T12960   6.687   6.414   9.069  3.3473 -0.3489 -3.7710
  122OSM   C16S12961   6.697   6.530   8.891 -0.1057 -0.2431 -0.1301
  122OSM   H16S12962   6.651   6.628   8.865  0.5210  0.1547  0.2260
  122OSM   H16T12963   6.634   6.455   8.839  0.8220 -0.9297 -0.2766
  122OSM   C17S12964   6.839   6.520   8.843 -0.0690  0.5595  0.2421
  122OSM   H17S12965   6.899   6.443   8.896  0.1965 -0.9546 -2.0894
  122OSM   H17T12966   6.882   6.622   8.855  0.6550  0.4722 -1.2913
  122OSM   C18S12967   6.851   6.486   8.691  0.5535  0.1322 -0.2866
  122OSM   H18S12968   6.787   6.398   8.672  1.1889 -0.3998 -0.0296
  122OSM   H18T12969   6.956   6.475   8.655  0.9133  3.0260 -0.3114
  122OSM   H18U12970   6.821   6.577   8.637  2.7719  1.3315  0.3590
  122OSM    C1F12971   7.001   6.720  10.396  0.2951 -0.2428 -0.3694
  122OSM     OF12972   7.098   6.650  10.416 -0.1670 -0.1651 -0.4657
  122OSM    C2F12973   7.013   6.865  10.367 -0.0185 -0.2429 -0.8559
  122OSM    H2F12974   7.033   6.914  10.465 -1.1260 -0.2736 -0.6068
  122OSM    H2G12975   6.921   6.911  10.325 -1.9863 -3.5824 -0.5920
  122OSM    C3F12976   7.127   6.906  10.267  0.0087 -0.2069  0.3009
  122OSM    H3F12977   7.230   6.880  10.302  1.2591 -0.0983 -2.9061
  122OSM    H3G12978   7.133   7.017  10.265  0.3647 -0.1783  1.6577
  122OSM    C4F12979   7.109   6.846  10.132 -0.1485  0.0181  0.5910
  122OSM    H4F12980   7.092   6.736  10.139  0.1319 -0.1916 -1.4605
  122OSM    H4G12981   7.198   6.880  10.075 -1.6087  0.3736 -1.6232
  122OSM    C5F12982   6.993   6.919  10.050  0.0083 -0.1890 -0.4124
  122OSM    H5F12983   7.018   7.026  10.034  0.0767 -0.2986 -1.0678
  122OSM    H5G12984   6.896   6.911  10.104  0.2144 -1.1215 -0.1508
  122OSM    C6F12985   6.978   6.852   9.913 -0.3472 -0.2814 -0.8222
  122OSM    H6F12986   6.877   6.886   9.881 -0.5127  0.6803  0.5972
  122OSM    H6G12987   6.948   6.746   9.925 -0.7725 -0.1124 -0.3385
  122OSM    C7F12988   7.086   6.880   9.813  0.5781  0.1634  0.1385
  122OSM    H7F12989   7.171   6.826   9.858 -1.3535 -1.2244  2.3652
  122OSM    H7G12990   7.102   6.990   9.807  1.5964  0.0125 -0.0238
  122OSM    C8F12991   7.050   6.831   9.671 -0.3988  0.5219 -0.2751
  122OSM    H8F12992   7.006   6.730   9.682 -0.0398  0.6173  3.7980
  122OSM    H8G12993   7.148   6.801   9.630 -0.8644 -2.8267  0.7770
  122OSM    C9F12994   6.958   6.919   9.593 -0.5410 -0.3797  0.1969
  122OSM    H9F12995   6.860   6.937   9.640 -0.9661  1.5112 -1.2779
  122OSM   C10F12996   6.992   6.971   9.475  0.9255  0.0752  0.5190
  122OSM   H10F12997   6.913   7.033   9.430 -1.8847 -1.0720  3.4196
  122OSM   C11F12998   7.116   6.941   9.401 -0.6993 -0.3932  0.9902
  122OSM   H11F12999   7.119   6.830   9.397 -0.9858 -0.3868  0.5850
  122OSM   H11G13000   7.213   6.969   9.448  2.0724 -0.0402 -4.1900
  122OSM   C12F13001   7.106   7.010   9.272  0.0448  0.0400  0.0809
  122OSM   H12F13002   7.209   7.004   9.229  0.6809  3.7117  0.7564
  122OSM   H12G13003   7.088   7.119   9.284 -0.5942 -0.3150  3.3864
  122OSM   C13F13004   7.018   6.929   9.171  0.6152  0.3582 -0.3853
  122OSM   H13F13005   6.909   6.926   9.189  0.6242  1.2238 -0.1375
  122OSM   H13G13006   7.054   6.824   9.171  2.0602  0.7905 -2.7761
  122OSM   C14F13007   7.026   6.981   9.020  0.1318 -0.5484  0.3676
  122OSM   H14F13008   7.126   6.952   8.981  0.8821  0.9355  1.1088
  122OSM   H14G13009   7.035   7.092   9.025 -0.1169 -0.5406  0.6738
  122OSM   C15F13010   6.916   6.928   8.934 -0.1373 -0.3594 -0.1056
  122OSM   H15F13011   6.827   6.979   8.976  0.9620  0.6524  1.1241
  122OSM   H15G13012   6.919   6.819   8.951 -0.2429 -0.2208  0.8628
  122OSM   C16F13013   6.929   6.963   8.793 -0.3539  0.4684  0.6358
  122OSM   H16F13014   7.031   6.930   8.766 -0.2646  0.6812  0.7101
  122OSM   H16G13015   6.923   7.073   8.775  0.4794  0.5658  0.9109
  122OSM   C17F13016   6.839   6.884   8.699 -0.1677  0.2799  0.1439
  122OSM   H17F13017   6.843   6.773   8.696 -0.3997  0.2772 -2.1833
  122OSM   H17G13018   6.845   6.916   8.593 -0.7436  0.6653  0.2229
  122OSM   C18F13019   6.691   6.889   8.741 -0.0075 -0.1400  0.2806
  122OSM   H18F13020   6.624   6.847   8.663 -1.2847  0.9442  0.7571
  122OSM   H18G13021   6.668   6.997   8.750  0.7956 -0.0248  1.0716
  122OSM   H18H13022   6.683   6.847   8.844  0.4522 -0.4089  0.2093
  123OSM      N13023   5.764   5.163   5.665  0.2342  0.4139 -0.1315
  123OSM    C1513024   5.657   5.276   5.678 -0.5241 -0.2088 -0.3602
  123OSM   H15A13025   5.606   5.286   5.583 -0.2986 -1.2899 -0.6018
  123OSM   H15B13026   5.704   5.370   5.702 -2.4797  0.3790  1.5027
  123OSM   H15C13027   5.582   5.258   5.754  1.6400 -0.7360  1.7473
  123OSM    C1413028   5.686   5.040   5.627  0.6516  0.1287 -0.0167
  123OSM   H14A13029   5.744   4.950   5.617  1.4256  0.5709  0.4306
  123OSM   H14B13030   5.636   5.066   5.535  1.1138  0.2026 -0.2488
  123OSM   H14C13031   5.610   5.024   5.702  1.0721  0.4113  0.4797
  123OSM    C1313032   5.866   5.190   5.564 -0.2310  0.2201 -0.4691
  123OSM   H13A13033   5.827   5.225   5.470  1.5765  0.2893 -1.2393
  123OSM   H13B13034   5.922   5.100   5.540 -0.9832 -1.0620  2.2239
  123OSM   H13C13035   5.940   5.261   5.598  0.2902  0.5595 -2.1907
  123OSM    C1213036   5.826   5.136   5.797 -0.3685 -0.1765  0.9334
  123OSM   H12A13037   5.906   5.205   5.822  0.0504 -0.0568 -0.6121
  123OSM   H12B13038   5.873   5.041   5.778 -2.8998 -1.5219  1.1066
  123OSM    C1113039   5.747   5.123   5.928 -0.7739 -0.3171 -0.1001
  123OSM   H11A13040   5.710   5.226   5.950  0.4357  0.2342 -0.5306
  123OSM   H11B13041   5.817   5.107   6.012 -2.7432  0.4580  1.7941
  123OSM      P13042   5.647   4.892   5.996 -0.7464  0.2122  0.0245
  123OSM    O1313043   5.519   4.821   5.984 -0.3402  0.2786  0.0154
  123OSM    O1413044   5.769   4.822   5.953 -0.3470  0.7855 -0.0945
  123OSM    O1113045   5.666   4.929   6.148 -0.0274  0.5861 -0.0338
  123OSM    O1213046   5.638   5.027   5.915  0.4154  0.0893 -0.3279
  123OSM    C1S13047   5.558   4.959   6.237 -0.4182  0.2857 -0.1508
  123OSM    H1S13048   5.482   4.879   6.236  0.0339 -0.2216  1.6835
  123OSM    H1T13049   5.510   5.055   6.211 -3.5593 -1.3629 -0.8381
  123OSM     NF13050   5.490   4.956   6.477  0.0295  0.2342  0.0384
  123OSM    HNF13051   5.467   5.045   6.515 -0.1762 -0.0312  0.5486
  123OSM    C2S13052   5.603   4.960   6.384  0.3354  0.4744  0.0496
  123OSM    H2S13053   5.660   4.866   6.398 -0.3331  0.0915  0.2460
  123OSM    C3S13054   5.706   5.081   6.412  1.0270  0.5957  0.2568
  123OSM    H3S13055   5.663   5.177   6.375 -0.0213  0.4946  1.1628
  123OSM     O313056   5.821   5.078   6.334  0.3199  0.0032  0.4096
  123OSM    HO313057   5.785   5.041   6.253  2.0362 -1.8134  0.4098
  123OSM    C4S13058   5.755   5.078   6.552  0.1670 -0.2892 -0.7729
  123OSM    H4S13059   5.812   4.992   6.591  1.6961  0.7292 -0.6799
  123OSM    C5S13060   5.731   5.175   6.642  0.0241  0.7645 -0.0319
  123OSM    H5S13061   5.662   5.256   6.614  0.4412  1.5776  1.2255
  123OSM    C6S13062   5.789   5.180   6.781  0.2128 -0.2421 -0.3301
  123OSM    H6S13063   5.880   5.242   6.772  0.2808 -0.2464  0.2993
  123OSM    H6T13064   5.831   5.081   6.809  0.2136  0.4255  2.2014
  123OSM    C7S13065   5.702   5.246   6.885 -0.3053  0.0310  0.2540
  123OSM    H7S13066   5.609   5.190   6.910 -0.4551  0.5815  0.9383
  123OSM    H7T13067   5.672   5.347   6.852 -0.4216  0.5376  1.8501
  123OSM    C8S13068   5.786   5.264   7.017 -0.0936 -0.0026 -0.5830
  123OSM    H8S13069   5.880   5.323   7.009  0.8096 -1.2652  0.2875
  123OSM    H8T13070   5.814   5.161   7.050  2.7094  0.6051 -0.8317
  123OSM    C9S13071   5.692   5.326   7.130  0.0954  0.1312 -1.2239
  123OSM    H9S13072   5.626   5.243   7.164 -2.1142  1.4045 -2.1904
  123OSM    H9T13073   5.634   5.410   7.086  3.0302  2.1739 -1.4651
  123OSM   C10S13074   5.759   5.378   7.263  0.2720  0.5341  0.4938
  123OSM   H10S13075   5.841   5.448   7.233 -0.0148  0.8173  0.3646
  123OSM   H10T13076   5.806   5.284   7.298 -3.8322 -1.1074  2.1874
  123OSM   C11S13077   5.653   5.437   7.357  0.0242  0.3655  0.0488
  123OSM   H11S13078   5.576   5.358   7.369  0.5355  0.1551  2.4822
  123OSM   H11T13079   5.614   5.530   7.311  0.0767  0.4565  0.1856
  123OSM   C12S13080   5.712   5.453   7.494  0.5161  0.1075 -0.1492
  123OSM   H12S13081   5.793   5.529   7.491  0.8303 -0.1427  1.2363
  123OSM   H12T13082   5.759   5.358   7.528  0.9443  0.3482 -0.0524
  123OSM   C13S13083   5.615   5.513   7.602  0.1361  0.0840  0.4965
  123OSM   H13S13084   5.683   5.509   7.690  0.7843 -0.8036 -0.0283
  123OSM   H13T13085   5.525   5.449   7.606 -0.7367  0.9724 -2.3123
  123OSM   C14S13086   5.565   5.652   7.572  0.3003 -0.0917  0.1206
  123OSM   H14S13087   5.482   5.647   7.497  0.7429 -1.5413 -0.3050
  123OSM   H14T13088   5.650   5.706   7.526  0.9051  0.6512  2.0310
  123OSM   C15S13089   5.497   5.735   7.676 -1.2117  0.5870 -0.1428
  123OSM   H15S13090   5.401   5.687   7.707  0.0186 -2.2397 -0.3778
  123OSM   H15T13091   5.477   5.832   7.626  1.1576  1.2331  0.0522
  123OSM   C16S13092   5.589   5.759   7.790  0.0852  0.9434 -0.5154
  123OSM   H16S13093   5.560   5.861   7.822  1.9769  2.1116 -2.2671
  123OSM   H16T13094   5.692   5.770   7.750 -0.0718 -0.2754 -1.2969
  123OSM   C17S13095   5.567   5.653   7.897 -0.6206 -0.1204 -0.0135
  123OSM   H17S13096   5.615   5.556   7.873  0.4953  0.2281  0.7342
  123OSM   H17T13097   5.459   5.629   7.910 -0.6635 -1.5348 -2.3416
  123OSM   C18S13098   5.620   5.681   8.039 -0.3703  0.1586  0.1543
  123OSM   H18S13099   5.585   5.776   8.086 -1.5790 -1.1033  1.9331
  123OSM   H18T13100   5.729   5.703   8.037 -0.1703 -0.8485 -0.4949
  123OSM   H18U13101   5.606   5.595   8.108  0.3884 -0.1721 -0.0958
  123OSM    C1F13102   5.414   4.844   6.504 -0.1628 -0.8577 -0.1326
  123OSM     OF13103   5.433   4.733   6.454 -0.1714  0.0961  0.2592
  123OSM    C2F13104   5.289   4.866   6.575  0.1305 -0.3504 -0.3745
  123OSM    H2F13105   5.211   4.862   6.496  1.8994 -1.6485 -2.1587
  123OSM    H2G13106   5.294   4.961   6.632 -1.7146 -0.6676  0.3881
  123OSM    C3F13107   5.238   4.746   6.655 -0.0002 -0.0608 -0.4371
  123OSM    H3F13108   5.233   4.655   6.592  0.5125  0.4308 -1.1979
  123OSM    H3G13109   5.135   4.764   6.692  0.3117 -1.6144  1.3472
  123OSM    C4F13110   5.312   4.721   6.792 -0.3385 -0.4543  0.0673
  123OSM    H4F13111   5.420   4.718   6.764 -0.2932  0.0162  0.1800
  123OSM    H4G13112   5.286   4.619   6.826  0.9429 -0.5276  0.9079
  123OSM    C5F13113   5.280   4.827   6.900 -0.2861 -0.7440 -0.6716
  123OSM    H5F13114   5.175   4.804   6.929  0.0126 -0.8320  0.3841
  123OSM    H5G13115   5.295   4.930   6.860 -0.0535 -1.2932 -2.0488
  123OSM    C6F13116   5.382   4.809   7.015  0.4365  0.0439 -0.0590
  123OSM    H6F13117   5.479   4.856   6.988  0.2036  1.4177  1.3336
  123OSM    H6G13118   5.391   4.702   7.043  0.7808 -0.2847 -1.3578
  123OSM    C7F13119   5.353   4.887   7.149  0.0567 -0.1341 -0.4058
  123OSM    H7F13120   5.436   4.846   7.210  0.6316 -0.3890 -1.3321
  123OSM    H7G13121   5.253   4.853   7.186  1.0144 -2.7717 -0.0161
  123OSM    C8F13122   5.347   5.038   7.126  0.2286  0.1785 -0.1498
  123OSM    H8F13123   5.266   5.055   7.052 -1.3257 -0.2365  1.3762
  123OSM    H8G13124   5.448   5.058   7.084  0.2902 -2.1954 -1.2445
  123OSM    C9F13125   5.322   5.135   7.240 -0.6282  0.4369 -0.7645
  123OSM    H9F13126   5.259   5.222   7.217 -1.6851 -0.2826 -0.6405
  123OSM   C10F13127   5.390   5.141   7.353 -0.2647 -0.5842  0.1528
  123OSM   H10F13128   5.352   5.209   7.430  1.2611  1.3600 -0.7496
  123OSM   C11F13129   5.493   5.042   7.405 -0.6348 -0.3717 -0.0658
  123OSM   H11F13130   5.566   5.018   7.324 -0.7094 -0.2068 -0.1852
  123OSM   H11G13131   5.450   4.941   7.417 -1.9935 -0.1999 -2.6626
  123OSM   C12F13132   5.562   5.084   7.537  0.3310 -0.7287  0.7832
  123OSM   H12F13133   5.621   5.177   7.528 -1.4516  0.3048 -1.0505
  123OSM   H12G13134   5.641   5.008   7.555 -0.2808 -1.7118 -0.5091
  123OSM   C13F13135   5.467   5.093   7.654 -0.7145 -0.2397 -0.8801
  123OSM   H13F13136   5.383   5.020   7.647  0.8099 -1.9906 -1.9421
  123OSM   H13G13137   5.430   5.197   7.646  2.8591  1.0264 -3.1609
  123OSM   C14F13138   5.538   5.085   7.790 -0.4371  0.0843  0.3800
  123OSM   H14F13139   5.602   4.994   7.798  1.0129  1.1168  0.9134
  123OSM   H14G13140   5.458   5.078   7.867  0.2073 -1.7420  0.9539
  123OSM   C15F13141   5.628   5.199   7.825 -0.7066  0.2512 -0.3384
  123OSM   H15F13142   5.577   5.290   7.787  0.1655  0.9677  0.1756
  123OSM   H15G13143   5.725   5.175   7.777  0.0031  1.6332  0.3718
  123OSM   C16F13144   5.665   5.201   7.976 -0.1081  0.5892  0.1816
  123OSM   H16F13145   5.754   5.268   7.978  0.0157  0.5166 -1.7869
  123OSM   H16G13146   5.695   5.097   8.002  4.1381  1.3292 -0.9624
  123OSM   C17F13147   5.551   5.258   8.052 -0.0781  0.6814  0.2493
  123OSM   H17F13148   5.458   5.200   8.031  0.7640 -0.0137 -1.7688
  123OSM   H17G13149   5.548   5.364   8.018 -0.3302  0.2900 -0.9774
  123OSM   C18F13150   5.576   5.267   8.208 -0.2193 -0.0934 -0.5235
  123OSM   H18F13151   5.497   5.330   8.254  0.3543  2.2149 -2.5161
  123OSM   H18G13152   5.671   5.314   8.241  0.2176 -1.9192  0.9913
  123OSM   H18H13153   5.570   5.166   8.254 -1.9204  0.0866 -0.2830
  124OSM      N13154   1.400   2.822   6.102 -0.6709  0.4024 -0.5138
  124OSM    C1513155   1.355   2.859   6.247 -0.7940  0.2926  0.2193
  124OSM   H15A13156   1.438   2.902   6.302 -0.8241  0.3158  0.2460
  124OSM   H15B13157   1.342   2.769   6.306 -0.9393  0.3416  0.2616
  124OSM   H15C13158   1.282   2.939   6.246 -1.7197 -0.5232  0.9267
  124OSM    C1413159   1.499   2.710   6.110  0.7399 -0.1522  0.0939
  124OSM   H14A13160   1.543   2.692   6.013 -1.6068 -3.6679 -0.4873
  124OSM   H14B13161   1.454   2.614   6.130  0.1319 -0.3354 -1.9217
  124OSM   H14C13162   1.578   2.740   6.178  0.1452  0.0228  0.7246
  124OSM    C1313163   1.286   2.782   6.021 -0.1078 -1.3914  0.2108
  124OSM   H13A13164   1.222   2.865   5.998  1.5489 -0.4776 -1.3317
  124OSM   H13B13165   1.230   2.703   6.068 -2.2721 -1.1776 -1.8441
  124OSM   H13C13166   1.313   2.746   5.923 -1.8488  0.6056 -1.0651
  124OSM    C1213167   1.462   2.951   6.038  0.3223 -0.5688 -0.2016
  124OSM   H12A13168   1.382   3.021   6.017  1.2951  1.4138  2.1665
  124OSM   H12B13169   1.499   2.927   5.940 -0.5158 -1.3480 -0.3398
  124OSM    C1113170   1.578   3.028   6.105 -0.4583  0.2766  0.1019
  124OSM   H11A13171   1.540   3.097   6.183  0.3928  2.3924 -1.2577
  124OSM   H11B13172   1.613   3.107   6.036 -0.4188  0.7483  0.6547
  124OSM      P13173   1.750   2.959   6.288  0.2624  0.5148 -0.6863
  124OSM    O1313174   1.827   2.832   6.314  0.1349 -0.2163 -0.5744
  124OSM    O1413175   1.829   3.078   6.300  0.0905 -0.4151  0.0695
  124OSM    O1113176   1.621   2.959   6.382  0.0116 -0.1050  0.2257
  124OSM    O1213177   1.688   2.942   6.148 -0.4949  0.5180  0.9609
  124OSM    C1S13178   1.597   2.868   6.487 -0.2771  0.4432 -0.7354
  124OSM    H1S13179   1.635   2.769   6.455 -3.0449 -1.0310  0.1845
  124OSM    H1T13180   1.488   2.847   6.488 -0.4061  0.9889 -1.8571
  124OSM     NF13181   1.612   2.800   6.718  0.4919  0.2951  0.0241
  124OSM    HNF13182   1.539   2.823   6.781  0.6876  0.4054  0.2133
  124OSM    C2S13183   1.636   2.917   6.629 -0.3690  0.2145  0.1159
  124OSM    H2S13184   1.746   2.936   6.627  0.2471 -2.6535 -2.6777
  124OSM    C3S13185   1.572   3.051   6.676 -0.5647 -0.3232 -0.0712
  124OSM    H3S13186   1.462   3.048   6.686 -0.6990  2.1830 -0.3509
  124OSM     O313187   1.595   3.153   6.581 -0.2119 -0.9142  0.1330
  124OSM    HO313188   1.593   3.113   6.493 -2.6664  1.6423 -1.1636
  124OSM    C4S13189   1.618   3.090   6.818  0.0915  0.1917  0.2140
  124OSM    H4S13190   1.542   3.078   6.897  0.7927  1.8793  1.1901
  124OSM    C5S13191   1.741   3.134   6.859  0.3847  0.2873 -0.7511
  124OSM    H5S13192   1.808   3.162   6.776 -0.7624  0.6108 -1.5940
  124OSM    C6S13193   1.778   3.163   7.000  0.3226  0.0454 -0.6890
  124OSM    H6S13194   1.836   3.257   7.013 -0.8721  0.8036 -0.6899
  124OSM    H6T13195   1.855   3.092   7.038 -0.7006 -1.1109 -0.7374
  124OSM    C7S13196   1.662   3.172   7.101  0.5271 -0.5668  0.2013
  124OSM    H7S13197   1.612   3.075   7.083 -1.0719  0.6128 -2.3234
  124OSM    H7T13198   1.587   3.251   7.077 -1.0809 -1.5511  1.7108
  124OSM    C8S13199   1.702   3.188   7.245  0.3229 -0.2289 -0.0806
  124OSM    H8S13200   1.726   3.296   7.259 -3.8048  0.8445 -0.0316
  124OSM    H8T13201   1.772   3.113   7.288 -1.2873 -1.9780 -0.3720
  124OSM    C9S13202   1.573   3.174   7.328 -0.0262  0.0709 -0.2278
  124OSM    H9S13203   1.523   3.075   7.317  1.5514 -0.7561 -0.3018
  124OSM    H9T13204   1.506   3.255   7.294 -0.5766  1.0718  2.8678
  124OSM   C10S13205   1.607   3.197   7.479  0.5960 -0.2184  0.6177
  124OSM   H10S13206   1.635   3.301   7.505  0.5251 -0.6121  2.4625
  124OSM   H10T13207   1.686   3.124   7.505 -0.6571 -1.2653  1.6627
  124OSM   C11S13208   1.492   3.147   7.575 -0.1324 -0.2159  0.4136
  124OSM   H11S13209   1.465   3.043   7.546 -1.2834  0.3612 -0.6762
  124OSM   H11T13210   1.405   3.213   7.555 -0.5007 -0.5690  0.8462
  124OSM   C12S13211   1.535   3.140   7.722 -0.5566 -0.5386  1.0997
  124OSM   H12S13212   1.626   3.079   7.740 -0.0506  0.4611  2.0759
  124OSM   H12T13213   1.459   3.083   7.780 -0.7690 -1.0177  0.3639
  124OSM   C13S13214   1.570   3.281   7.779  0.0739 -0.2900  1.2798
  124OSM   H13S13215   1.480   3.346   7.785 -0.5371 -1.1872  2.1029
  124OSM   H13T13216   1.637   3.335   7.709  0.3645 -2.0244  0.1638
  124OSM   C14S13217   1.626   3.289   7.926 -0.3649 -0.5197 -0.2866
  124OSM   H14S13218   1.628   3.396   7.956  3.2069 -0.2046 -1.2453
  124OSM   H14T13219   1.732   3.258   7.913  0.6793  2.7852 -0.4352
  124OSM   C15S13220   1.551   3.198   8.024  0.0411 -0.1995  0.4721
  124OSM   H15S13221   1.580   3.093   8.005 -1.2263 -0.1981 -1.8230
  124OSM   H15T13222   1.448   3.200   7.982  0.2806  0.9052 -0.1021
  124OSM   C16S13223   1.563   3.249   8.164 -0.5576  0.3921 -0.6041
  124OSM   H16S13224   1.558   3.360   8.164  0.0321  0.4317  0.7402
  124OSM   H16T13225   1.660   3.214   8.203 -1.9176 -2.8271  0.1520
  124OSM   C17S13226   1.454   3.194   8.251 -0.3082  0.2662 -0.6792
  124OSM   H17S13227   1.467   3.083   8.256  0.0140  0.2997  4.0348
  124OSM   H17T13228   1.358   3.228   8.207  0.1102  0.3812 -1.5244
  124OSM   C18S13229   1.472   3.235   8.401  0.2252  0.1495  0.9408
  124OSM   H18S13230   1.575   3.223   8.439  0.3181  0.1151  0.6803
  124OSM   H18T13231   1.397   3.180   8.462  1.4767 -4.3545 -1.1136
  124OSM   H18U13232   1.451   3.343   8.411  2.4433  0.6666  0.5290
  124OSM    C1F13233   1.680   2.685   6.710  0.2079 -0.0996  0.5867
  124OSM     OF13234   1.779   2.671   6.629  0.7724  0.7929  0.0756
  124OSM    C2F13235   1.638   2.578   6.799  0.1301 -0.5263 -0.3372
  124OSM    H2F13236   1.583   2.504   6.737  2.1796 -0.1178 -2.8271
  124OSM    H2G13237   1.572   2.628   6.874  0.9863  0.7000 -0.3706
  124OSM    C3F13238   1.757   2.516   6.871  0.1064 -0.1094  0.0573
  124OSM    H3F13239   1.810   2.601   6.919 -0.0011  2.7589 -4.3102
  124OSM    H3G13240   1.819   2.470   6.791  1.5694  1.2151  0.3906
  124OSM    C4F13241   1.702   2.399   6.953  0.3664  0.1744 -0.0355
  124OSM    H4F13242   1.694   2.327   6.869 -1.5762  0.6179 -0.2910
  124OSM    H4G13243   1.598   2.428   6.981 -0.3738  0.2817 -2.6339
  124OSM    C5F13244   1.792   2.340   7.058  0.6013  0.1103 -0.5435
  124OSM    H5F13245   1.897   2.336   7.022  1.1636 -0.2321  1.0450
  124OSM    H5G13246   1.748   2.244   7.092 -1.9218  0.6449 -2.0724
  124OSM    C6F13247   1.807   2.433   7.175  0.0506 -0.5609 -0.0897
  124OSM    H6F13248   1.718   2.500   7.177  0.6921  0.3008  0.5916
  124OSM    H6G13249   1.892   2.504   7.169 -0.0597 -0.4715 -0.6278
  124OSM    C7F13250   1.826   2.356   7.305 -0.2479 -0.1498 -0.3497
  124OSM    H7F13251   1.905   2.282   7.285  1.3267  1.4678 -0.3791
  124OSM    H7G13252   1.726   2.311   7.324 -0.3325  0.4212  0.6639
  124OSM    C8F13253   1.865   2.435   7.431 -0.1248  0.0126 -0.0015
  124OSM    H8F13254   1.802   2.525   7.451  2.0798  1.5286  0.5161
  124OSM    H8G13255   1.963   2.479   7.402 -0.3608  1.2675  1.0041
  124OSM    C9F13256   1.874   2.360   7.560  0.6823  0.2698 -0.1605
  124OSM    H9F13257   1.798   2.284   7.581 -0.0263  1.5226  2.2129
  124OSM   C10F13258   1.972   2.361   7.658  0.3857 -1.0047  0.7880
  124OSM   H10F13259   1.951   2.320   7.758 -1.7048  0.8917  1.1916
  124OSM   C11F13260   2.100   2.447   7.654  0.1360  0.7874  0.5645
  124OSM   H11F13261   2.108   2.514   7.743 -0.7438  1.7087 -0.0292
  124OSM   H11G13262   2.094   2.525   7.575  0.1017 -0.2866 -0.5065
  124OSM   C12F13263   2.230   2.370   7.646  0.2512 -0.7645 -1.1628
  124OSM   H12F13264   2.220   2.300   7.560  1.2662 -0.3141 -1.6674
  124OSM   H12G13265   2.251   2.310   7.737  2.9200 -0.1089 -1.2350
  124OSM   C13F13266   2.355   2.466   7.631 -0.3820  0.7343  0.1627
  124OSM   H13F13267   2.358   2.532   7.720  0.3464 -1.2964  1.6943
  124OSM   H13G13268   2.331   2.522   7.538  0.1055 -0.0422 -0.4474
  124OSM   C14F13269   2.491   2.397   7.604  0.9055 -0.6913 -0.4768
  124OSM   H14F13270   2.477   2.315   7.530 -3.0961 -0.1031 -0.5739
  124OSM   H14G13271   2.521   2.348   7.699  0.2206 -1.3363 -0.5880
  124OSM   C15F13272   2.592   2.496   7.553  0.1535  0.0631  0.0726
  124OSM   H15F13273   2.695   2.455   7.547  0.5433  1.0776 -0.4107
  124OSM   H15G13274   2.580   2.584   7.621 -0.7302  1.4706 -1.8247
  124OSM   C16F13275   2.561   2.567   7.417  0.7122 -0.5674  0.1391
  124OSM   H16F13276   2.625   2.658   7.416  0.2317 -0.1715 -2.4540
  124OSM   H16G13277   2.456   2.604   7.416  0.0810 -2.2161  0.6992
  124OSM   C17F13278   2.570   2.470   7.297 -0.5884 -0.7316 -0.4882
  124OSM   H17F13279   2.518   2.377   7.330 -0.1226 -1.0852 -0.7253
  124OSM   H17G13280   2.678   2.444   7.295 -0.6913 -1.1013 -1.4864
  124OSM   C18F13281   2.497   2.520   7.177 -0.1986  0.2136 -0.2852
  124OSM   H18F13282   2.388   2.536   7.191 -0.3063 -2.2394  2.6578
  124OSM   H18G13283   2.526   2.458   7.089  2.2302 -1.0321  1.2814
  124OSM   H18H13284   2.543   2.620   7.158  3.0118 -1.4713 -2.3652
  125OSM      N13285   0.923   4.145   6.018  0.5159  0.5759  0.7684
  125OSM    C1513286   1.034   4.216   5.939  0.6622 -0.0816  0.8203
  125OSM   H15A13287   1.042   4.165   5.845 -2.1512  0.1795  0.3357
  125OSM   H15B13288   1.130   4.189   5.981  1.0849 -2.1015 -1.2498
  125OSM   H15C13289   1.013   4.320   5.919  2.7122  0.0488 -1.0221
  125OSM    C1413290   0.942   3.998   6.024  0.1086 -0.0603 -0.4573
  125OSM   H14A13291   0.946   3.954   5.925  0.1944 -1.4135  0.1313
  125OSM   H14B13292   0.880   3.936   6.087  2.2614 -1.7135  0.1404
  125OSM   H14C13293   1.041   3.980   6.061 -0.5671 -0.1997  1.3962
  125OSM    C1313294   0.931   4.191   6.162  0.0713 -0.6906 -0.2717
  125OSM   H13A13295   0.895   4.293   6.171  1.1614 -0.3432  0.2953
  125OSM   H13B13296   1.033   4.185   6.197  0.8183 -1.0416 -2.4105
  125OSM   H13C13297   0.859   4.142   6.226 -0.3484 -0.9406 -0.9233
  125OSM    C1213298   0.784   4.180   5.966  0.2828  0.5007  0.1051
  125OSM   H12A13299   0.771   4.139   5.867  0.0472  0.2489  0.2390
  125OSM   H12B13300   0.781   4.287   5.950  0.7783  0.8519  2.0503
  125OSM    C1113301   0.660   4.142   6.047  0.5833  0.2892 -0.2189
  125OSM   H11A13302   0.575   4.184   5.989  1.7072 -0.5007 -2.5181
  125OSM   H11B13303   0.664   4.195   6.145  1.6094 -0.9847  0.4683
  125OSM      P13304   0.612   3.931   6.198  0.2273 -0.0792  0.0928
  125OSM    O1313305   0.480   3.986   6.242  0.7152 -0.3288 -0.2587
  125OSM    O1413306   0.624   3.785   6.180  0.1838 -0.7638  0.0530
  125OSM    O1113307   0.727   3.982   6.289 -0.7044 -0.4570 -0.0154
  125OSM    O1213308   0.643   4.002   6.052 -0.1770  0.6345 -0.4018
  125OSM    C1S13309   0.715   4.035   6.417 -0.3706  0.1984 -0.3818
  125OSM    H1S13310   0.610   4.056   6.445 -0.0829  0.5867  0.4259
  125OSM    H1T13311   0.771   4.131   6.418  2.1162 -1.0453 -3.1188
  125OSM     NF13312   0.751   4.024   6.658  0.4658  0.3230  0.0532
  125OSM    HNF13313   0.817   4.078   6.709  0.9141  0.4679 -0.6614
  125OSM    C2S13314   0.782   3.952   6.535 -0.1111 -0.1309  0.4322
  125OSM    H2S13315   0.725   3.857   6.546 -0.8237  0.0292 -1.5536
  125OSM    C3S13316   0.931   3.916   6.505  0.5181 -1.0761 -0.2552
  125OSM    H3S13317   0.980   4.015   6.495 -0.6938 -0.3802  0.4683
  125OSM     O313318   0.942   3.848   6.378  0.8549 -0.0699  0.4569
  125OSM    HO313319   0.867   3.885   6.331 -0.1982  0.1899  2.2763
  125OSM    C4S13320   0.987   3.839   6.624 -0.3103 -0.7298 -0.5019
  125OSM    H4S13321   1.025   3.909   6.700  1.1716 -0.0085 -1.8546
  125OSM    C5S13322   1.019   3.711   6.643 -0.5590  0.2907 -0.2318
  125OSM    H5S13323   1.004   3.638   6.562 -0.0657  1.7557 -1.6947
  125OSM    C6S13324   1.082   3.647   6.762  0.2741  0.3452 -0.0320
  125OSM    H6S13325   1.163   3.579   6.728 -0.4708 -1.2403  1.2180
  125OSM    H6T13326   1.006   3.574   6.796 -0.1300  0.5644 -0.4355
  125OSM    C7S13327   1.149   3.735   6.875 -0.5991 -0.0139  0.3781
  125OSM    H7S13328   1.066   3.794   6.917 -1.1787  1.1665 -2.2426
  125OSM    H7T13329   1.207   3.815   6.825  2.7355 -1.6735  1.2767
  125OSM    C8S13330   1.232   3.665   6.985 -0.6715 -0.0537 -0.5802
  125OSM    H8S13331   1.313   3.615   6.929 -0.1875  1.7964 -1.5812
  125OSM    H8T13332   1.161   3.594   7.033 -0.3353 -0.2859 -0.4215
  125OSM    C9S13333   1.296   3.753   7.091  0.3051  0.3779 -0.0846
  125OSM    H9S13334   1.318   3.843   7.029 -0.5442  0.9444  0.4146
  125OSM    H9T13335   1.390   3.712   7.134  0.7744  1.8274  0.3375
  125OSM   C10S13336   1.201   3.791   7.200  0.6664 -1.0899 -0.8515
  125OSM   H10S13337   1.180   3.711   7.273  2.3806  0.4181  1.4253
  125OSM   H10T13338   1.105   3.819   7.151  0.1898 -0.9997  0.1138
  125OSM   C11S13339   1.257   3.903   7.290  0.0379  0.1331 -0.0252
  125OSM   H11S13340   1.277   3.992   7.227 -0.1736 -1.4180 -2.4091
  125OSM   H11T13341   1.358   3.873   7.325 -0.5710 -0.4600  1.3011
  125OSM   C12S13342   1.173   3.929   7.414  0.4688 -0.2876 -0.2360
  125OSM   H12S13343   1.155   3.845   7.484 -1.5847 -1.0608 -1.6113
  125OSM   H12T13344   1.071   3.960   7.381  0.4965 -1.0723 -1.0878
  125OSM   C13S13345   1.229   4.053   7.493 -0.6906  0.4091 -0.1663
  125OSM   H13S13346   1.278   4.132   7.431  1.7539  0.9946  2.3353
  125OSM   H13T13347   1.306   4.016   7.564 -3.3184 -3.1598  1.1042
  125OSM   C14S13348   1.106   4.103   7.573 -0.3906  0.2059 -0.2409
  125OSM   H14S13349   1.009   4.086   7.522  0.4594 -0.6606 -1.6520
  125OSM   H14T13350   1.125   4.212   7.579  0.4979  0.2270 -2.3443
  125OSM   C15S13351   1.109   4.057   7.720  0.4085 -0.5100 -0.6216
  125OSM   H15S13352   1.208   4.015   7.749  0.8031  0.4367 -0.5456
  125OSM   H15T13353   1.018   3.995   7.730 -0.5057  0.5184 -2.1039
  125OSM   C16S13354   1.090   4.187   7.811  0.0872  0.1368 -0.2877
  125OSM   H16S13355   1.173   4.258   7.788  0.8681 -1.0680 -1.3009
  125OSM   H16T13356   1.090   4.144   7.913 -1.4145  2.3147  0.6928
  125OSM   C17S13357   0.948   4.248   7.795  0.4700  0.5368 -0.7400
  125OSM   H17S13358   0.881   4.160   7.780 -0.1527  1.1494 -1.5930
  125OSM   H17T13359   0.948   4.292   7.693  0.8220  1.3931 -0.3719
  125OSM   C18S13360   0.899   4.346   7.898  0.1340  0.7322 -0.0762
  125OSM   H18S13361   0.969   4.431   7.914 -0.9408  2.1610 -2.4990
  125OSM   H18T13362   0.886   4.290   7.994  0.8792  1.9721  0.7829
  125OSM   H18U13363   0.798   4.389   7.885 -0.8052 -1.4044 -0.2536
  125OSM    C1F13364   0.621   4.040   6.706 -0.1484  0.2678 -0.1331
  125OSM     OF13365   0.526   3.984   6.654  0.0050 -0.2852  0.1853
  125OSM    C2F13366   0.603   4.128   6.826 -0.3449 -0.4986 -0.1172
  125OSM    H2F13367   0.579   4.232   6.796  1.4390  0.4989  1.5996
  125OSM    H2G13368   0.696   4.116   6.886  0.1663 -3.5383 -1.3598
  125OSM    C3F13369   0.485   4.078   6.911 -0.1343  0.1351  0.0328
  125OSM    H3F13370   0.516   3.976   6.945 -1.3827 -0.5581 -0.8424
  125OSM    H3G13371   0.397   4.077   6.845  0.3364 -0.8242 -0.6075
  125OSM    C4F13372   0.456   4.163   7.032 -0.0466 -1.2577 -0.3759
  125OSM    H4F13373   0.348   4.148   7.055  0.1663  0.8628  2.7712
  125OSM    H4G13374   0.465   4.271   7.009 -0.9653 -1.0628  0.1257
  125OSM    C5F13375   0.532   4.136   7.164 -0.2181  0.0232 -0.7924
  125OSM    H5F13376   0.641   4.154   7.153 -0.2678 -0.3799 -2.0783
  125OSM    H5G13377   0.514   4.030   7.190 -1.2265  0.0410 -1.3416
  125OSM    C6F13378   0.480   4.224   7.287 -0.8616 -0.2673  0.0146
  125OSM    H6F13379   0.374   4.200   7.310 -1.0928 -0.5161 -1.2625
  125OSM    H6G13380   0.482   4.333   7.264 -3.6526 -0.6166 -2.4468
  125OSM    C7F13381   0.565   4.195   7.414 -0.1541 -0.1650 -0.0394
  125OSM    H7F13382   0.667   4.235   7.393 -0.2133 -0.0663 -0.1416
  125OSM    H7G13383   0.579   4.087   7.436  0.9458  0.0540  0.4157
  125OSM    C8F13384   0.525   4.278   7.541  0.0764 -0.1646 -0.1147
  125OSM    H8F13385   0.423   4.237   7.557  0.7276 -0.9805  2.2298
  125OSM    H8G13386   0.521   4.388   7.521 -0.7135 -0.0469  0.6193
  125OSM    C9F13387   0.612   4.246   7.659  0.4498  0.9127  0.3962
  125OSM    H9F13388   0.718   4.224   7.640  1.4362  2.0862  3.8558
  125OSM   C10F13389   0.571   4.201   7.776  0.7465 -0.3090 -0.2680
  125OSM   H10F13390   0.653   4.186   7.848  1.1502 -2.1919 -1.0657
  125OSM   C11F13391   0.427   4.197   7.825  0.3462  0.0435 -0.3331
  125OSM   H11F13392   0.386   4.094   7.829  0.8603 -0.1291  2.5393
  125OSM   H11G13393   0.358   4.268   7.774  2.5322  2.0213 -0.7288
  125OSM   C12F13394   0.417   4.255   7.966  0.3536  0.4463  0.3187
  125OSM   H12F13395   0.447   4.362   7.968 -2.3859  1.2748  0.4521
  125OSM   H12G13396   0.475   4.200   8.043 -2.2446  0.1538  2.1763
  125OSM   C13F13397   0.271   4.248   8.022  0.6192 -0.0445  0.4232
  125OSM   H13F13398   0.247   4.140   8.032 -2.0235  0.4301 -0.1968
  125OSM   H13G13399   0.197   4.300   7.957  0.1465  1.7911  2.3423
  125OSM   C14F13400   0.254   4.307   8.165 -0.2582 -0.8262 -0.2016
  125OSM   H14F13401   0.145   4.324   8.182 -0.0474  1.9866 -1.1702
  125OSM   H14G13402   0.302   4.407   8.171 -0.1583 -0.6839 -2.5049
  125OSM   C15F13403   0.304   4.219   8.281  0.3811  0.4816  0.3299
  125OSM   H15F13404   0.413   4.199   8.273  0.7178  2.0429  0.7671
  125OSM   H15G13405   0.241   4.128   8.271  1.3822 -0.0457 -1.6841
  125OSM   C16F13406   0.287   4.273   8.422  0.8209  0.1754 -0.5187
  125OSM   H16F13407   0.181   4.293   8.448  1.1608  1.8827 -0.3547
  125OSM   H16G13408   0.341   4.369   8.433  1.5656 -0.2178 -0.6738
  125OSM   C17F13409   0.336   4.178   8.538  0.1945 -0.7175  0.2807
  125OSM   H17F13410   0.321   4.232   8.634  1.2259  0.4885 -0.2161
  125OSM   H17G13411   0.446   4.164   8.534  0.5119  1.4642  0.3473
  125OSM   C18F13412   0.265   4.043   8.557 -0.0523 -0.3213 -0.8171
  125OSM   H18F13413   0.268   3.991   8.458  1.0182  0.8272 -1.4160
  125OSM   H18G13414   0.159   4.062   8.582  0.1557 -0.7175  0.4282
  125OSM   H18H13415   0.326   3.994   8.636  2.4452 -0.5278 -2.7166
  126OSM      N13416   6.299   2.547   6.162  0.0371  0.3012 -0.0004
  126OSM    C1513417   6.429   2.620   6.126 -0.5862  0.0874 -0.0044
  126OSM   H15A13418   6.508   2.547   6.120 -1.1608 -0.7880  2.0636
  126OSM   H15B13419   6.456   2.698   6.196  2.6271 -0.6856 -0.2395
  126OSM   H15C13420   6.415   2.675   6.035 -0.4821  3.0247  1.6319
  126OSM    C1413421   6.185   2.646   6.164  0.0281  0.1056 -0.2821
  126OSM   H14A13422   6.096   2.596   6.198 -0.1986  0.5513 -0.2203
  126OSM   H14B13423   6.179   2.679   6.061  0.7803  2.8562  0.4948
  126OSM   H14C13424   6.208   2.724   6.234  1.2801 -0.7189  0.2837
  126OSM    C1313425   6.278   2.434   6.062  0.0543  0.0872  0.4606
  126OSM   H13A13426   6.175   2.404   6.078 -0.2454 -0.2204 -1.6814
  126OSM   H13B13427   6.329   2.341   6.083 -0.2713  0.0083  0.9400
  126OSM   H13C13428   6.273   2.461   5.957  0.3514 -0.6004  0.2619
  126OSM    C1213429   6.312   2.482   6.298  0.1125 -0.0612  0.7992
  126OSM   H12A13430   6.356   2.555   6.366 -1.0898  1.0200  0.4640
  126OSM   H12B13431   6.385   2.402   6.296  0.2639 -0.0119  2.4133
  126OSM    C1113432   6.193   2.413   6.372  0.5105  0.1402  0.4838
  126OSM   H11A13433   6.104   2.478   6.364  0.3410 -0.3566 -2.8489
  126OSM   H11B13434   6.222   2.408   6.480  1.2346 -0.2364  0.2782
  126OSM      P13435   6.257   2.154   6.338 -0.2927  0.2168  0.1429
  126OSM    O1313436   6.214   2.032   6.263 -0.6074 -0.3796 -0.5194
  126OSM    O1413437   6.401   2.191   6.326  1.0499  0.2417 -0.0478
  126OSM    O1113438   6.232   2.144   6.500 -0.4630  0.3248 -0.4964
  126OSM    O1213439   6.165   2.284   6.304  0.2210  0.6405 -0.2701
  126OSM    C1S13440   6.101   2.127   6.550  0.4896  0.0804  0.7105
  126OSM    H1S13441   6.062   2.030   6.513 -0.1124  0.1469  1.1633
  126OSM    H1T13442   6.032   2.207   6.518  1.5749  1.8934  2.6149
  126OSM     NF13443   5.973   2.083   6.766  0.1663 -0.4346 -0.5553
  126OSM    HNF13444   5.935   2.154   6.824  0.0474  0.2071 -1.4060
  126OSM    C2S13445   6.108   2.114   6.707 -0.0758  0.7214  0.3745
  126OSM    H2S13446   6.179   2.030   6.725 -0.6573  0.0868 -0.2472
  126OSM    C3S13447   6.162   2.249   6.773  1.4068 -0.2383 -1.2716
  126OSM    H3S13448   6.087   2.330   6.770  2.7899  1.1922  0.2408
  126OSM     O313449   6.272   2.297   6.706 -0.2992 -0.1617 -0.2371
  126OSM    HO313450   6.270   2.252   6.621  1.3523 -1.9436  0.5961
  126OSM    C4S13451   6.196   2.227   6.918 -0.3238  0.4046 -0.5694
  126OSM    H4S13452   6.105   2.222   6.980 -0.7308 -1.5298 -1.2357
  126OSM    C5S13453   6.313   2.200   6.982  0.2488 -0.2890 -0.4272
  126OSM    H5S13454   6.406   2.198   6.923 -0.6057 -1.2077 -1.8001
  126OSM    C6S13455   6.333   2.176   7.127 -0.2938 -0.4974 -0.3267
  126OSM    H6S13456   6.380   2.075   7.134  0.3078 -0.3737 -2.1704
  126OSM    H6T13457   6.232   2.174   7.174  0.9155  1.3694  2.6228
  126OSM    C7S13458   6.423   2.282   7.202  0.0398 -0.2642  0.9012
  126OSM    H7S13459   6.379   2.384   7.193  0.8133  0.0791  0.8968
  126OSM    H7T13460   6.517   2.291   7.143  0.2173 -0.0908  1.2067
  126OSM    C8S13461   6.448   2.252   7.350 -0.0341 -0.3574 -0.5417
  126OSM    H8S13462   6.471   2.347   7.403  2.0095  0.6644 -3.0312
  126OSM    H8T13463   6.542   2.194   7.365  0.0602  0.4444  2.8241
  126OSM    C9S13464   6.326   2.188   7.415  0.6997 -0.4492 -0.0003
  126OSM    H9S13465   6.287   2.092   7.372 -0.6435 -0.6291  1.4974
  126OSM    H9T13466   6.239   2.256   7.400 -0.5049 -2.0419 -0.5959
  126OSM   C10S13467   6.341   2.141   7.571  0.6409 -0.4625  0.2062
  126OSM   H10S13468   6.421   2.064   7.571 -0.6047 -1.8640  1.9878
  126OSM   H10T13469   6.250   2.082   7.597  0.8067 -0.8499 -0.0752
  126OSM   C11S13470   6.374   2.249   7.673 -0.6152 -0.5021  0.0127
  126OSM   H11S13471   6.288   2.320   7.675  0.0750  0.3542  1.4832
  126OSM   H11T13472   6.461   2.305   7.632 -2.5096  3.1041  0.4372
  126OSM   C12S13473   6.410   2.200   7.814 -0.3322 -0.5037 -0.3485
  126OSM   H12S13474   6.417   2.287   7.883 -1.1995  1.4585 -2.5728
  126OSM   H12T13475   6.501   2.138   7.797 -0.9585 -1.3357 -0.7268
  126OSM   C13S13476   6.318   2.098   7.884  0.3410 -0.5266 -0.1688
  126OSM   H13S13477   6.337   2.000   7.835  2.4584 -0.6820  0.8362
  126OSM   H13T13478   6.216   2.136   7.865  1.0460  1.1749 -0.8078
  126OSM   C14S13479   6.352   2.082   8.036  0.4166 -0.1555  0.2029
  126OSM   H14S13480   6.335   2.177   8.091 -0.2135  0.0755 -0.3790
  126OSM   H14T13481   6.458   2.052   8.051  0.8716  1.0589 -0.4636
  126OSM   C15S13482   6.256   1.979   8.092  0.7464 -0.3152 -0.7708
  126OSM   H15S13483   6.257   1.887   8.030 -2.1049 -0.2042 -1.1045
  126OSM   H15T13484   6.160   2.034   8.101  2.3643  2.6775 -0.2977
  126OSM   C16S13485   6.299   1.927   8.230  0.1679 -0.1917  0.6032
  126OSM   H16S13486   6.410   1.917   8.230  0.1187 -0.8542  1.2023
  126OSM   H16T13487   6.259   1.826   8.253 -1.1638 -0.0197 -0.8024
  126OSM   C17S13488   6.261   2.032   8.341 -0.5339  0.3789 -0.1105
  126OSM   H17S13489   6.155   2.066   8.329 -0.8316 -0.7139 -0.7304
  126OSM   H17T13490   6.314   2.127   8.320  1.1409 -0.5433 -0.1508
  126OSM   C18S13491   6.286   1.986   8.482  0.0202 -0.2516 -0.2089
  126OSM   H18S13492   6.240   2.047   8.562  0.0654  2.1600 -1.9181
  126OSM   H18T13493   6.396   1.981   8.493  0.0600 -2.5188 -0.9276
  126OSM   H18U13494   6.247   1.882   8.490  0.3357 -0.2138  2.7384
  126OSM    C1F13495   5.896   1.983   6.748  0.3297  0.0134  0.5284
  126OSM     OF13496   5.937   1.886   6.692 -0.1744 -0.0834 -0.0692
  126OSM    C2F13497   5.764   1.979   6.817 -0.5738  0.1437  0.5291
  126OSM    H2F13498   5.709   1.896   6.768 -0.0424 -0.3364  0.7518
  126OSM    H2G13499   5.707   2.073   6.797  2.0386  1.3563 -1.8906
  126OSM    C3F13500   5.782   1.943   6.969  0.3757 -0.0759 -0.6430
  126OSM    H3F13501   5.813   2.026   7.036 -0.0958  0.9570 -1.6697
  126OSM    H3G13502   5.842   1.851   6.981  1.0465  0.4917  0.5687
  126OSM    C4F13503   5.641   1.913   7.028 -0.1869  0.0166  1.0159
  126OSM    H4F13504   5.591   1.842   6.959 -1.8157  3.5008 -1.7208
  126OSM    H4G13505   5.585   2.008   7.019  0.6735  0.3876 -0.9764
  126OSM    C5F13506   5.627   1.859   7.169  0.0029  0.2683 -0.1464
  126OSM    H5F13507   5.687   1.928   7.233 -1.6707  1.1487  0.5560
  126OSM    H5G13508   5.668   1.759   7.193 -0.5541  0.2801  0.9591
  126OSM    C6F13509   5.482   1.880   7.219  0.7545 -0.3023  0.1450
  126OSM    H6F13510   5.420   1.831   7.140  0.2948 -2.5887  1.8146
  126OSM    H6G13511   5.468   1.989   7.231  1.4395 -0.2761  0.7522
  126OSM    C7F13512   5.465   1.806   7.351 -0.1002 -0.4310 -0.0306
  126OSM    H7F13513   5.526   1.868   7.421 -0.7390  0.3809 -0.1832
  126OSM    H7G13514   5.514   1.706   7.339  0.4087  0.0991 -3.3708
  126OSM    C8F13515   5.316   1.796   7.398  0.3837  0.2143  0.0179
  126OSM    H8F13516   5.323   1.728   7.486  1.7706 -1.2327 -1.1567
  126OSM    H8G13517   5.256   1.748   7.316  1.7580 -0.0850 -0.8388
  126OSM    C9F13518   5.261   1.933   7.433 -0.0196  0.4909 -0.0515
  126OSM    H9F13519   5.247   1.996   7.344  0.9731  0.4191 -0.2603
  126OSM   C10F13520   5.247   1.986   7.557 -0.1859  0.0296 -0.0493
  126OSM   H10F13521   5.201   2.086   7.558  1.4548  0.9704 -3.4545
  126OSM   C11F13522   5.280   1.923   7.691 -0.1931 -0.4248 -0.3354
  126OSM   H11F13523   5.387   1.936   7.718 -0.7566 -0.5930  2.2316
  126OSM   H11G13524   5.272   1.812   7.689  0.1163 -0.5464  1.9226
  126OSM   C12F13525   5.196   1.981   7.801  0.2434  0.0375 -0.6828
  126OSM   H12F13526   5.169   1.896   7.867 -0.6688 -0.3503 -1.5376
  126OSM   H12G13527   5.098   2.020   7.767  0.4934  2.6919  1.2674
  126OSM   C13F13528   5.274   2.088   7.875  0.7596  0.1098 -0.5268
  126OSM   H13F13529   5.306   2.170   7.808  2.7451  0.4506  0.7331
  126OSM   H13G13530   5.372   2.053   7.916  1.1979  0.7746 -0.9831
  126OSM   C14F13531   5.196   2.140   7.991  0.2575 -0.2614  0.0106
  126OSM   H14F13532   5.185   2.058   8.065  3.3418 -0.7999  0.0198
  126OSM   H14G13533   5.096   2.179   7.961 -2.1949 -3.4461  3.1642
  126OSM   C15F13534   5.268   2.258   8.064 -0.9011 -0.5213  0.3477
  126OSM   H15F13535   5.295   2.328   7.982  0.5471  2.2354  2.9642
  126OSM   H15G13536   5.359   2.223   8.118 -0.8335 -0.6905  0.1263
  126OSM   C16F13537   5.165   2.325   8.159 -0.8975 -0.1359 -0.3506
  126OSM   H16F13538   5.114   2.250   8.223 -0.3705 -1.7010 -1.7161
  126OSM   H16G13539   5.091   2.393   8.112 -0.8409  1.0832  1.2182
  126OSM   C17F13540   5.242   2.414   8.257  0.8630 -0.0706 -0.0299
  126OSM   H17F13541   5.258   2.518   8.224  0.1078  0.3029  0.7271
  126OSM   H17G13542   5.338   2.365   8.284  0.1016 -1.3015  0.5516
  126OSM   C18F13543   5.185   2.412   8.403 -0.3009  0.1442 -0.5307
  126OSM   H18F13544   5.210   2.318   8.455 -0.6592  0.8556  0.9815
  126OSM   H18G13545   5.080   2.447   8.409  0.0032  1.0808 -0.5022
  126OSM   H18H13546   5.239   2.488   8.464  0.3297 -2.0461  1.7747
  127OSM      N13547   1.482   1.515   6.015 -0.5037 -0.4832 -0.3226
  127OSM    C1513548   1.539   1.630   5.947  0.5613 -0.0666  0.0830
  127OSM   H15A13549   1.621   1.675   6.002  0.3019  1.0887 -0.4432
  127OSM   H15B13550   1.469   1.709   5.924 -0.6989 -0.9377  0.7899
  127OSM   H15C13551   1.577   1.602   5.851 -1.1239 -1.5192 -0.2191
  127OSM    C1413552   1.374   1.453   5.930 -0.2408  0.3307 -0.0087
  127OSM   H14A13553   1.413   1.416   5.837 -0.2276 -1.8049  0.8035
  127OSM   H14B13554   1.301   1.522   5.891  1.5996  1.2924 -1.9469
  127OSM   H14C13555   1.334   1.372   5.989  0.0511 -0.4297 -0.8451
  127OSM    C1313556   1.590   1.411   6.026  0.2546 -0.7780 -0.3381
  127OSM   H13A13557   1.657   1.429   6.110  1.6445 -1.3452 -1.2915
  127OSM   H13B13558   1.646   1.404   5.934 -1.4334  2.2097 -1.7338
  127OSM   H13C13559   1.533   1.323   6.051 -3.0813  0.6162 -2.3994
  127OSM    C1213560   1.417   1.558   6.144  0.3602  0.3801  0.2544
  127OSM   H12A13561   1.345   1.484   6.177  0.8594  0.1694  0.8785
  127OSM   H12B13562   1.361   1.648   6.124 -2.1795 -1.2724 -0.6009
  127OSM    C1113563   1.516   1.589   6.259  0.2801  0.3013 -0.0246
  127OSM   H11A13564   1.576   1.499   6.283  1.6298  0.8428 -1.1822
  127OSM   H11B13565   1.463   1.613   6.354  1.4366 -0.0866  0.7376
  127OSM      P13566   1.548   1.851   6.232  0.3827  0.4163 -0.0691
  127OSM    O1313567   1.661   1.936   6.215 -0.0941  0.8598 -0.1044
  127OSM    O1413568   1.437   1.860   6.139  0.7648  0.4238 -0.2125
  127OSM    O1113569   1.484   1.869   6.372 -0.1809  0.0076  0.1565
  127OSM    O1213570   1.599   1.701   6.231  0.2666  0.0383  0.3448
  127OSM    C1S13571   1.554   1.881   6.500 -0.5327 -0.2264  0.0918
  127OSM    H1S13572   1.593   1.982   6.525  1.4813 -1.0058  0.2836
  127OSM    H1T13573   1.644   1.817   6.492 -0.7807 -0.3630 -2.2194
  127OSM     NF13574   1.563   1.779   6.724 -0.2875 -0.2330 -0.6442
  127OSM    HNF13575   1.563   1.680   6.734  1.8300 -0.6230 -3.2670
  127OSM    C2S13576   1.474   1.840   6.628 -0.0909 -0.1910  0.6014
  127OSM    H2S13577   1.431   1.932   6.673 -0.1361 -1.0431  2.3830
  127OSM    C3S13578   1.349   1.754   6.600  0.0060 -0.4824 -0.0805
  127OSM    H3S13579   1.384   1.669   6.538  0.5118  0.4058 -1.0605
  127OSM     O313580   1.262   1.821   6.502 -0.4833  0.0163 -0.1235
  127OSM    HO313581   1.320   1.886   6.461  0.0134  0.2636  0.9462
  127OSM    C4S13582   1.278   1.712   6.725  0.2442  0.0807 -0.4930
  127OSM    H4S13583   1.314   1.620   6.774 -1.5421 -0.4728 -0.1261
  127OSM    C5S13584   1.196   1.790   6.793 -0.2196  0.0578  0.0915
  127OSM    H5S13585   1.173   1.892   6.759 -0.1916  0.0750  0.1235
  127OSM    C6S13586   1.129   1.756   6.923  0.7025 -0.6815 -0.1701
  127OSM    H6S13587   1.027   1.714   6.911  0.3291  0.4641 -1.3565
  127OSM    H6T13588   1.125   1.850   6.981 -1.6175 -0.3155 -0.8314
  127OSM    C7S13589   1.211   1.647   6.998  0.8738 -0.0602  0.3249
  127OSM    H7S13590   1.319   1.670   6.997  0.8925  0.1188 -2.8750
  127OSM    H7T13591   1.203   1.554   6.938  1.6530  0.1465 -0.0985
  127OSM    C8S13592   1.186   1.624   7.147  0.2072  0.1675  0.2063
  127OSM    H8S13593   1.231   1.530   7.186  0.2033  0.2439  0.3928
  127OSM    H8T13594   1.076   1.611   7.139  0.2381  0.9637 -2.6267
  127OSM    C9S13595   1.199   1.740   7.247  0.0640  0.4831  0.5188
  127OSM    H9S13596   1.129   1.823   7.222  2.4001  1.8407 -1.9137
  127OSM    H9T13597   1.303   1.777   7.243 -0.0119  0.6142 -0.3353
  127OSM   C10S13598   1.175   1.680   7.389  0.0078 -0.1874  0.1245
  127OSM   H10S13599   1.082   1.621   7.401 -0.5240  0.7157  0.5986
  127OSM   H10T13600   1.143   1.767   7.451  0.4196  0.2822 -0.3138
  127OSM   C11S13601   1.288   1.594   7.453 -0.1026  0.3516  0.4310
  127OSM   H11S13602   1.379   1.628   7.398  1.4726 -1.4279  1.7894
  127OSM   H11T13603   1.271   1.485   7.439  0.0181 -0.1627  3.5262
  127OSM   C12S13604   1.312   1.624   7.593 -1.0775 -0.3259 -0.2082
  127OSM   H12S13605   1.211   1.615   7.639 -1.3180  1.1817 -0.4078
  127OSM   H12T13606   1.349   1.727   7.607 -1.2750 -0.3882  0.8829
  127OSM   C13S13607   1.405   1.528   7.663  0.0044  0.6395 -0.2130
  127OSM   H13S13608   1.506   1.512   7.618 -0.3350 -0.8881 -0.4951
  127OSM   H13T13609   1.371   1.422   7.658 -0.0895  0.6962 -0.8292
  127OSM   C14S13610   1.423   1.563   7.813 -0.6265  0.3164  0.1085
  127OSM   H14S13611   1.323   1.584   7.856 -0.4395  2.4165 -0.3651
  127OSM   H14T13612   1.476   1.660   7.821  3.1778 -1.4150 -1.2378
  127OSM   C15S13613   1.494   1.455   7.902 -0.1297 -0.4146 -0.3100
  127OSM   H15S13614   1.602   1.482   7.900 -0.8946  3.1885  0.1411
  127OSM   H15T13615   1.471   1.360   7.851  1.1925 -1.5183  1.0458
  127OSM   C16S13616   1.434   1.431   8.042 -0.1449 -0.0833  0.7575
  127OSM   H16S13617   1.439   1.324   8.071 -1.4826 -0.0360  1.2158
  127OSM   H16T13618   1.327   1.459   8.046 -0.3401 -0.8599  1.0775
  127OSM   C17S13619   1.504   1.498   8.163  0.0477 -0.4632 -0.0167
  127OSM   H17S13620   1.488   1.608   8.151 -0.5597 -0.5749 -0.2842
  127OSM   H17T13621   1.613   1.479   8.160  0.6550  2.4297  0.6147
  127OSM   C18S13622   1.443   1.456   8.298  0.3687 -0.2664  0.6443
  127OSM   H18S13623   1.421   1.347   8.297 -0.2318 -0.2132 -2.7881
  127OSM   H18T13624   1.351   1.515   8.318  1.8418  3.3461 -2.0180
  127OSM   H18U13625   1.512   1.484   8.381 -0.7904 -0.1280  1.5831
  127OSM    C1F13626   1.657   1.854   6.784  0.5111  0.7378  0.2182
  127OSM     OF13627   1.659   1.977   6.769 -0.3354  0.3894  0.1679
  127OSM    C2F13628   1.754   1.785   6.873  0.4625  0.8468 -1.2408
  127OSM    H2F13629   1.841   1.751   6.814  0.1136  1.1258 -1.9245
  127OSM    H2G13630   1.708   1.692   6.915  1.9657 -0.1285 -1.6915
  127OSM    C3F13631   1.813   1.875   6.987 -0.5516 -0.3126 -0.0150
  127OSM    H3F13632   1.868   1.960   6.941 -0.2693 -0.0927  0.7042
  127OSM    H3G13633   1.892   1.818   7.041  0.7325  1.2633 -0.1411
  127OSM    C4F13634   1.704   1.923   7.086 -0.5971  0.7213  0.6868
  127OSM    H4F13635   1.607   1.940   7.035 -0.6642  2.4133  1.3141
  127OSM    H4G13636   1.729   2.017   7.141  0.8192  0.0706  1.2134
  127OSM    C5F13637   1.663   1.815   7.190  0.9327  0.3643  0.9614
  127OSM    H5F13638   1.640   1.718   7.140  2.0562  0.8770 -0.6509
  127OSM    H5G13639   1.563   1.844   7.228 -0.2076  0.5979 -1.9044
  127OSM    C6F13640   1.742   1.797   7.308 -0.1875 -0.8088  0.5057
  127OSM    H6F13641   1.846   1.769   7.281 -0.8608 -2.3906 -0.6076
  127OSM    H6G13642   1.704   1.718   7.377 -0.3148 -0.9836  0.2379
  127OSM    C7F13643   1.764   1.929   7.382  0.5239 -0.0011 -0.1491
  127OSM    H7F13644   1.816   2.007   7.323 -0.1679 -0.8703 -1.9677
  127OSM    H7G13645   1.824   1.907   7.473 -1.0851 -1.3271  0.6570
  127OSM    C8F13646   1.637   2.006   7.434  0.7303  0.4796 -0.4267
  127OSM    H8F13647   1.559   2.003   7.354  0.2369  0.4394  0.0482
  127OSM    H8G13648   1.646   2.115   7.449  1.1359  0.6261 -1.6030
  127OSM    C9F13649   1.581   1.933   7.560  0.2644  1.1967 -0.0855
  127OSM    H9F13650   1.587   1.824   7.553 -1.1247  0.8828  2.4587
  127OSM   C10F13651   1.537   1.987   7.679 -0.1597 -0.1560  0.1740
  127OSM   H10F13652   1.515   1.919   7.762  1.8197  2.2656  2.8873
  127OSM   C11F13653   1.530   2.132   7.713 -0.4326 -0.2313  0.1447
  127OSM   H11F13654   1.429   2.175   7.727 -0.1714  0.8866 -1.2041
  127OSM   H11G13655   1.568   2.196   7.630  2.4258 -0.2989  1.2953
  127OSM   C12F13656   1.617   2.174   7.833  0.0332 -0.7967  0.5924
  127OSM   H12F13657   1.636   2.283   7.822 -0.9165 -0.6931 -0.1998
  127OSM   H12G13658   1.713   2.119   7.827  0.3499 -0.0705 -3.1486
  127OSM   C13F13659   1.541   2.160   7.961 -0.2939  0.2090 -0.2853
  127OSM   H13F13660   1.510   2.056   7.986 -0.4457  0.1581 -0.6725
  127OSM   H13G13661   1.450   2.223   7.955 -0.8462 -0.6809 -1.8022
  127OSM   C14F13662   1.621   2.207   8.093 -0.2091 -0.6536  0.3021
  127OSM   H14F13663   1.664   2.303   8.060  1.1492  0.2153  4.0858
  127OSM   H14G13664   1.693   2.128   8.126 -0.1141  0.5582  3.2823
  127OSM   C15F13665   1.531   2.251   8.213 -0.3921  0.7130 -0.0361
  127OSM   H15F13666   1.464   2.330   8.173 -0.8972  0.2367 -0.1493
  127OSM   H15G13667   1.599   2.292   8.290 -1.1617 -0.6770  1.4544
  127OSM   C16F13668   1.435   2.145   8.264 -0.1601  0.1491 -0.2521
  127OSM   H16F13669   1.485   2.057   8.311 -3.0650 -0.1391  2.7224
  127OSM   H16G13670   1.374   2.115   8.176  0.4504  1.8378 -1.2792
  127OSM   C17F13671   1.327   2.190   8.373 -0.3731  0.0741  0.2661
  127OSM   H17F13672   1.264   2.267   8.323  0.3818  2.3485  2.5795
  127OSM   H17G13673   1.376   2.249   8.454 -1.3979  1.5206 -0.1165
  127OSM   C18F13674   1.244   2.083   8.438 -0.0499 -0.0654  0.5332
  127OSM   H18F13675   1.199   2.026   8.354  4.5559 -0.1741 -2.2256
  127OSM   H18G13676   1.166   2.129   8.502  0.3243  1.4342 -0.0420
  127OSM   H18H13677   1.296   2.015   8.510 -1.6890  2.2271  4.1774
  128OSM      N13678   1.689   5.062   5.707  0.4144  0.2035 -0.4080
  128OSM    C1513679   1.621   5.195   5.718 -0.1469  0.4515 -0.6149
  128OSM   H15A13680   1.522   5.184   5.759  0.5374  2.2999  1.7896
  128OSM   H15B13681   1.614   5.232   5.617  1.6633 -0.4473 -1.1137
  128OSM   H15C13682   1.683   5.260   5.778 -1.6185 -0.1306  1.6377
  128OSM    C1413683   1.608   4.965   5.631  0.3573 -0.1246  0.0774
  128OSM   H14A13684   1.661   4.879   5.594 -0.9025 -1.1468  0.5896
  128OSM   H14B13685   1.564   5.015   5.546 -0.8475 -1.9031 -0.3903
  128OSM   H14C13686   1.530   4.926   5.694 -0.3999  0.6090 -0.3750
  128OSM    C1313687   1.819   5.072   5.644  0.1665 -0.1216 -0.2800
  128OSM   H13A13688   1.821   5.134   5.555 -0.0959  0.5775  0.1963
  128OSM   H13B13689   1.860   4.978   5.612  1.8924  0.9591 -1.4170
  128OSM   H13C13690   1.886   5.127   5.709  0.5182  0.9624 -1.5142
  128OSM    C1213691   1.710   5.013   5.848  0.1403  0.1237  0.7309
  128OSM   H12A13692   1.765   5.092   5.897  0.4404  0.0500  0.5169
  128OSM   H12B13693   1.767   4.922   5.840 -0.3741 -0.2743  1.5118
  128OSM    C1113694   1.590   4.970   5.935 -0.3241 -1.2868 -0.7642
  128OSM   H11A13695   1.614   4.902   6.019 -0.8779  2.2824  2.5220
  128OSM   H11B13696   1.515   4.912   5.876 -0.0342 -1.4269 -1.0004
  128OSM      P13697   1.575   5.202   6.077 -0.1729  0.2701  0.0018
  128OSM    O1313698   1.710   5.237   6.037 -0.7025 -0.3476  0.3505
  128OSM    O1413699   1.477   5.312   6.068 -0.0298  0.2634  0.3021
  128OSM    O1113700   1.588   5.154   6.226  0.2965  0.5781 -0.2766
  128OSM    O1213701   1.520   5.087   5.982  0.5430 -0.1014 -0.2742
  128OSM    C1S13702   1.646   5.034   6.268 -0.5433 -0.1705  0.6130
  128OSM    H1S13703   1.745   5.026   6.217 -0.2678  0.3258  1.0560
  128OSM    H1T13704   1.578   4.951   6.239 -1.5840  0.8081  0.1910
  128OSM     NF13705   1.749   4.902   6.440  0.0043 -0.3052  0.6412
  128OSM    HNF13706   1.711   4.818   6.477  1.1626 -0.5197  1.3865
  128OSM    C2S13707   1.665   5.015   6.419 -0.1989 -0.1097  0.0207
  128OSM    H2S13708   1.717   5.105   6.457 -1.9638  0.0774  2.2486
  128OSM    C3S13709   1.525   4.996   6.495  0.1739 -0.3310 -0.0819
  128OSM    H3S13710   1.481   4.902   6.456 -2.0721  1.0863 -1.2244
  128OSM     O313711   1.432   5.093   6.460  0.4022  0.0726 -0.0500
  128OSM    HO313712   1.467   5.122   6.375  0.9476  0.7783  0.4002
  128OSM    C4S13713   1.553   4.998   6.641 -0.1357 -0.0416 -0.4551
  128OSM    H4S13714   1.548   4.898   6.685 -0.8358  0.5253  0.8014
  128OSM    C5S13715   1.587   5.107   6.717 -0.3553  0.2173 -0.2019
  128OSM    H5S13716   1.590   5.207   6.671  0.1434 -0.8166 -2.5218
  128OSM    C6S13717   1.630   5.092   6.860  0.3560  0.8496 -0.0129
  128OSM    H6S13718   1.586   5.182   6.909  0.2082  1.1947 -0.7681
  128OSM    H6T13719   1.741   5.091   6.872  0.4616 -1.4395 -0.7438
  128OSM    C7S13720   1.569   4.982   6.939 -0.2768 -0.4308 -1.3360
  128OSM    H7S13721   1.617   4.883   6.924  0.3825 -0.2730 -0.3651
  128OSM    H7T13722   1.462   4.980   6.911 -0.4187 -1.2680 -0.7560
  128OSM    C8S13723   1.569   5.015   7.095  0.1546  0.3617  0.2009
  128OSM    H8S13724   1.504   5.101   7.123 -1.3391 -0.9396  0.9168
  128OSM    H8T13725   1.670   5.051   7.122 -0.2180 -0.0460  2.4045
  128OSM    C9S13726   1.533   4.894   7.177  0.3499 -0.2858  0.0327
  128OSM    H9S13727   1.586   4.818   7.117  1.4297  0.1668  0.4000
  128OSM    H9T13728   1.423   4.878   7.172 -0.1478  2.7439 -0.5609
  128OSM   C10S13729   1.587   4.885   7.318  0.4078  0.7397 -0.4497
  128OSM   H10S13730   1.690   4.927   7.329  1.5126 -1.4962 -1.6136
  128OSM   H10T13731   1.587   4.778   7.351  1.2896  0.6883 -0.5882
  128OSM   C11S13732   1.517   4.967   7.428  0.3774  0.3790 -0.4318
  128OSM   H11S13733   1.418   4.926   7.458  0.4811  1.2336  1.2412
  128OSM   H11T13734   1.504   5.075   7.405 -1.7807  0.3631  0.5202
  128OSM   C12S13735   1.611   4.980   7.551 -0.3027 -0.4856 -0.0997
  128OSM   H12S13736   1.708   5.031   7.534  1.5090 -3.1136  1.4736
  128OSM   H12T13737   1.645   4.877   7.578 -1.6000 -0.9318 -0.1280
  128OSM   C13S13738   1.544   5.040   7.683 -0.9784  1.3373  0.4043
  128OSM   H13S13739   1.453   4.981   7.709 -0.5666  1.1000  1.3582
  128OSM   H13T13740   1.524   5.149   7.676  2.1217  1.9917  0.3393
  128OSM   C14S13741   1.634   5.021   7.802  0.2909  0.9017  0.0352
  128OSM   H14S13742   1.731   5.072   7.781  0.1242  1.7188  1.1450
  128OSM   H14T13743   1.654   4.913   7.821  0.0033  0.7386 -0.5782
  128OSM   C15S13744   1.585   5.092   7.928  0.1140 -0.0524 -0.2483
  128OSM   H15S13745   1.502   5.028   7.964 -0.4254  0.2280 -0.9694
  128OSM   H15T13746   1.542   5.189   7.895 -0.8360  0.5301  2.4201
  128OSM   C16S13747   1.700   5.088   8.027 -0.0561 -0.7668  0.1208
  128OSM   H16S13748   1.683   5.151   8.117  0.2094  0.5583 -0.7309
  128OSM   H16T13749   1.783   5.143   7.978  1.5391 -2.0236  1.3197
  128OSM   C17S13750   1.754   4.956   8.072 -0.3233  0.3021  0.2807
  128OSM   H17S13751   1.781   4.895   7.983 -0.8805 -2.1761  1.7165
  128OSM   H17T13752   1.680   4.899   8.132  0.5146 -1.5254 -0.3284
  128OSM   C18S13753   1.883   4.984   8.165 -0.2113 -0.6326 -0.0425
  128OSM   H18S13754   1.936   5.079   8.142  0.3695 -0.4420  1.8976
  128OSM   H18T13755   1.952   4.898   8.156  2.1210  1.1529  0.0542
  128OSM   H18U13756   1.841   4.998   8.268 -2.2603  2.4173 -1.1362
  128OSM    C1F13757   1.880   4.909   6.416  0.5358  0.3433  0.3722
  128OSM     OF13758   1.925   5.003   6.350 -0.1696 -0.2793 -0.3579
  128OSM    C2F13759   1.956   4.792   6.466  0.2594 -0.0671 -0.0003
  128OSM    H2F13760   1.996   4.735   6.379 -2.7931  0.5319 -1.9309
  128OSM    H2G13761   1.872   4.729   6.502  1.4905 -0.5029  2.3087
  128OSM    C3F13762   2.055   4.813   6.584  0.5867  0.3214  0.4877
  128OSM    H3F13763   2.132   4.888   6.554  0.4369  0.9213  1.5348
  128OSM    H3G13764   2.100   4.714   6.608 -0.8682 -0.2317  1.0414
  128OSM    C4F13765   1.978   4.873   6.708 -0.0082 -0.3836 -0.0012
  128OSM    H4F13766   1.893   4.806   6.729 -0.0820  0.5021  3.2097
  128OSM    H4G13767   1.960   4.981   6.686 -0.7225 -0.5145 -0.0568
  128OSM    C5F13768   2.048   4.855   6.847 -0.2704  0.0630  0.8195
  128OSM    H5F13769   2.157   4.867   6.834 -0.3373  3.2838  2.3477
  128OSM    H5G13770   2.041   4.755   6.896  1.9688 -1.1404 -1.1646
  128OSM    C6F13771   2.004   4.944   6.959  0.1921  0.6590 -0.0591
  128OSM    H6F13772   1.895   4.936   6.977  0.4112 -2.1474  0.4921
  128OSM    H6G13773   2.032   5.049   6.937  1.8233  0.3532  0.4055
  128OSM    C7F13774   2.082   4.904   7.088 -0.4495 -0.3975  0.0020
  128OSM    H7F13775   2.182   4.862   7.062 -0.8040 -0.6430 -1.0062
  128OSM    H7G13776   2.041   4.824   7.153  0.0790  1.6692  3.1332
  128OSM    C8F13777   2.113   5.022   7.180  0.1474 -0.2479  0.8581
  128OSM    H8F13778   2.160   5.097   7.113 -0.2592  0.2958  1.1643
  128OSM    H8G13779   2.189   5.001   7.258  1.2797 -0.9368 -0.3959
  128OSM    C9F13780   1.993   5.081   7.238 -0.0586  0.5412  0.2941
  128OSM    H9F13781   1.912   5.088   7.164  0.4709  2.7541 -0.1435
  128OSM   C10F13782   1.960   5.113   7.364  0.3148  0.2913  0.2493
  128OSM   H10F13783   1.867   5.170   7.374  0.7869  1.2549 -0.6057
  128OSM   C11F13784   2.052   5.089   7.486  0.0687  0.1046 -0.5115
  128OSM   H11F13785   2.088   5.177   7.543  0.3651  1.1429 -2.2223
  128OSM   H11G13786   2.146   5.036   7.462  1.3183  0.6583  2.7017
  128OSM   C12F13787   1.993   5.002   7.597  0.3974  0.0947 -1.0255
  128OSM   H12F13788   1.938   4.916   7.553  0.2441  0.2477 -1.1356
  128OSM   H12G13789   1.929   5.065   7.663  1.0586  0.6443 -0.8999
  128OSM   C13F13790   2.110   4.953   7.687 -0.1061 -0.1921  0.1380
  128OSM   H13F13791   2.195   4.908   7.632 -1.1543 -0.9973 -0.8990
  128OSM   H13G13792   2.069   4.870   7.750  0.8892 -0.2855  0.6816
  128OSM   C14F13793   2.157   5.059   7.785 -0.6840  0.0567 -0.4266
  128OSM   H14F13794   2.068   5.108   7.831 -0.7096 -1.0649  0.8037
  128OSM   H14G13795   2.222   5.139   7.744 -0.2814 -0.8312 -1.5861
  128OSM   C15F13796   2.233   5.001   7.900 -0.9312 -0.0143 -0.1073
  128OSM   H15F13797   2.164   4.942   7.964  0.3859 -2.8162 -1.1282
  128OSM   H15G13798   2.263   5.093   7.955  0.6874 -0.8777  0.4990
  128OSM   C16F13799   2.353   4.909   7.863  0.9947  0.4805  0.6826
  128OSM   H16F13800   2.428   4.968   7.806  0.3608  0.3304 -0.3439
  128OSM   H16G13801   2.318   4.829   7.794  0.7187  0.2324  1.1061
  128OSM   C17F13802   2.427   4.836   7.979  0.0420 -0.5647 -0.0375
  128OSM   H17F13803   2.462   4.910   8.054  0.6303 -2.1398  1.3133
  128OSM   H17G13804   2.516   4.786   7.934  1.4906 -1.3433  3.3837
  128OSM   C18F13805   2.342   4.735   8.050 -0.0083  0.0867 -0.0871
  128OSM   H18F13806   2.386   4.704   8.147  0.7734  0.6512 -0.2469
  128OSM   H18G13807   2.337   4.648   7.981  1.2441 -1.6494  1.8726
  128OSM   H18H13808   2.240   4.774   8.068  0.2827  1.2255 -0.7905
  129OSM      N13809   0.055   2.050   5.985 -1.1789 -0.5444  0.2039
  129OSM    C1513810  -0.025   2.171   5.996 -0.3780 -0.1081 -0.1870
  129OSM   H15A13811  -0.052   2.200   5.896 -0.0940  0.3298 -0.1416
  129OSM   H15B13812   0.037   2.235   6.058 -1.9212 -0.5743  1.9838
  129OSM   H15C13813  -0.109   2.160   6.063 -0.1066 -0.6766  0.0685
  129OSM    C1413814  -0.033   1.951   5.919  0.1474  0.3522 -0.5901
  129OSM   H14A13815  -0.114   1.926   5.985  0.9733 -1.4919 -0.2228
  129OSM   H14B13816   0.016   1.858   5.894  0.7773  0.2790  0.8299
  129OSM   H14C13817  -0.070   1.995   5.827  2.2274 -1.0457 -2.1838
  129OSM    C1313818   0.170   2.074   5.887  0.4628  0.0380  0.1690
  129OSM   H13A13819   0.134   2.095   5.788  1.9283 -0.0687 -0.4021
  129OSM   H13B13820   0.235   1.988   5.893 -0.6878 -0.8092  1.2502
  129OSM   H13C13821   0.215   2.168   5.914 -0.1428  0.3341  0.1683
  129OSM    C1213822   0.110   2.006   6.115 -0.0079 -0.3403 -0.2170
  129OSM   H12A13823   0.029   2.009   6.187  0.6838  0.7855  0.5510
  129OSM   H12B13824   0.171   2.081   6.161  0.5867  0.0352 -1.5610
  129OSM    C1113825   0.204   1.885   6.134  1.0949 -0.1854  0.5657
  129OSM   H11A13826   0.155   1.793   6.095 -0.4776 -0.2378  2.5092
  129OSM   H11B13827   0.201   1.874   6.245  1.1114  0.3698  0.6235
  129OSM      P13828   0.435   2.010   6.141 -0.1059  0.0223 -0.2175
  129OSM    O1313829   0.572   1.992   6.089 -0.0627 -0.0009 -0.3121
  129OSM    O1413830   0.381   2.146   6.134 -0.3445 -1.1527  0.1043
  129OSM    O1113831   0.445   1.959   6.290  0.2866 -0.2996 -0.4322
  129OSM    O1213832   0.334   1.906   6.081 -0.7120  0.6501 -0.0981
  129OSM    C1S13833   0.517   2.045   6.382  0.5377 -0.0210  0.6856
  129OSM    H1S13834   0.466   2.144   6.379  0.8710  0.1627  1.0547
  129OSM    H1T13835   0.620   2.058   6.343 -0.4510  0.5649 -1.9369
  129OSM     NF13836   0.542   2.083   6.629  0.0386  1.0965  0.6270
  129OSM    HNF13837   0.634   2.110   6.658  0.4324  0.9666 -0.4628
  129OSM    C2S13838   0.524   1.985   6.525 -0.1613 -0.3822 -1.1740
  129OSM    H2S13839   0.430   1.931   6.548 -0.0819 -0.2475 -0.5310
  129OSM    C3S13840   0.631   1.870   6.527  0.1044  0.0751 -0.6327
  129OSM    H3S13841   0.732   1.914   6.510  0.4953 -0.6838 -0.3444
  129OSM     O313842   0.599   1.771   6.433  0.5164 -0.6594  0.6913
  129OSM    HO313843   0.529   1.808   6.378  1.2310 -1.1016 -0.5606
  129OSM    C4S13844   0.642   1.795   6.662  0.2259  0.4966 -0.7391
  129OSM    H4S13845   0.541   1.771   6.699  0.5390  0.2072 -0.0570
  129OSM    C5S13846   0.743   1.727   6.711 -0.7324 -0.0734 -0.2187
  129OSM    H5S13847   0.835   1.718   6.651 -0.7976  0.0598 -0.3391
  129OSM    C6S13848   0.746   1.662   6.846  0.3641 -0.0313 -0.3106
  129OSM    H6S13849   0.821   1.717   6.907  0.3730  1.5389 -1.6732
  129OSM    H6T13850   0.772   1.554   6.834 -1.1731 -0.6860  1.7641
  129OSM    C7S13851   0.616   1.666   6.929 -0.4648  1.3118 -0.0565
  129OSM    H7S13852   0.549   1.591   6.884  0.8983 -1.3425  2.0444
  129OSM    H7T13853   0.568   1.766   6.932 -1.5031  0.8344 -0.2709
  129OSM    C8S13854   0.648   1.609   7.069 -0.0514  0.7285 -0.3788
  129OSM    H8S13855   0.729   1.672   7.111  0.0020  2.2101 -2.5851
  129OSM    H8T13856   0.675   1.502   7.064 -0.3820  0.6858 -1.4518
  129OSM    C9S13857   0.531   1.611   7.167  0.4304 -0.0790  0.4949
  129OSM    H9S13858   0.453   1.543   7.127  3.2087 -2.7257 -0.8506
  129OSM    H9T13859   0.483   1.711   7.166  1.1058  0.2474  0.3775
  129OSM   C10S13860   0.554   1.569   7.318  0.8091  0.4857  0.5289
  129OSM   H10S13861   0.570   1.459   7.322  0.0734  0.4061  2.1030
  129OSM   H10T13862   0.460   1.596   7.370  1.7071 -0.0253  2.5131
  129OSM   C11S13863   0.674   1.628   7.382 -0.4378 -0.3472  0.7342
  129OSM   H11S13864   0.667   1.737   7.359 -2.1066 -0.9210 -1.8837
  129OSM   H11T13865   0.772   1.583   7.357 -0.7505 -1.8498  2.0793
  129OSM   C12S13866   0.671   1.598   7.537 -0.6212 -0.1314  0.2003
  129OSM   H12S13867   0.674   1.488   7.555 -3.2832 -0.1854  0.7065
  129OSM   H12T13868   0.574   1.634   7.577  1.0920  4.5720  0.7424
  129OSM   C13S13869   0.778   1.678   7.613 -0.2499  0.8931 -0.6754
  129OSM   H13S13870   0.744   1.784   7.608 -1.6921  0.4160 -1.5322
  129OSM   H13T13871   0.877   1.651   7.570  0.4942 -1.0460  1.9739
  129OSM   C14S13872   0.778   1.634   7.770  0.9365 -0.1110 -0.3834
  129OSM   H14S13873   0.794   1.524   7.774  1.1048 -0.0646  0.4539
  129OSM   H14T13874   0.675   1.655   7.805  0.5429 -0.9370 -1.0173
  129OSM   C15S13875   0.893   1.696   7.848  0.6168 -0.1745 -0.6318
  129OSM   H15S13876   0.888   1.807   7.839  1.0168 -0.1659 -0.7886
  129OSM   H15T13877   0.994   1.660   7.820  1.3902  1.2078  0.2499
  129OSM   C16S13878   0.864   1.681   7.996 -0.5240  0.1395  0.3021
  129OSM   H16S13879   0.869   1.574   8.024 -0.1715  0.2684  0.7595
  129OSM   H16T13880   0.766   1.724   8.027 -0.6503  0.2798 -0.2805
  129OSM   C17S13881   0.977   1.747   8.079 -0.5528  0.1631 -0.1761
  129OSM   H17S13882   0.979   1.857   8.060 -0.7882  0.0376 -0.9602
  129OSM   H17T13883   1.078   1.710   8.052 -0.4858  1.3581 -1.7075
  129OSM   C18S13884   0.955   1.718   8.226  0.0946  0.4830  0.4202
  129OSM   H18S13885   0.969   1.609   8.245 -0.3728 -0.0998 -2.1301
  129OSM   H18T13886   0.858   1.757   8.265 -1.4446 -1.8857 -0.7753
  129OSM   H18U13887   1.033   1.773   8.283  2.0068  0.0612 -1.6544
  129OSM    C1F13888   0.447   2.158   6.682 -0.0961  0.0416 -0.0893
  129OSM     OF13889   0.332   2.134   6.646 -0.3990  0.1465 -0.4365
  129OSM    C2F13890   0.481   2.259   6.790  0.4218 -0.4694 -0.1747
  129OSM    H2F13891   0.529   2.346   6.739 -0.7156  0.8191  0.8643
  129OSM    H2G13892   0.549   2.210   6.862  1.9454 -2.3636 -2.7360
  129OSM    C3F13893   0.361   2.327   6.861 -0.7294  0.1336 -0.2915
  129OSM    H3F13894   0.289   2.249   6.896 -0.1652 -1.1379 -1.7916
  129OSM    H3G13895   0.295   2.374   6.785  1.4042  0.9223 -1.7349
  129OSM    C4F13896   0.388   2.426   6.969  0.0631  0.0024  0.1474
  129OSM    H4F13897   0.299   2.490   6.987 -0.7944 -1.3507  0.8822
  129OSM    H4G13898   0.464   2.500   6.936  1.5331 -2.0464 -1.3080
  129OSM    C5F13899   0.419   2.358   7.101  0.4525  1.1035  0.6466
  129OSM    H5F13900   0.500   2.282   7.097 -1.1550 -0.8198  2.3592
  129OSM    H5G13901   0.320   2.318   7.131  1.5779 -0.9683  1.7906
  129OSM    C6F13902   0.458   2.453   7.212  0.3768 -0.1596  0.1783
  129OSM    H6F13903   0.544   2.516   7.177  0.5123  0.4720  1.5834
  129OSM    H6G13904   0.486   2.388   7.297  1.3623  0.6633  0.5069
  129OSM    C7F13905   0.337   2.537   7.264  0.5760 -0.1185  0.6934
  129OSM    H7F13906   0.252   2.472   7.294  0.1327  0.4096  0.5951
  129OSM    H7G13907   0.299   2.604   7.184  0.7511 -0.9044 -0.0585
  129OSM    C8F13908   0.386   2.644   7.363  0.2910 -0.1143  0.8113
  129OSM    H8F13909   0.303   2.717   7.369 -1.3013 -1.1473 -4.0892
  129OSM    H8G13910   0.475   2.699   7.326  0.3977 -0.4994  0.4804
  129OSM    C9F13911   0.414   2.578   7.492 -0.1116  0.0766 -0.6835
  129OSM    H9F13912   0.490   2.500   7.486 -1.3492 -1.1266 -1.4338
  129OSM   C10F13913   0.370   2.613   7.612  0.2165  0.2868 -0.0821
  129OSM   H10F13914   0.397   2.558   7.703  0.0985 -1.1580 -0.8945
  129OSM   C11F13915   0.271   2.730   7.640  0.1272  0.0954 -0.1702
  129OSM   H11F13916   0.223   2.718   7.739  0.6303 -0.3308  0.0240
  129OSM   H11G13917   0.200   2.740   7.555  0.1602 -0.6544 -0.2909
  129OSM   C12F13918   0.343   2.867   7.638 -0.4505 -0.5574  0.4759
  129OSM   H12F13919   0.273   2.952   7.655 -1.1010 -0.3202 -2.7356
  129OSM   H12G13920   0.377   2.892   7.535 -0.9709  1.0159  0.6508
  129OSM   C13F13921   0.454   2.877   7.747  0.7916 -0.1751 -0.1502
  129OSM   H13F13922   0.512   2.970   7.727  1.2383 -0.2351  0.7794
  129OSM   H13G13923   0.519   2.788   7.744  1.8525  0.5223  1.0900
  129OSM   C14F13924   0.385   2.899   7.889 -0.0896 -0.6197  0.0477
  129OSM   H14F13925   0.378   2.797   7.932  0.8657 -0.3408  0.9162
  129OSM   H14G13926   0.284   2.946   7.886  0.0579 -0.3150 -0.1318
  129OSM   C15F13927   0.485   2.969   7.977 -0.0027  0.4493 -0.1029
  129OSM   H15F13928   0.511   3.070   7.937 -0.2735  0.5157 -0.1114
  129OSM   H15G13929   0.584   2.919   7.979  0.6150  1.3481 -2.8322
  129OSM   C16F13930   0.447   2.991   8.126  0.8131  0.4504 -0.0981
  129OSM   H16F13931   0.542   3.020   8.177  1.1742 -1.3117  0.2922
  129OSM   H16G13932   0.426   2.888   8.161  0.4623  0.0772 -1.3787
  129OSM   C17F13933   0.328   3.085   8.158 -0.5736  0.0676  0.9250
  129OSM   H17F13934   0.238   3.051   8.103 -0.4366 -0.0337  0.7594
  129OSM   H17G13935   0.345   3.184   8.109 -0.6906  0.9701  2.6216
  129OSM   C18F13936   0.305   3.111   8.302  0.5566  0.4952 -0.0409
  129OSM   H18F13937   0.392   3.150   8.358  1.1077  2.0546 -1.8796
  129OSM   H18G13938   0.283   3.013   8.349 -3.0090  0.9047 -0.6147
  129OSM   H18H13939   0.206   3.158   8.315  0.0092 -1.2536  2.9535
  130OSM      N13940   2.411   4.702   5.617  0.2783 -0.4416 -0.5523
  130OSM    C1513941   2.529   4.618   5.570 -0.1675  0.0945  0.4156
  130OSM   H15A13942   2.605   4.606   5.646  0.8895 -0.5517 -0.7097
  130OSM   H15B13943   2.579   4.675   5.493  0.9379 -0.9293  0.3374
  130OSM   H15C13944   2.498   4.520   5.535 -2.4064 -0.4421  3.5037
  130OSM    C1413945   2.459   4.827   5.690  1.1109 -0.2909  0.8796
  130OSM   H14A13946   2.376   4.895   5.706  0.7035 -0.7861  0.9199
  130OSM   H14B13947   2.517   4.881   5.616 -0.7876 -1.7408 -1.8607
  130OSM   H14C13948   2.525   4.810   5.773  3.2135  2.3760 -0.0895
  130OSM    C1313949   2.313   4.743   5.505 -0.5888 -0.5759 -0.3430
  130OSM   H13A13950   2.362   4.795   5.424 -1.6758  0.4214 -0.3936
  130OSM   H13B13951   2.237   4.813   5.539  2.3597  2.4041  0.6716
  130OSM   H13C13952   2.276   4.652   5.460 -0.8588 -1.1125  0.9284
  130OSM    C1213953   2.320   4.617   5.703 -0.0646  0.3999  0.5825
  130OSM   H12A13954   2.285   4.538   5.638  2.2878 -1.5429  1.5230
  130OSM   H12B13955   2.226   4.669   5.715 -1.4337 -1.3787 -1.6794
  130OSM    C1113956   2.389   4.575   5.831  0.2051  0.0507  0.2144
  130OSM   H11A13957   2.488   4.528   5.815 -0.4037 -1.9304  1.9097
  130OSM   H11B13958   2.334   4.490   5.877  0.4228 -0.1143  0.1722
  130OSM      P13959   2.255   4.740   5.982 -0.1067 -0.5030  0.1364
  130OSM    O1313960   2.278   4.876   6.037 -0.2798 -0.0584  0.0273
  130OSM    O1413961   2.146   4.720   5.884 -0.3782 -0.0518 -0.3324
  130OSM    O1113962   2.232   4.632   6.094 -0.0747 -0.1832  0.5293
  130OSM    O1213963   2.398   4.685   5.921 -0.2405  0.0269 -0.2029
  130OSM    C1S13964   2.333   4.588   6.187  0.6438 -0.7767  0.4643
  130OSM    H1S13965   2.404   4.671   6.208  0.0315 -0.2038  0.3056
  130OSM    H1T13966   2.387   4.502   6.143 -1.5313 -2.0912  0.2334
  130OSM     NF13967   2.375   4.542   6.421  0.2635  0.2932  0.4158
  130OSM    HNF13968   2.419   4.457   6.448 -0.7969  0.1263  1.7907
  130OSM    C2S13969   2.267   4.547   6.324 -0.4382  0.5969 -0.4333
  130OSM    H2S13970   2.198   4.625   6.361 -0.1335  0.1424  1.1816
  130OSM    C3S13971   2.195   4.408   6.313  0.1724  0.0515 -0.5424
  130OSM    H3S13972   2.266   4.332   6.274 -3.0015 -2.4973 -1.7910
  130OSM     O313973   2.086   4.407   6.230 -0.1247 -0.3543  0.1987
  130OSM    HO313974   2.077   4.498   6.202 -3.4285  0.1105  2.2897
  130OSM    C4S13975   2.155   4.372   6.452 -0.4505  0.0434  0.9542
  130OSM    H4S13976   2.182   4.273   6.491 -2.2364 -0.7995  0.1693
  130OSM    C5S13977   2.073   4.445   6.528 -0.5859 -0.4143 -0.2718
  130OSM    H5S13978   2.030   4.535   6.482  1.8925  1.1176  0.2182
  130OSM    C6S13979   2.019   4.408   6.667 -0.4313  0.1892 -0.1753
  130OSM    H6S13980   1.922   4.354   6.670 -0.7888  0.7450 -1.1925
  130OSM    H6T13981   1.989   4.506   6.711 -0.7029  0.1566 -0.2910
  130OSM    C7S13982   2.123   4.345   6.754 -0.4721 -0.1615 -0.0355
  130OSM    H7S13983   2.215   4.407   6.752 -0.0149 -0.8433 -0.7205
  130OSM    H7T13984   2.145   4.242   6.720 -0.3631  0.5048 -2.1157
  130OSM    C8S13985   2.069   4.321   6.891 -0.8127  0.7590  0.2460
  130OSM    H8S13986   2.124   4.232   6.926 -0.3876  0.9001 -0.0491
  130OSM    H8T13987   1.961   4.296   6.877 -1.1065  1.2845  1.4739
  130OSM    C9S13988   2.098   4.424   6.999  0.7111 -0.3187  0.6035
  130OSM    H9S13989   2.053   4.523   6.977  0.3593 -0.8837 -1.4189
  130OSM    H9T13990   2.208   4.436   7.008  1.0048 -1.9746 -0.3002
  130OSM   C10S13991   2.053   4.387   7.141 -0.5342  0.0220  0.3341
  130OSM   H10S13992   2.111   4.299   7.179 -1.0266 -0.5974 -0.3296
  130OSM   H10T13993   1.943   4.377   7.131 -0.4873  1.4469 -2.5982
  130OSM   C11S13994   2.091   4.506   7.237  0.0342 -0.1145 -0.8645
  130OSM   H11S13995   2.034   4.593   7.199 -0.6568 -0.2988 -0.2529
  130OSM   H11T13996   2.202   4.517   7.229  0.1438  0.7487  1.2720
  130OSM   C12S13997   2.055   4.479   7.390 -0.1250  0.5265  0.7511
  130OSM   H12S13998   2.109   4.390   7.428 -0.6034  0.2147  0.7179
  130OSM   H12T13999   1.949   4.448   7.374  0.3720  0.3136 -2.9486
  130OSM   C13S14000   2.075   4.601   7.483  0.4710 -0.2785  0.1532
  130OSM   H13S14001   1.995   4.676   7.468  0.0451 -0.7425  0.1090
  130OSM   H13T14002   2.172   4.649   7.458 -0.2092 -0.4174 -3.2601
  130OSM   C14S14003   2.063   4.571   7.628  0.2050  0.0851 -0.5131
  130OSM   H14S14004   2.091   4.665   7.680 -1.4295  1.2230 -1.5962
  130OSM   H14T14005   2.133   4.488   7.655  2.3055  1.4935 -1.4004
  130OSM   C15S14006   1.922   4.530   7.673  0.3331 -0.0321  0.3058
  130OSM   H15S14007   1.877   4.454   7.605 -0.1698 -0.8343  1.4859
  130OSM   H15T14008   1.859   4.621   7.662  0.4179  0.0509  0.4994
  130OSM   C16S14009   1.920   4.495   7.824  0.3358  0.4136 -0.3200
  130OSM   H16S14010   1.814   4.469   7.845  1.1460 -2.0161  1.0954
  130OSM   H16T14011   1.954   4.588   7.875  0.4467  0.3661 -0.3080
  130OSM   C17S14012   2.001   4.366   7.865  0.5147 -0.8670  0.3562
  130OSM   H17S14013   2.109   4.383   7.842 -0.0673 -0.2681 -2.2564
  130OSM   H17T14014   1.970   4.281   7.801  0.3998 -1.1625  0.8023
  130OSM   C18S14015   1.972   4.340   8.013 -0.1880  0.2240  0.8945
  130OSM   H18S14016   1.987   4.438   8.063  0.3957  0.0112  1.1382
  130OSM   H18T14017   2.048   4.273   8.059 -2.2670 -2.5590  0.5712
  130OSM   H18U14018   1.873   4.296   8.036 -0.8472  1.1182 -0.1236
  130OSM    C1F14019   2.425   4.659   6.473  0.0270 -0.9782  0.6861
  130OSM     OF14020   2.385   4.768   6.423  0.1543  0.1857 -0.0870
  130OSM    C2F14021   2.506   4.649   6.599 -0.0786 -0.0618 -0.7254
  130OSM    H2F14022   2.611   4.633   6.566 -0.3608 -0.8152 -1.2853
  130OSM    H2G14023   2.480   4.563   6.664  2.2702 -0.7532 -0.6243
  130OSM    C3F14024   2.491   4.773   6.676  0.4465  0.2937 -0.4411
  130OSM    H3F14025   2.384   4.792   6.698  0.4519  1.9266 -1.6655
  130OSM    H3G14026   2.530   4.862   6.622  1.1361  0.6798  0.6561
  130OSM    C4F14027   2.570   4.773   6.810  0.4511  0.4737  0.2717
  130OSM    H4F14028   2.574   4.874   6.854 -0.9894  1.1565 -1.0797
  130OSM    H4G14029   2.667   4.731   6.776  0.2765 -1.1870  1.6656
  130OSM    C5F14030   2.507   4.680   6.913  0.6605  0.3573 -0.0611
  130OSM    H5F14031   2.527   4.572   6.897 -0.5243 -0.0984  1.2964
  130OSM    H5G14032   2.401   4.692   6.881  0.8157  1.4655 -0.1798
  130OSM    C6F14033   2.530   4.727   7.057  0.2922 -0.2409 -0.1736
  130OSM    H6F14034   2.510   4.836   7.062 -0.2060 -0.3806  2.5220
  130OSM    H6G14035   2.631   4.693   7.090 -0.2550 -0.1142  1.7505
  130OSM    C7F14036   2.439   4.655   7.158  0.3500 -0.3023 -0.8676
  130OSM    H7F14037   2.466   4.548   7.147 -1.4138 -0.7385 -1.1871
  130OSM    H7G14038   2.339   4.667   7.112  1.4225  1.4265 -2.9434
  130OSM    C8F14039   2.451   4.707   7.298 -0.3095  1.0756 -0.9667
  130OSM    H8F14040   2.373   4.653   7.355  1.9514 -2.1559 -0.6467
  130OSM    H8G14041   2.421   4.814   7.309 -0.5328  0.9275 -0.0743
  130OSM    C9F14042   2.588   4.689   7.355  1.3516 -0.3109  0.4827
  130OSM    H9F14043   2.665   4.687   7.276  0.1463 -0.1128 -0.7419
  130OSM   C10F14044   2.620   4.684   7.480  0.5059 -0.1848  0.5834
  130OSM   H10F14045   2.727   4.677   7.504  0.8848  0.1289 -0.9208
  130OSM   C11F14046   2.533   4.681   7.601 -0.2541 -0.1291 -0.0791
  130OSM   H11F14047   2.444   4.747   7.590  0.2709  0.8015  1.0243
  130OSM   H11G14048   2.595   4.709   7.689  1.2011  1.9860 -1.6852
  130OSM   C12F14049   2.481   4.532   7.626 -0.6711  0.1040  0.1827
  130OSM   H12F14050   2.572   4.470   7.616  0.6804  2.1073 -0.6160
  130OSM   H12G14051   2.411   4.499   7.546 -0.2984 -1.1113  0.3437
  130OSM   C13F14052   2.414   4.519   7.758  0.0204 -0.4937  0.0132
  130OSM   H13F14053   2.305   4.542   7.755 -0.0875 -0.5717  1.9637
  130OSM   H13G14054   2.465   4.584   7.832  1.6029 -0.2283 -1.2708
  130OSM   C14F14055   2.427   4.377   7.811 -0.5472  0.2366 -0.0720
  130OSM   H14F14056   2.528   4.331   7.799 -0.8742 -0.2782 -0.9876
  130OSM   H14G14057   2.366   4.317   7.740  1.0981 -1.1950 -0.3498
  130OSM   C15F14058   2.389   4.354   7.953 -0.7388  0.0768  0.4332
  130OSM   H15F14059   2.347   4.251   7.961 -0.1847 -0.2499 -0.6576
  130OSM   H15G14060   2.300   4.421   7.960  0.4230  1.8162 -0.6917
  130OSM   C16F14061   2.506   4.370   8.055 -1.3721 -0.4732 -0.1160
  130OSM   H16F14062   2.558   4.468   8.067  0.4414 -1.5624  1.4556
  130OSM   H16G14063   2.583   4.294   8.030 -1.9037 -1.0625  0.0113
  130OSM   C17F14064   2.461   4.340   8.203 -0.8432 -0.4730  0.0865
  130OSM   H17F14065   2.382   4.415   8.226  1.2905  1.1999  2.5388
  130OSM   H17G14066   2.534   4.364   8.283  2.6728 -2.1602 -2.3264
  130OSM   C18F14067   2.402   4.205   8.221 -0.3625  0.5666 -0.4421
  130OSM   H18F14068   2.364   4.195   8.325  0.9104 -1.1769 -0.1069
  130OSM   H18G14069   2.484   4.132   8.206  0.0704  1.2337 -1.4010
  130OSM   H18H14070   2.311   4.184   8.161 -0.7340 -1.2385  0.6669
  131OSM      N14071   0.618   1.166   5.582 -0.2005  0.4367  0.4705
  131OSM    C1514072   0.539   1.259   5.490  0.4912  0.5716  0.8761
  131OSM   H15A14073   0.533   1.359   5.533  0.6784  1.1559 -0.4074
  131OSM   H15B14074   0.435   1.232   5.480  0.1443  1.9191  0.5540
  131OSM   H15C14075   0.573   1.255   5.387 -0.1580 -0.5730  0.6924
  131OSM    C1414076   0.607   1.033   5.523  0.4406  0.3175  0.1971
  131OSM   H14A14077   0.508   0.993   5.505  1.4512 -1.4804 -2.0219
  131OSM   H14B14078   0.661   0.956   5.577  0.5114 -1.0055 -1.6476
  131OSM   H14C14079   0.642   1.040   5.421 -2.4586  2.3358 -0.7601
  131OSM    C1314080   0.757   1.216   5.589 -0.4005 -0.0455 -0.5432
  131OSM   H13A14081   0.761   1.324   5.600  2.8076  0.0474 -1.5164
  131OSM   H13B14082   0.816   1.187   5.503  1.2481  1.5310 -0.0133
  131OSM   H13C14083   0.801   1.173   5.678  0.2765 -1.7911 -1.6746
  131OSM    C1214084   0.561   1.163   5.721  0.2525  0.6257 -0.0607
  131OSM   H12A14085   0.458   1.135   5.706  0.1839  1.6859 -1.9491
  131OSM   H12B14086   0.569   1.264   5.760  0.8591  0.4541  0.2623
  131OSM    C1114087   0.612   1.069   5.836  0.4857  0.3753 -0.3571
  131OSM   H11A14088   0.579   0.972   5.795  1.9815 -1.3843  2.3152
  131OSM   H11B14089   0.557   1.100   5.927 -0.8871 -0.3930 -0.8939
  131OSM      P14090   0.826   0.978   5.948  0.4242 -0.3147  0.3896
  131OSM    O1314091   0.888   0.875   5.864 -0.3441 -0.1532  0.2160
  131OSM    O1414092   0.920   1.055   6.030  0.4519 -0.0797  0.3560
  131OSM    O1114093   0.719   0.900   6.038 -0.4210  0.3303  0.2112
  131OSM    O1214094   0.748   1.077   5.858  0.0305  0.1322 -0.1499
  131OSM    C1S14095   0.740   0.765   6.083 -0.6180 -0.5006  0.0050
  131OSM    H1S14096   0.846   0.742   6.111 -1.0365 -1.4551  0.8910
  131OSM    H1T14097   0.716   0.686   6.009  0.1740 -2.6902  1.9457
  131OSM     NF14098   0.714   0.635   6.303 -0.3749 -0.2878  0.9952
  131OSM    HNF14099   0.670   0.546   6.306 -2.4178  0.6228 -0.3093
  131OSM    C2S14100   0.657   0.735   6.216 -0.5871  0.3877 -0.0956
  131OSM    H2S14101   0.658   0.834   6.267  0.3231  1.9189 -2.9041
  131OSM    C3S14102   0.509   0.708   6.171 -0.1749  0.3295 -0.4054
  131OSM    H3S14103   0.494   0.617   6.109 -1.0762  0.6784 -0.7207
  131OSM     O314104   0.461   0.809   6.085 -1.1610 -0.2824 -0.1011
  131OSM    HO314105   0.540   0.845   6.044 -1.6601 -1.0129 -1.7515
  131OSM    C4S14106   0.418   0.690   6.297 -0.0795 -0.1806 -1.1148
  131OSM    H4S14107   0.347   0.607   6.298  0.7151 -0.8833 -1.4681
  131OSM    C5S14108   0.409   0.784   6.397 -0.8250  0.8813 -0.3884
  131OSM    H5S14109   0.461   0.881   6.389  2.2932 -0.7667 -2.6620
  131OSM    C6S14110   0.321   0.766   6.518  0.8448 -0.5050 -0.3111
  131OSM    H6S14111   0.269   0.863   6.532  0.4748 -0.5401 -1.3342
  131OSM    H6T14112   0.391   0.761   6.604 -0.7240  0.7404  1.1056
  131OSM    C7S14113   0.231   0.645   6.542 -0.4016  0.1852  1.3760
  131OSM    H7S14114   0.284   0.548   6.534 -2.1071 -0.6815 -0.1184
  131OSM    H7T14115   0.159   0.639   6.457 -1.1511 -0.4501  2.0495
  131OSM    C8S14116   0.150   0.646   6.671 -0.0892 -0.8983 -0.2065
  131OSM    H8S14117   0.116   0.751   6.680  0.0315 -0.8338 -0.4901
  131OSM    H8T14118   0.224   0.618   6.750  1.0808 -0.8471 -1.2499
  131OSM    C9S14119   0.044   0.530   6.668 -0.2458  0.3775 -0.5634
  131OSM    H9S14120   0.105   0.439   6.652 -1.5934 -0.8362  0.9025
  131OSM    H9T14121  -0.017   0.533   6.575 -0.5777 -2.3658 -0.5253
  131OSM   C10S14122  -0.040   0.495   6.786  0.3096 -0.0632 -0.8515
  131OSM   H10S14123   0.020   0.478   6.878  2.9742  0.6554 -2.3650
  131OSM   H10T14124  -0.090   0.402   6.750 -1.0903  0.4436 -0.3208
  131OSM   C11S14125  -0.145   0.604   6.814  0.3080 -0.5738 -0.0428
  131OSM   H11S14126  -0.197   0.620   6.717  2.4893  2.3444 -0.8598
  131OSM   H11T14127  -0.104   0.704   6.837 -0.2661 -0.8678  2.5539
  131OSM   C12S14128  -0.242   0.581   6.932 -0.2629  0.7505 -0.0546
  131OSM   H12S14129  -0.278   0.477   6.917  0.1835  0.7516 -1.2125
  131OSM   H12T14130  -0.328   0.651   6.929  0.1678  1.2731 -0.2413
  131OSM   C13S14131  -0.175   0.590   7.072  0.2801 -0.1097  1.1182
  131OSM   H13S14132  -0.089   0.520   7.082  0.1792 -0.2535  0.9951
  131OSM   H13T14133  -0.244   0.557   7.153 -0.4241  2.0437  1.4487
  131OSM   C14S14134  -0.139   0.733   7.118 -0.3018 -0.1591 -0.6804
  131OSM   H14S14135  -0.226   0.802   7.107  0.6119  1.2413  0.4629
  131OSM   H14T14136  -0.059   0.774   7.053 -0.3102 -1.1640 -1.3522
  131OSM   C15S14137  -0.103   0.744   7.267 -0.1671 -0.0170 -0.0118
  131OSM   H15S14138  -0.012   0.682   7.279 -1.8336 -3.3646 -2.6901
  131OSM   H15T14139  -0.190   0.707   7.325 -0.6087  2.1867  0.8229
  131OSM   C16S14140  -0.075   0.886   7.319 -0.3806 -0.0664  0.3604
  131OSM   H16S14141  -0.157   0.955   7.288  1.4076  2.4427  0.8606
  131OSM   H16T14142   0.018   0.922   7.270 -0.8661  0.0387 -0.4986
  131OSM   C17S14143  -0.073   0.895   7.472 -0.4101  0.1335  0.1807
  131OSM   H17S14144  -0.145   0.819   7.510  1.0339 -1.7815 -0.7432
  131OSM   H17T14145  -0.117   0.991   7.509 -1.8487  0.1289 -1.3995
  131OSM   C18S14146   0.067   0.861   7.538 -0.0599 -0.4997 -0.8295
  131OSM   H18S14147   0.074   0.912   7.636  2.0471 -1.7262 -0.2873
  131OSM   H18T14148   0.155   0.888   7.476  1.8148 -1.1603  1.4240
  131OSM   H18U14149   0.080   0.751   7.536 -2.6284 -0.8703 -0.9878
  131OSM    C1F14150   0.825   0.649   6.367  0.1938  0.6428 -0.1534
  131OSM     OF14151   0.880   0.755   6.360  0.3216  0.1040  0.1467
  131OSM    C2F14152   0.889   0.542   6.442 -0.2433 -0.0420  0.4858
  131OSM    H2F14153   0.919   0.475   6.359  1.7458 -0.5299  1.5323
  131OSM    H2G14154   0.817   0.486   6.504 -0.1249 -0.5563  0.1618
  131OSM    C3F14155   1.012   0.595   6.520  0.0030  0.5678 -0.6151
  131OSM    H3F14156   0.981   0.676   6.589 -2.9494 -1.4473  0.6395
  131OSM    H3G14157   1.075   0.631   6.437  0.7906 -2.2855 -1.3399
  131OSM    C4F14158   1.084   0.486   6.600  0.0200 -1.1704 -0.2743
  131OSM    H4F14159   1.066   0.383   6.562  2.9350 -2.6301  1.8563
  131OSM    H4G14160   1.046   0.486   6.704  0.8501  1.7277  0.1209
  131OSM    C5F14161   1.231   0.523   6.612  0.3485 -0.8861  0.0615
  131OSM    H5F14162   1.232   0.635   6.612  1.3344 -0.7418  3.8773
  131OSM    H5G14163   1.275   0.484   6.518 -0.7560 -0.4948 -0.6331
  131OSM    C6F14164   1.293   0.462   6.740 -0.2195  0.0105 -0.1155
  131OSM    H6F14165   1.316   0.354   6.724 -1.0201 -0.1632 -0.1242
  131OSM    H6G14166   1.223   0.476   6.825  0.3396 -1.1158  0.5515
  131OSM    C7F14167   1.423   0.533   6.782  0.5167  0.0591 -0.3751
  131OSM    H7F14168   1.411   0.642   6.799 -1.1107 -0.4263  2.0759
  131OSM    H7G14169   1.506   0.520   6.709 -0.2813 -1.7593 -1.0210
  131OSM    C8F14170   1.451   0.480   6.920 -0.1283  0.7656  0.3836
  131OSM    H8F14171   1.551   0.515   6.952 -0.8972  2.3660  1.1742
  131OSM    H8G14172   1.465   0.370   6.917  0.9448  0.9041 -0.2128
  131OSM    C9F14173   1.357   0.534   7.022  0.3075  0.0751  0.3579
  131OSM    H9F14174   1.372   0.640   7.051  3.4049 -0.5416  1.3747
  131OSM   C10F14175   1.263   0.462   7.096 -0.0881 -0.1372 -0.0990
  131OSM   H10F14176   1.207   0.517   7.174  0.0616  0.4945 -0.4367
  131OSM   C11F14177   1.235   0.315   7.084  0.1469  0.3428  0.3313
  131OSM   H11F14178   1.315   0.252   7.040 -1.2452 -1.6166  0.5009
  131OSM   H11G14179   1.153   0.303   7.010  0.2346 -0.8638  0.4213
  131OSM   C12F14180   1.216   0.254   7.224  0.0208  0.2905  0.0546
  131OSM   H12F14181   1.304   0.276   7.288  1.3469  3.2594 -2.5334
  131OSM   H12G14182   1.209   0.143   7.214 -1.8046  0.4465 -0.6100
  131OSM   C13F14183   1.094   0.302   7.306 -0.2233  0.0602  0.5497
  131OSM   H13F14184   1.009   0.340   7.245 -0.6267 -0.6364  0.6615
  131OSM   H13G14185   1.132   0.394   7.355 -1.5459  0.8885  0.0774
  131OSM   C14F14186   1.049   0.211   7.419  0.7932  0.4240 -0.4581
  131OSM   H14F14187   0.993   0.126   7.376 -1.3572  0.8350  1.2966
  131OSM   H14G14188   0.978   0.268   7.483  0.9453  1.6703 -1.3604
  131OSM   C15F14189   1.165   0.174   7.514  0.1996  0.2757  0.1162
  131OSM   H15F14190   1.245   0.114   7.466  0.3597  0.9961 -0.5411
  131OSM   H15G14191   1.121   0.100   7.584  0.7207 -0.8098 -0.6917
  131OSM   C16F14192   1.220   0.299   7.586 -0.6026  0.5461  0.8715
  131OSM   H16F14193   1.128   0.341   7.632 -1.6061 -1.5091  0.8677
  131OSM   H16G14194   1.260   0.370   7.511  0.6805 -0.6530  0.3810
  131OSM   C17F14195   1.340   0.261   7.683  0.2234 -0.1414 -0.3249
  131OSM   H17F14196   1.350   0.346   7.754  1.9888 -0.4337 -0.1623
  131OSM   H17G14197   1.436   0.232   7.635  0.4381 -2.4876  1.3354
  131OSM   C18F14198   1.317   0.132   7.769 -0.0404 -0.7723  0.1270
  131OSM   H18F14199   1.215   0.148   7.809 -0.3750 -0.1698 -0.9195
  131OSM   H18G14200   1.400   0.106   7.838  0.0707 -1.8387 -0.3953
  131OSM   H18H14201   1.310   0.045   7.701  0.9371  0.5833 -1.8247
  132OSM      N14202   4.625   0.958   6.154  0.3984 -0.5202 -0.2081
  132OSM    C1514203   4.656   0.815   6.168  0.8027 -0.1501 -0.6048
  132OSM   H15A14204   4.598   0.768   6.246  1.6141  0.4216  0.3650
  132OSM   H15B14205   4.758   0.787   6.188  0.5765 -0.6031 -0.0509
  132OSM   H15C14206   4.633   0.766   6.074  2.5899 -1.3808 -0.4580
  132OSM    C1414207   4.681   1.022   6.275  0.0086 -1.1532  0.3666
  132OSM   H14A14208   4.624   0.993   6.362 -0.0525 -2.3318 -0.0473
  132OSM   H14B14209   4.672   1.128   6.259 -0.8569 -0.9817  1.7956
  132OSM   H14C14210   4.783   0.995   6.299  0.0033  0.3888  2.3378
  132OSM    C1314211   4.681   1.015   6.030  0.3874 -0.3534 -0.1015
  132OSM   H13A14212   4.651   1.119   6.026 -0.1867 -0.4618  1.1698
  132OSM   H13B14213   4.640   0.978   5.937  0.0493  1.2037 -0.6110
  132OSM   H13C14214   4.789   1.009   6.033  0.3100 -1.9241  3.0155
  132OSM    C1214215   4.476   0.974   6.155  0.1656  0.4590  0.7045
  132OSM   H12A14216   4.434   0.913   6.077  1.7779 -0.8751  0.8442
  132OSM   H12B14217   4.443   1.075   6.131 -1.3078 -0.2614 -0.4906
  132OSM    C1114218   4.399   0.946   6.294 -0.2971 -0.3203  0.3894
  132OSM   H11A14219   4.412   0.838   6.316  1.7903 -1.0535 -3.5067
  132OSM   H11B14220   4.291   0.951   6.268 -0.4909 -0.7708  1.0864
  132OSM      P14221   4.373   1.181   6.397 -0.0051  0.1557 -0.1319
  132OSM    O1314222   4.467   1.274   6.462 -0.2507 -0.3775  0.0960
  132OSM    O1414223   4.315   1.214   6.268 -0.5719  0.1510 -0.0430
  132OSM    O1114224   4.245   1.167   6.495  0.3684 -0.3931  0.7099
  132OSM    O1214225   4.442   1.039   6.399 -0.0712  0.2821  0.1425
  132OSM    C1S14226   4.224   1.054   6.581  0.2325 -0.6345 -0.0926
  132OSM    H1S14227   4.318   1.026   6.634 -0.3847 -1.0203  0.8184
  132OSM    H1T14228   4.202   0.969   6.513 -0.1644  1.3122 -2.5363
  132OSM     NF14229   4.088   0.994   6.778 -0.2546  0.5602  0.3634
  132OSM    HNF14230   4.038   0.909   6.763 -1.0338  1.1157 -0.2558
  132OSM    C2S14231   4.099   1.076   6.668  0.5488  0.0599  0.4929
  132OSM    H2S14232   4.127   1.176   6.709  2.4582  1.4784 -3.7410
  132OSM    C3S14233   3.969   1.092   6.576  0.5076 -0.3755 -0.5034
  132OSM    H3S14234   3.948   0.996   6.525  1.6861 -0.2342 -1.2878
  132OSM     O314235   3.977   1.183   6.465  0.6338  0.2364  0.1178
  132OSM    HO314236   4.070   1.203   6.457  0.2351  2.1017 -0.3318
  132OSM    C4S14237   3.853   1.117   6.670  1.2067  0.0804 -0.2462
  132OSM    H4S14238   3.782   1.037   6.699  1.6029 -0.8264 -1.6888
  132OSM    C5S14239   3.828   1.243   6.716  0.2233 -0.0866 -0.0124
  132OSM    H5S14240   3.893   1.322   6.678  0.6269  0.2566  1.3243
  132OSM    C6S14241   3.705   1.268   6.807 -0.8067 -0.5459 -0.2123
  132OSM    H6S14242   3.622   1.207   6.767 -1.3988  1.1919 -1.8274
  132OSM    H6T14243   3.659   1.368   6.790 -4.8007 -2.3223 -0.9157
  132OSM    C7S14244   3.745   1.248   6.959  0.0276 -0.2728 -0.1496
  132OSM    H7S14245   3.820   1.327   6.978  0.1233  0.5285 -3.2591
  132OSM    H7T14246   3.776   1.141   6.966 -0.4776 -0.5519 -1.6752
  132OSM    C8S14247   3.626   1.274   7.051  0.2608 -0.7401  0.5040
  132OSM    H8S14248   3.542   1.223   6.999  0.2939 -0.6202  0.3317
  132OSM    H8T14249   3.591   1.380   7.051  3.0756  0.3236 -1.8762
  132OSM    C9S14250   3.654   1.220   7.190  0.9786 -0.1771 -0.3113
  132OSM    H9S14251   3.754   1.255   7.221  1.4346 -1.8505  0.2438
  132OSM    H9T14252   3.665   1.110   7.179 -1.2445 -0.4579 -0.2593
  132OSM   C10S14253   3.542   1.252   7.293  0.1479 -0.2275  0.1087
  132OSM   H10S14254   3.446   1.198   7.286  0.4759 -1.3120  2.8267
  132OSM   H10T14255   3.512   1.357   7.272 -1.6917 -1.2141 -2.7190
  132OSM   C11S14256   3.589   1.250   7.438  0.1841  0.5429  0.4308
  132OSM   H11S14257   3.515   1.302   7.503  0.3739  0.9418  0.3296
  132OSM   H11T14258   3.689   1.298   7.448  0.9599 -0.2305 -2.5211
  132OSM   C12S14259   3.592   1.104   7.494  0.6245  0.6023  0.1129
  132OSM   H12S14260   3.656   1.055   7.417 -1.2054  0.3137 -1.2902
  132OSM   H12T14261   3.495   1.053   7.473 -0.4190  2.3767  0.4638
  132OSM   C13S14262   3.652   1.096   7.633 -0.5190 -0.5767 -0.8866
  132OSM   H13S14263   3.743   1.159   7.630 -0.6452 -0.4367 -3.3523
  132OSM   H13T14264   3.676   0.990   7.656 -0.1227  0.0254  1.8442
  132OSM   C14S14265   3.552   1.132   7.746 -0.0873  0.8017 -0.1632
  132OSM   H14S14266   3.452   1.090   7.720 -0.2900  1.4149 -0.4030
  132OSM   H14T14267   3.550   1.243   7.756  0.4135  0.6949  1.3321
  132OSM   C15S14268   3.598   1.078   7.884  0.6753 -0.1205 -0.1560
  132OSM   H15S14269   3.519   1.117   7.951  0.0680  0.1084 -0.9875
  132OSM   H15T14270   3.692   1.123   7.923  0.3708 -0.3861  0.9045
  132OSM   C16S14271   3.600   0.927   7.899 -0.3075  0.2081 -0.9076
  132OSM   H16S14272   3.684   0.890   7.837  0.9427 -1.4723  1.6417
  132OSM   H16T14273   3.507   0.889   7.852  0.0238 -0.3945 -1.0849
  132OSM   C17S14274   3.620   0.903   8.049  0.7357  0.1614 -0.3018
  132OSM   H17S14275   3.602   0.795   8.070  1.3735  0.1695  0.3604
  132OSM   H17T14276   3.547   0.966   8.105  1.8460  1.0672  0.1718
  132OSM   C18S14277   3.757   0.941   8.101  0.3245  0.3826 -0.0560
  132OSM   H18S14278   3.847   0.894   8.056  1.2677 -0.1294  2.1907
  132OSM   H18T14279   3.758   0.900   8.205  0.7977  2.0196  0.6243
  132OSM   H18U14280   3.778   1.050   8.109 -0.3828  0.5957 -0.9717
  132OSM    C1F14281   4.176   1.001   6.879 -0.3835 -0.7191 -0.6186
  132OSM     OF14282   4.269   1.084   6.888  0.2940 -0.4184  0.0353
  132OSM    C2F14283   4.160   0.902   6.993  0.1828 -0.2408 -0.7501
  132OSM    H2F14284   4.059   0.856   6.996  0.0923  0.0318  1.1951
  132OSM    H2G14285   4.175   0.966   7.083  1.0431  0.1697 -1.1656
  132OSM    C3F14286   4.282   0.806   7.001 -0.4767 -0.4907 -0.3406
  132OSM    H3F14287   4.373   0.869   6.987 -2.2660  2.6417  1.0859
  132OSM    H3G14288   4.278   0.733   6.917 -1.7356 -0.0872 -0.6447
  132OSM    C4F14289   4.290   0.723   7.128  0.0266  0.5805  0.3246
  132OSM    H4F14290   4.342   0.629   7.101  0.8493  1.1189 -0.0276
  132OSM    H4G14291   4.189   0.707   7.170 -0.3215  3.3661  0.7336
  132OSM    C5F14292   4.355   0.797   7.239  0.0044 -0.4164  0.2628
  132OSM    H5F14293   4.341   0.907   7.243 -0.3030 -0.4477  0.1018
  132OSM    H5G14294   4.464   0.804   7.220  0.7605 -1.2625  3.5477
  132OSM    C6F14295   4.340   0.733   7.374 -0.4638 -0.0858  0.3379
  132OSM    H6F14296   4.365   0.626   7.355 -1.0327 -0.3335  0.9681
  132OSM    H6G14297   4.235   0.721   7.406 -0.2437  0.5368  1.3331
  132OSM    C7F14298   4.412   0.812   7.490 -0.3444  0.9679  0.3244
  132OSM    H7F14299   4.370   0.915   7.483 -1.4275  0.4614 -1.1005
  132OSM    H7G14300   4.514   0.820   7.445 -0.8653 -0.3385 -1.1777
  132OSM    C8F14301   4.406   0.751   7.625  0.5342 -0.1688 -0.0536
  132OSM    H8F14302   4.467   0.805   7.701 -0.3757 -0.8591  1.2199
  132OSM    H8G14303   4.459   0.654   7.610  4.1683  1.7634 -0.7588
  132OSM    C9F14304   4.267   0.744   7.685 -0.1378  0.3074 -0.1920
  132OSM    H9F14305   4.179   0.733   7.621  0.2199 -1.2726 -0.4440
  132OSM   C10F14306   4.246   0.751   7.818  1.0443  0.2790  0.0412
  132OSM   H10F14307   4.141   0.735   7.848  1.2228 -1.2800 -0.1373
  132OSM   C11F14308   4.352   0.775   7.920  0.0308 -0.7060 -0.4182
  132OSM   H11F14309   4.413   0.866   7.899 -2.0274  0.1244 -3.5988
  132OSM   H11G14310   4.429   0.695   7.914  1.0312 -0.0721  2.3941
  132OSM   C12F14311   4.298   0.780   8.057  0.3976 -0.4568 -0.8355
  132OSM   H12F14312   4.232   0.691   8.066 -1.2618  0.7674 -0.5282
  132OSM   H12G14313   4.233   0.868   8.074 -0.0498 -0.9265 -0.0134
  132OSM   C13F14314   4.406   0.781   8.166 -0.1841 -0.4989 -0.4832
  132OSM   H13F14315   4.360   0.811   8.263  1.5537 -0.4485  0.3655
  132OSM   H13G14316   4.482   0.859   8.142 -1.6507  1.4621  0.8653
  132OSM   C14F14317   4.462   0.642   8.188 -0.7012  0.6851 -0.0859
  132OSM   H14F14318   4.523   0.629   8.096 -1.3351  1.7070 -0.6667
  132OSM   H14G14319   4.379   0.569   8.191 -0.0686 -0.0984 -0.9497
  132OSM   C15F14320   4.554   0.625   8.317  0.7363 -0.0595  1.2108
  132OSM   H15F14321   4.571   0.515   8.312 -2.7101 -0.6708 -2.8214
  132OSM   H15G14322   4.486   0.646   8.402  0.2970  2.0490  0.4035
  132OSM   C16F14323   4.686   0.707   8.321 -0.6279  0.1863  0.1143
  132OSM   H16F14324   4.666   0.817   8.317  0.3482  0.3399 -1.0883
  132OSM   H16G14325   4.747   0.669   8.236  1.8460 -1.0736  2.3333
  132OSM   C17F14326   4.770   0.678   8.441  0.1108  0.2112  0.1574
  132OSM   H17F14327   4.807   0.576   8.419 -2.5725 -0.1021 -3.9528
  132OSM   H17G14328   4.714   0.666   8.536  0.1546 -2.1773 -0.0592
  132OSM   C18F14329   4.897   0.768   8.454  0.3004 -0.1946 -0.2769
  132OSM   H18F14330   4.985   0.710   8.489 -0.5577 -0.8979  0.7801
  132OSM   H18G14331   4.876   0.851   8.525 -1.5658  0.1142 -1.1225
  132OSM   H18H14332   4.930   0.819   8.361  0.5884  0.3038  0.0977
  133OSM      N14333   4.008   1.494   6.149 -0.0791  0.1763  0.5636
  133OSM    C1514334   4.056   1.479   6.008  0.2660 -0.1713 -0.4413
  133OSM   H15A14335   4.110   1.387   5.993  0.9814 -0.2940  2.3294
  133OSM   H15B14336   4.118   1.563   5.982  1.3938  0.2544  3.1168
  133OSM   H15C14337   3.972   1.474   5.941  1.7974 -1.4313 -2.3691
  133OSM    C1414338   3.971   1.641   6.169  0.0325 -0.0025  0.1413
  133OSM   H14A14339   3.953   1.669   6.272  1.3576  2.2470 -0.1844
  133OSM   H14B14340   3.889   1.673   6.107  0.8144  2.0618  0.0926
  133OSM   H14C14341   4.060   1.699   6.151  1.5030 -0.9973  3.4248
  133OSM    C1314342   3.896   1.399   6.170 -0.4891  0.7219  0.2138
  133OSM   H13A14343   3.837   1.390   6.081  0.5190 -1.2602 -0.3128
  133OSM   H13B14344   3.837   1.437   6.253 -0.3293 -1.4933  1.4269
  133OSM   H13C14345   3.940   1.302   6.191 -1.6418 -0.3166 -1.9125
  133OSM    C1214346   4.124   1.448   6.243 -0.0393 -0.3489 -0.2247
  133OSM   H12A14347   4.132   1.342   6.224  0.5151 -0.5948  1.2242
  133OSM   H12B14348   4.098   1.472   6.345 -2.0561 -0.4986 -0.6564
  133OSM    C1114349   4.257   1.522   6.207  0.2786 -0.2645 -0.0558
  133OSM   H11A14350   4.282   1.515   6.099  1.8442  0.0613  0.2640
  133OSM   H11B14351   4.344   1.465   6.246 -0.1311 -1.8037 -1.2704
  133OSM      P14352   4.276   1.690   6.392 -0.3199  0.3959  0.0904
  133OSM    O1314353   4.414   1.742   6.410  0.4810  0.7820  0.9711
  133OSM    O1414354   4.166   1.776   6.440 -0.6049  0.2734 -0.1561
  133OSM    O1114355   4.265   1.553   6.462 -0.3336  0.1219  0.6272
  133OSM    O1214356   4.254   1.658   6.241  0.3303 -0.3506  0.1061
  133OSM    C1S14357   4.311   1.527   6.593 -0.4871 -0.2681 -0.0301
  133OSM    H1S14358   4.421   1.543   6.605 -0.4534 -0.9759  0.6899
  133OSM    H1T14359   4.313   1.418   6.616 -0.3193 -0.1687  0.4623
  133OSM     NF14360   4.308   1.572   6.827 -0.3978 -0.0126  0.0098
  133OSM    HNF14361   4.292   1.490   6.882 -0.6561  0.9486  1.4017
  133OSM    C2S14362   4.228   1.592   6.704  0.0856  0.1158 -1.5250
  133OSM    H2S14363   4.216   1.702   6.694  0.6397  0.4270  0.6180
  133OSM    C3S14364   4.086   1.539   6.721  0.1673  0.0320  0.8728
  133OSM    H3S14365   4.089   1.431   6.747  0.3978  0.3959  2.4345
  133OSM     O314366   4.007   1.560   6.602  0.1635 -0.2244 -0.1760
  133OSM    HO314367   4.055   1.604   6.532  0.6453 -0.6229 -0.0999
  133OSM    C4S14368   4.017   1.592   6.847 -0.5150 -0.3425 -0.2165
  133OSM    H4S14369   4.011   1.516   6.926  1.9917 -0.5641 -0.1569
  133OSM    C5S14370   3.968   1.714   6.856  0.6940  0.1690  0.3324
  133OSM    H5S14371   3.954   1.775   6.765  1.6289 -1.2159 -0.7924
  133OSM    C6S14372   3.909   1.769   6.980  0.2920 -0.6451 -0.4532
  133OSM    H6S14373   3.799   1.787   6.979 -0.1617 -2.6452  2.1119
  133OSM    H6T14374   3.950   1.871   6.997 -1.8491  0.3691 -0.9547
  133OSM    C7S14375   3.934   1.700   7.117 -0.1537  0.8495  0.2625
  133OSM    H7S14376   4.037   1.659   7.119 -1.2432 -2.3384  3.4648
  133OSM    H7T14377   3.862   1.616   7.105 -1.9669  2.4088 -0.2606
  133OSM    C8S14378   3.908   1.788   7.234 -0.2055  0.0056 -0.1250
  133OSM    H8S14379   3.803   1.823   7.226 -0.1007  0.2376 -0.5211
  133OSM    H8T14380   3.986   1.868   7.234  0.6519 -0.7463 -2.5308
  133OSM    C9S14381   3.916   1.715   7.371 -0.4879 -0.6742 -0.2915
  133OSM    H9S14382   4.019   1.682   7.395  0.8007  2.9613 -0.2440
  133OSM    H9T14383   3.853   1.624   7.361  0.4193 -1.4697  0.9349
  133OSM   C10S14384   3.877   1.796   7.495 -0.6381  1.0298 -0.2808
  133OSM   H10S14385   3.775   1.838   7.480 -1.2907  0.9825  3.1948
  133OSM   H10T14386   3.953   1.875   7.509  1.0201 -0.7541  1.3739
  133OSM   C11S14387   3.874   1.709   7.621  0.6073  0.1469  0.2791
  133OSM   H11S14388   3.977   1.679   7.650  0.5328  1.3144  1.9394
  133OSM   H11T14389   3.818   1.615   7.604  2.2643 -1.2505  2.0624
  133OSM   C12S14390   3.789   1.755   7.745 -0.1811  0.6606 -0.3434
  133OSM   H12S14391   3.678   1.759   7.739 -0.1635  0.1267 -1.2440
  133OSM   H12T14392   3.829   1.856   7.768  1.9387 -0.4422  1.0806
  133OSM   C13S14393   3.822   1.658   7.859 -0.4443  0.1754 -0.0797
  133OSM   H13S14394   3.931   1.636   7.863 -0.4288 -0.0722 -1.4810
  133OSM   H13T14395   3.761   1.567   7.844  1.3949 -1.0983 -0.1962
  133OSM   C14S14396   3.786   1.719   7.997 -0.0006  0.0062 -0.4803
  133OSM   H14S14397   3.750   1.633   8.058  1.9409 -1.2633 -1.0382
  133OSM   H14T14398   3.696   1.783   7.984  1.0403  1.0728 -3.1074
  133OSM   C15S14399   3.902   1.805   8.052  0.1168 -0.5677 -0.1874
  133OSM   H15S14400   3.930   1.885   7.981  1.8851 -0.4677  0.5687
  133OSM   H15T14401   3.991   1.737   8.056  0.7003  0.2647  1.8890
  133OSM   C16S14402   3.868   1.864   8.191  0.2859  0.6529  0.1005
  133OSM   H16S14403   3.859   1.777   8.260  0.0437 -0.5545 -1.3856
  133OSM   H16T14404   3.770   1.915   8.178 -0.1438 -0.7809 -3.9585
  133OSM   C17S14405   3.971   1.961   8.252 -0.1838  0.1411 -0.1872
  133OSM   H17S14406   3.974   2.033   8.167 -0.7382 -0.9686 -1.1931
  133OSM   H17T14407   4.069   1.909   8.260 -0.0687  0.1766 -1.2032
  133OSM   C18S14408   3.938   2.020   8.388 -0.0870 -0.5678  0.3979
  133OSM   H18S14409   4.027   2.083   8.408  2.7648 -3.3466 -2.4653
  133OSM   H18T14410   3.934   1.937   8.462 -1.0474  0.0505  1.0627
  133OSM   H18U14411   3.842   2.075   8.389 -0.7395 -1.6489 -0.1979
  133OSM    C1F14412   4.425   1.635   6.857  0.3402 -0.2834 -0.6132
  133OSM     OF14413   4.471   1.712   6.775  0.0130 -0.3018  0.0250
  133OSM    C2F14414   4.488   1.616   6.989  0.1271  0.1009 -0.4981
  133OSM    H2F14415   4.599   1.626   6.985  0.2257 -0.5211  0.5327
  133OSM    H2G14416   4.487   1.506   7.002 -2.2534 -0.0365 -1.3300
  133OSM    C3F14417   4.416   1.682   7.110  0.1476  0.1785 -0.4274
  133OSM    H3F14418   4.311   1.646   7.112  0.2746 -0.1789  0.4913
  133OSM    H3G14419   4.407   1.792   7.095 -3.5120  0.1113  0.3596
  133OSM    C4F14420   4.465   1.644   7.252 -0.0332  0.3582 -0.2870
  133OSM    H4F14421   4.569   1.681   7.268 -1.1266  3.5724  0.3253
  133OSM    H4G14422   4.460   1.533   7.256 -0.3653  0.3959  1.7811
  133OSM    C5F14423   4.382   1.710   7.361  0.3763  0.7885  0.2034
  133OSM    H5F14424   4.275   1.717   7.335  0.2501 -1.0072  0.1575
  133OSM    H5G14425   4.418   1.816   7.364 -1.6380  1.5020  0.3749
  133OSM    C6F14426   4.409   1.649   7.500 -0.2644 -0.2366  0.2975
  133OSM    H6F14427   4.517   1.653   7.524  0.1809 -1.9335 -1.2510
  133OSM    H6G14428   4.374   1.545   7.484 -2.6903  0.7143 -1.3025
  133OSM    C7F14429   4.321   1.720   7.604 -0.1945  0.0014 -0.0431
  133OSM    H7F14430   4.218   1.695   7.571  0.2556 -1.9804 -0.0840
  133OSM    H7G14431   4.334   1.830   7.596 -2.2789  0.2469 -0.7534
  133OSM    C8F14432   4.351   1.679   7.752  0.0338  0.2648  0.0946
  133OSM    H8F14433   4.458   1.705   7.769  0.1899 -0.7118  0.6637
  133OSM    H8G14434   4.345   1.568   7.754 -2.1957  0.3395  3.0974
  133OSM    C9F14435   4.270   1.734   7.864  0.6674 -0.3652  0.1547
  133OSM    H9F14436   4.181   1.792   7.836  0.1211 -0.8135  0.9331
  133OSM   C10F14437   4.285   1.716   7.994  0.3715 -0.0235  0.3219
  133OSM   H10F14438   4.214   1.740   8.075  0.6785  1.7602  0.1097
  133OSM   C11F14439   4.399   1.629   8.056  0.0451 -0.9627 -0.2685
  133OSM   H11F14440   4.480   1.702   8.036 -2.1983  1.8689  0.3202
  133OSM   H11G14441   4.411   1.538   7.993  2.7570  0.0986 -1.4541
  133OSM   C12F14442   4.379   1.578   8.204 -0.4298 -0.6754  0.4675
  133OSM   H12F14443   4.462   1.506   8.222  0.6562  0.1221 -1.0961
  133OSM   H12G14444   4.284   1.521   8.202  0.0085 -1.4467  1.1352
  133OSM   C13F14445   4.370   1.705   8.298 -0.5722  0.0488 -0.3088
  133OSM   H13F14446   4.297   1.776   8.255  0.7250 -0.2864 -3.3225
  133OSM   H13G14447   4.471   1.750   8.307 -1.5110  2.5192 -1.3452
  133OSM   C14F14448   4.322   1.658   8.441  0.1460  0.9024 -0.5458
  133OSM   H14F14449   4.398   1.589   8.484 -2.4457 -1.4373  0.5594
  133OSM   H14G14450   4.223   1.608   8.435  0.8719 -0.7057  0.3266
  133OSM   C15F14451   4.297   1.782   8.529  0.8389  0.1220  0.1633
  133OSM   H15F14452   4.243   1.860   8.471  3.5188  1.5397 -0.5564
  133OSM   H15G14453   4.392   1.833   8.554  0.8832 -0.0497  0.3430
  133OSM   C16F14454   4.205   1.762   8.655  0.3208 -0.4603 -0.6935
  133OSM   H16F14455   4.254   1.695   8.728 -0.8303  0.5591  1.0965
  133OSM   H16G14456   4.120   1.697   8.623  0.1165 -1.4207  1.5973
  133OSM   C17F14457   4.168   1.893   8.722 -0.9937  0.4581 -0.6849
  133OSM   H17F14458   4.096   1.864   8.801 -0.0941 -2.2110 -0.7531
  133OSM   H17G14459   4.113   1.954   8.648 -3.1955 -1.4844 -0.7368
  133OSM   C18F14460   4.289   1.970   8.785 -0.1650 -0.2329  0.1941
  133OSM   H18F14461   4.361   1.903   8.836 -1.3840 -0.7556  1.3121
  133OSM   H18G14462   4.243   2.047   8.852 -0.5020  0.4345 -0.7840
  133OSM   H18H14463   4.348   2.025   8.710 -0.3028  0.0282  0.2741
  134OSM      N14464   3.540   4.369   6.114 -0.7055  0.3958 -0.2730
  134OSM    C1514465   3.610   4.379   5.979 -0.0152 -0.3913  0.9166
  134OSM   H15A14466   3.558   4.314   5.910  0.3734 -0.6844  0.9013
  134OSM   H15B14467   3.713   4.348   5.972 -0.1668 -0.7494  0.1511
  134OSM   H15C14468   3.604   4.479   5.938  0.6462 -0.8930 -0.4474
  134OSM    C1414469   3.399   4.423   6.103  0.3563  0.0944  0.1573
  134OSM   H14A14470   3.395   4.527   6.075 -0.7663 -0.5687 -2.3670
  134OSM   H14B14471   3.336   4.404   6.189 -2.2822  0.6190 -1.5272
  134OSM   H14C14472   3.351   4.374   6.020 -0.6591  1.9846 -0.4384
  134OSM    C1314473   3.522   4.221   6.141  0.2962  0.0258 -0.4759
  134OSM   H13A14474   3.457   4.169   6.072 -1.5003  1.0163  0.4003
  134OSM   H13B14475   3.476   4.205   6.237 -0.3550  1.7022 -0.4600
  134OSM   H13C14476   3.617   4.170   6.142  1.3993  1.9624  0.3025
  134OSM    C1214477   3.615   4.443   6.227 -0.4909 -0.1881 -0.6917
  134OSM   H12A14478   3.705   4.390   6.254 -1.7821 -1.5501  1.2843
  134OSM   H12B14479   3.547   4.419   6.308 -2.6566 -1.3137 -2.7234
  134OSM    C1114480   3.635   4.598   6.210  0.1072  0.2835 -0.0166
  134OSM   H11A14481   3.676   4.602   6.107 -0.9844  0.7341 -0.4396
  134OSM   H11B14482   3.717   4.641   6.272  0.2541  0.5294 -0.3787
  134OSM      P14483   3.467   4.711   6.356 -0.4170  0.0262 -0.1200
  134OSM    O1314484   3.558   4.820   6.393 -0.0086 -0.4671 -0.0359
  134OSM    O1414485   3.318   4.741   6.352  0.3494  0.2935  0.0446
  134OSM    O1114486   3.481   4.580   6.439  0.0953 -0.1243 -0.9965
  134OSM    O1214487   3.510   4.667   6.221 -0.2647  0.2449 -0.3768
  134OSM    C1S14488   3.563   4.581   6.555 -0.5635  0.2024  0.2832
  134OSM    H1S14489   3.587   4.682   6.594  0.8636 -0.8170  2.2100
  134OSM    H1T14490   3.657   4.523   6.543 -1.1682 -1.1798  1.7501
  134OSM     NF14491   3.578   4.498   6.794 -0.3673 -0.6831  0.2712
  134OSM    HNF14492   3.638   4.419   6.801  0.9812  0.4593  2.6883
  134OSM    C2S14493   3.493   4.505   6.669  0.3332  0.5129 -0.2692
  134OSM    H2S14494   3.389   4.540   6.684  0.2160  0.4689 -0.9801
  134OSM    C3S14495   3.456   4.357   6.613  0.3563 -0.1823  0.8172
  134OSM    H3S14496   3.546   4.300   6.581  0.5476 -0.2515  1.4637
  134OSM     O314497   3.385   4.356   6.488 -0.3934  0.7251 -0.0006
  134OSM    HO314498   3.423   4.434   6.447  2.9084 -1.2079 -1.0055
  134OSM    C4S14499   3.376   4.271   6.706  0.1578  0.0033 -0.7194
  134OSM    H4S14500   3.438   4.200   6.763  0.6416  0.9416 -0.0642
  134OSM    C5S14501   3.241   4.254   6.721  0.6924 -0.1777  0.0741
  134OSM    H5S14502   3.166   4.318   6.673 -1.1336 -0.0426  2.8435
  134OSM    C6S14503   3.181   4.146   6.803 -0.3985 -1.2287  0.4123
  134OSM    H6S14504   3.164   4.054   6.743  0.6756 -1.0538 -0.1753
  134OSM    H6T14505   3.078   4.177   6.833 -0.2633 -0.5850  0.2272
  134OSM    C7S14506   3.266   4.098   6.924 -0.4051  0.4002  0.0207
  134OSM    H7S14507   3.297   4.185   6.985 -1.8970  1.7030 -0.9746
  134OSM    H7T14508   3.358   4.046   6.891 -0.2902  1.1198 -0.8249
  134OSM    C8S14509   3.188   3.992   7.011  0.4629 -0.8598  0.3939
  134OSM    H8S14510   3.204   3.887   6.977  0.0236 -1.3808  1.6988
  134OSM    H8T14511   3.080   4.015   7.010  0.5210 -0.5463  1.0043
  134OSM    C9S14512   3.243   3.993   7.155 -0.5732 -0.5201 -1.0873
  134OSM    H9S14513   3.194   4.076   7.211  2.0152 -0.5219  1.3862
  134OSM    H9T14514   3.353   4.009   7.147 -0.9907  2.5367 -2.2721
  134OSM   C10S14515   3.214   3.862   7.223 -0.2641  0.5008  0.4164
  134OSM   H10S14516   3.272   3.780   7.176  0.6126  1.0685  0.4801
  134OSM   H10T14517   3.104   3.846   7.215 -0.0410 -1.7251  0.8827
  134OSM   C11S14518   3.255   3.858   7.373  0.3841  0.1106 -0.0684
  134OSM   H11S14519   3.189   3.934   7.421  1.0715 -0.7699  2.4103
  134OSM   H11T14520   3.365   3.872   7.382  0.1470  0.5627  3.0925
  134OSM   C12S14521   3.217   3.718   7.423  0.5533 -0.7974  0.3590
  134OSM   H12S14522   3.240   3.633   7.355 -2.0965 -0.1322 -1.5336
  134OSM   H12T14523   3.106   3.726   7.429  0.4245  2.7837 -2.7707
  134OSM   C13S14524   3.257   3.699   7.565  0.5229 -0.3759 -0.4901
  134OSM   H13S14525   3.367   3.686   7.575  0.9764  2.6916 -0.7084
  134OSM   H13T14526   3.199   3.610   7.598 -1.9250  1.2791 -0.1000
  134OSM   C14S14527   3.229   3.815   7.667 -0.5126 -0.4283 -0.2165
  134OSM   H14S14528   3.122   3.843   7.665 -0.4358 -0.1056  0.0705
  134OSM   H14T14529   3.287   3.904   7.635 -2.2444  0.4298 -1.1174
  134OSM   C15S14530   3.269   3.768   7.807  0.5362  0.1859 -0.1621
  134OSM   H15S14531   3.359   3.702   7.803  1.1425  1.0474 -1.8391
  134OSM   H15T14532   3.190   3.702   7.848  0.9868  0.0772  0.5505
  134OSM   C16S14533   3.291   3.875   7.903 -0.0992 -0.4272  0.8678
  134OSM   H16S14534   3.210   3.949   7.887  0.0682 -0.3609  0.3206
  134OSM   H16T14535   3.387   3.928   7.882 -1.0198  0.3437 -1.7072
  134OSM   C17S14536   3.276   3.830   8.047 -0.5363  0.0091 -0.0910
  134OSM   H17S14537   3.366   3.773   8.078 -0.5598  0.2939  0.5353
  134OSM   H17T14538   3.183   3.769   8.050 -0.4177 -0.2081 -0.8103
  134OSM   C18S14539   3.253   3.930   8.154 -0.8244 -0.2166  0.2965
  134OSM   H18S14540   3.234   3.884   8.253 -0.2948  4.1110  2.6359
  134OSM   H18T14541   3.166   3.986   8.114  1.2377  1.4568 -2.1873
  134OSM   H18U14542   3.348   3.989   8.160  0.6201 -2.0185 -2.4556
  134OSM    C1F14543   3.584   4.608   6.871 -0.2379 -0.2777  0.0412
  134OSM     OF14544   3.518   4.710   6.844  0.9706  0.0571  0.1803
  134OSM    C2F14545   3.676   4.604   6.983 -0.6919  1.0984 -0.0583
  134OSM    H2F14546   3.776   4.585   6.938 -1.7006 -1.7716 -1.3541
  134OSM    H2G14547   3.650   4.513   7.042 -1.2270 -0.0544 -1.9687
  134OSM    C3F14548   3.666   4.736   7.067 -0.0073 -0.2947  0.4105
  134OSM    H3F14549   3.557   4.741   7.087 -0.4014  0.7340 -1.7378
  134OSM    H3G14550   3.688   4.823   7.002 -0.8158  0.0686  0.6118
  134OSM    C4F14551   3.758   4.741   7.188 -0.7907  0.4067 -0.2472
  134OSM    H4F14552   3.779   4.843   7.227  0.9149 -0.4457  1.2185
  134OSM    H4G14553   3.850   4.693   7.148 -2.1890 -2.5572 -0.1574
  134OSM    C5F14554   3.705   4.649   7.297 -0.1487  0.3414  0.1374
  134OSM    H5F14555   3.651   4.560   7.259  0.2929 -0.7859  2.0195
  134OSM    H5G14556   3.623   4.698   7.354 -0.5777  1.1314 -1.1166
  134OSM    C6F14557   3.809   4.614   7.400  0.9979  0.3791  0.3408
  134OSM    H6F14558   3.759   4.562   7.485  0.1683  0.1678 -0.2674
  134OSM    H6G14559   3.853   4.704   7.447 -1.6094  1.3184  1.1430
  134OSM    C7F14560   3.923   4.522   7.345 -0.1085  0.1537 -0.4542
  134OSM    H7F14561   3.992   4.578   7.279  2.5684 -3.3855 -0.9337
  134OSM    H7G14562   3.875   4.442   7.284  0.4761 -0.1752 -0.4941
  134OSM    C8F14563   3.999   4.452   7.459 -0.7363  0.0687 -0.0991
  134OSM    H8F14564   3.930   4.399   7.528  1.0122 -1.6977  0.3692
  134OSM    H8G14565   4.034   4.541   7.516  2.1797 -0.8835 -0.2559
  134OSM    C9F14566   4.120   4.364   7.427 -0.4571 -0.1730 -0.0659
  134OSM    H9F14567   4.092   4.283   7.358 -2.1141 -0.0872  0.4547
  134OSM   C10F14568   4.247   4.388   7.462  0.2654 -0.6465  0.1060
  134OSM   H10F14569   4.317   4.307   7.434 -0.6062 -1.7328  1.0030
  134OSM   C11F14570   4.313   4.499   7.541  0.2011 -0.8902 -0.5226
  134OSM   H11F14571   4.296   4.594   7.486 -2.2780 -1.1916 -0.3865
  134OSM   H11G14572   4.423   4.484   7.543  0.6157  1.6418 -0.6147
  134OSM   C12F14573   4.267   4.512   7.688  0.0904 -0.1303  0.1962
  134OSM   H12F14574   4.156   4.499   7.684  0.1825 -1.4275  1.1530
  134OSM   H12G14575   4.289   4.619   7.708 -0.0055  0.5831 -2.9529
  134OSM   C13F14576   4.330   4.412   7.779  0.5712 -0.4038  0.1351
  134OSM   H13F14577   4.439   4.431   7.779  0.5877 -0.4133 -1.2536
  134OSM   H13G14578   4.308   4.307   7.751 -0.9437  0.5489 -2.5942
  134OSM   C14F14579   4.281   4.429   7.932 -0.2826 -0.4698  0.6362
  134OSM   H14F14580   4.294   4.534   7.966 -2.1062  0.0208 -0.0452
  134OSM   H14G14581   4.344   4.370   8.002  0.4854 -0.6425 -0.1731
  134OSM   C15F14582   4.129   4.390   7.948  0.8536  0.2132  0.6735
  134OSM   H15F14583   4.122   4.285   7.910 -0.7162 -0.0946  1.7199
  134OSM   H15G14584   4.059   4.431   7.872  0.9149 -0.3109  0.3229
  134OSM   C16F14585   4.078   4.398   8.091  0.1187 -0.2945  0.5336
  134OSM   H16F14586   4.112   4.497   8.129 -0.5091 -0.2901  1.0904
  134OSM   H16G14587   4.138   4.327   8.152  0.6844  0.2405  0.6094
  134OSM   C17F14588   3.920   4.394   8.106  0.0961  0.0850  0.1229
  134OSM   H17F14589   3.889   4.376   8.211  1.4772  0.2731  0.5876
  134OSM   H17G14590   3.900   4.293   8.064  1.3583 -0.6832  1.2998
  134OSM   C18F14591   3.836   4.498   8.030 -0.3952 -0.8209 -0.0631
  134OSM   H18F14592   3.730   4.467   8.014 -0.2906 -0.8565 -0.7328
  134OSM   H18G14593   3.880   4.533   7.934 -0.8048 -0.5749 -0.1656
  134OSM   H18H14594   3.837   4.589   8.094  0.8590 -0.7254 -0.1958
  135OSM      N14595   2.634   5.038   6.216  0.4999 -0.1637 -0.7487
  135OSM    C1514596   2.625   4.925   6.313  0.0324 -0.7446 -0.3530
  135OSM   H15A14597   2.627   4.825   6.271  0.2164 -1.4667  1.2990
  135OSM   H15B14598   2.527   4.923   6.358 -0.3281 -1.3918 -1.1312
  135OSM   H15C14599   2.709   4.935   6.380  0.7817 -1.2271 -1.2000
  135OSM    C1414600   2.769   5.041   6.156 -0.3281  0.6461  0.3552
  135OSM   H14A14601   2.780   4.962   6.083  1.6939  1.2469 -0.0283
  135OSM   H14B14602   2.840   5.005   6.229  0.0493  1.3296  0.3347
  135OSM   H14C14603   2.793   5.138   6.115 -0.4117  1.1619  1.4832
  135OSM    C1314604   2.522   5.023   6.120 -0.1972 -0.3554 -0.2205
  135OSM   H13A14605   2.429   5.060   6.162 -0.1064  1.4193 -1.4661
  135OSM   H13B14606   2.515   4.921   6.084 -0.3010 -0.7280  0.8081
  135OSM   H13C14607   2.544   5.088   6.037  0.8623  1.5426  1.4472
  135OSM    C1214608   2.610   5.165   6.297  0.3322 -0.0766  0.2674
  135OSM   H12A14609   2.690   5.161   6.369  0.4007 -0.8846  0.1564
  135OSM   H12B14610   2.512   5.154   6.341 -0.5717  1.3696 -1.2466
  135OSM    C1114611   2.609   5.301   6.232  0.4987 -0.3517  0.3031
  135OSM   H11A14612   2.696   5.310   6.163 -0.5252 -0.0932 -0.9800
  135OSM   H11B14613   2.618   5.386   6.303  1.3117  0.9180 -1.2392
  135OSM      P14614   2.361   5.357   6.215 -0.0571  0.0769  0.5132
  135OSM    O1314615   2.332   5.496   6.172  0.4340  0.4328 -0.2163
  135OSM    O1414616   2.261   5.252   6.180  0.0584  0.6695 -0.4944
  135OSM    O1114617   2.392   5.347   6.365 -0.3834 -0.4220  0.3304
  135OSM    O1214618   2.497   5.315   6.144  0.2706  0.8896  0.7415
  135OSM    C1S14619   2.393   5.468   6.444  0.6067 -0.3735 -0.6215
  135OSM    H1S14620   2.304   5.532   6.425 -0.3520 -0.8163  1.9410
  135OSM    H1T14621   2.486   5.525   6.421 -0.1031  2.2447  2.2916
  135OSM     NF14622   2.378   5.571   6.665 -0.2119  0.5170  0.6226
  135OSM    HNF14623   2.469   5.611   6.679  0.3294  0.2634 -1.6621
  135OSM    C2S14624   2.376   5.442   6.599  0.3407  0.1257 -0.3122
  135OSM    H2S14625   2.276   5.395   6.610  0.2897  0.0202 -1.1610
  135OSM    C3S14626   2.477   5.338   6.646 -0.3875 -0.1555 -0.5455
  135OSM    H3S14627   2.578   5.377   6.619  0.2610 -1.5400 -0.2370
  135OSM     O314628   2.470   5.210   6.584  0.2759  0.7732 -0.4562
  135OSM    HO314629   2.410   5.228   6.511 -0.7148  1.5704  0.5186
  135OSM    C4S14630   2.478   5.329   6.801 -0.8016  0.0039  0.4272
  135OSM    H4S14631   2.566   5.379   6.845  0.3981 -0.2576 -1.5498
  135OSM    C5S14632   2.405   5.250   6.879  0.6629  0.3598  0.0673
  135OSM    H5S14633   2.314   5.199   6.845  0.4096  0.7307  0.1925
  135OSM    C6S14634   2.422   5.250   7.025  0.6929  0.3716  0.3432
  135OSM    H6S14635   2.467   5.154   7.057 -1.6117 -0.0575  2.6375
  135OSM    H6T14636   2.327   5.262   7.082 -0.1208 -0.6955 -0.7387
  135OSM    C7S14637   2.505   5.363   7.084 -0.4725  0.4945  0.5856
  135OSM    H7S14638   2.457   5.461   7.066 -1.7930 -0.3660 -0.7901
  135OSM    H7T14639   2.605   5.370   7.035 -1.7787 -0.7629 -2.5705
  135OSM    C8S14640   2.513   5.354   7.237 -0.6422  0.2348 -0.2362
  135OSM    H8S14641   2.409   5.338   7.272 -0.8893 -0.1541 -1.1163
  135OSM    H8T14642   2.541   5.451   7.283  3.0080 -0.7451 -0.1078
  135OSM    C9S14643   2.607   5.243   7.291  0.3100  0.2592  0.6957
  135OSM    H9S14644   2.709   5.284   7.305  0.7878 -1.3176  2.2408
  135OSM    H9T14645   2.618   5.162   7.215 -0.5862 -1.0901  1.9640
  135OSM   C10S14646   2.567   5.179   7.423 -1.3386  0.1500  0.1291
  135OSM   H10S14647   2.645   5.103   7.446 -0.9768  0.6453  0.5861
  135OSM   H10T14648   2.478   5.113   7.411  0.1272 -1.8816 -0.0429
  135OSM   C11S14649   2.544   5.277   7.538 -0.0006  0.4522 -0.3731
  135OSM   H11S14650   2.454   5.337   7.509 -0.5684  0.0962  0.6200
  135OSM   H11T14651   2.625   5.347   7.567 -0.9018  0.4075  2.5858
  135OSM   C12S14652   2.519   5.204   7.674  0.7266 -0.4771  0.2333
  135OSM   H12S14653   2.530   5.094   7.659  2.0133 -0.6004  1.7404
  135OSM   H12T14654   2.413   5.219   7.700  0.3740  3.1628 -2.4494
  135OSM   C13S14655   2.610   5.245   7.793 -0.1297 -0.0690  0.4686
  135OSM   H13S14656   2.610   5.356   7.794 -0.2014 -0.0356 -0.7806
  135OSM   H13T14657   2.714   5.209   7.780  0.2089  0.0213  2.6410
  135OSM   C14S14658   2.563   5.201   7.929  0.2731 -0.8030  0.7562
  135OSM   H14S14659   2.592   5.094   7.927  0.9366 -0.6369  1.2096
  135OSM   H14T14660   2.454   5.220   7.938  0.4041  2.0742 -1.9641
  135OSM   C15S14661   2.633   5.273   8.049  0.1995 -0.0053  0.1255
  135OSM   H15S14662   2.591   5.375   8.060 -0.9125 -0.3951 -0.3669
  135OSM   H15T14663   2.737   5.284   8.013  0.3870 -0.8235  0.3953
  135OSM   C16S14664   2.634   5.190   8.175  0.0167  0.4860  0.6975
  135OSM   H16S14665   2.658   5.086   8.147 -2.7085 -0.1067  0.3146
  135OSM   H16T14666   2.530   5.188   8.214 -0.3810  0.3730 -0.3293
  135OSM   C17S14667   2.732   5.245   8.280  0.5311 -0.5315 -0.5962
  135OSM   H17S14668   2.718   5.352   8.306  1.5929 -0.3491 -0.7439
  135OSM   H17T14669   2.832   5.227   8.236  0.0800  1.8637 -2.8362
  135OSM   C18S14670   2.703   5.165   8.406  0.2089  0.3367 -0.5647
  135OSM   H18S14671   2.687   5.058   8.382 -0.5978  0.3093  0.0525
  135OSM   H18T14672   2.607   5.200   8.450 -0.7701  0.3825 -2.6478
  135OSM   H18U14673   2.788   5.179   8.477  2.2989  0.7640 -3.0241
  135OSM    C1F14674   2.276   5.657   6.675 -0.2538 -0.3685  0.8853
  135OSM     OF14675   2.168   5.634   6.622 -0.5616 -0.8415 -0.1217
  135OSM    C2F14676   2.298   5.789   6.737  0.1252 -0.6710 -0.3093
  135OSM    H2F14677   2.208   5.847   6.763 -0.5706 -1.0607 -1.7034
  135OSM    H2G14678   2.361   5.853   6.671 -1.0235  1.8394  0.9086
  135OSM    C3F14679   2.383   5.782   6.870  0.4492 -0.4865  0.5837
  135OSM    H3F14680   2.390   5.889   6.898 -3.2121 -0.2379  1.0962
  135OSM    H3G14681   2.488   5.747   6.857  0.7279  0.6670 -0.4339
  135OSM    C4F14682   2.301   5.717   6.979 -0.3188 -0.2666  0.0261
  135OSM    H4F14683   2.302   5.607   6.961 -0.6970 -0.5443  1.5344
  135OSM    H4G14684   2.199   5.759   6.991 -0.4967 -0.9848  1.3173
  135OSM    C5F14685   2.362   5.754   7.120  0.3560 -0.8824  0.1582
  135OSM    H5F14686   2.361   5.862   7.145  2.3636 -0.4755 -1.3017
  135OSM    H5G14687   2.469   5.723   7.116  0.8664  0.5664  1.7960
  135OSM    C6F14688   2.297   5.681   7.240  0.9426 -0.2917  0.2709
  135OSM    H6F14689   2.272   5.579   7.203 -0.0394  0.8240 -2.4285
  135OSM    H6G14690   2.198   5.726   7.262  2.2446  2.2430  1.3249
  135OSM    C7F14691   2.385   5.691   7.368  0.0567  0.1277 -0.2619
  135OSM    H7F14692   2.398   5.793   7.410  0.5546  0.0431 -0.2151
  135OSM    H7G14693   2.489   5.662   7.345  0.7988  0.5227  2.3098
  135OSM    C8F14694   2.335   5.600   7.478 -0.1272 -0.5652 -0.0345
  135OSM    H8F14695   2.419   5.603   7.550 -0.0101  1.8054 -0.1928
  135OSM    H8G14696   2.325   5.495   7.442 -0.8524 -0.7520  0.6659
  135OSM    C9F14697   2.208   5.655   7.542 -0.0322  0.4970 -0.1403
  135OSM    H9F14698   2.131   5.695   7.475  0.6220  0.9706 -0.6223
  135OSM   C10F14699   2.165   5.636   7.665  0.6073  0.2245  0.2136
  135OSM   H10F14700   2.088   5.702   7.706  0.4023  0.1464 -0.0441
  135OSM   C11F14701   2.222   5.555   7.775  0.5899 -0.5595  0.1909
  135OSM   H11F14702   2.255   5.624   7.855  2.3598 -1.8752  0.6460
  135OSM   H11G14703   2.316   5.504   7.747  0.2240 -0.3487 -1.5033
  135OSM   C12F14704   2.127   5.444   7.818  0.4875 -0.8802  0.4905
  135OSM   H12F14705   2.119   5.368   7.738  1.1312 -1.1182  0.6471
  135OSM   H12G14706   2.023   5.480   7.839  0.5725 -0.2994 -0.0466
  135OSM   C13F14707   2.161   5.390   7.955  0.1461 -0.5093 -0.5023
  135OSM   H13F14708   2.229   5.303   7.942 -2.4438 -3.1626  1.9412
  135OSM   H13G14709   2.070   5.341   7.997  1.3293 -1.4366  1.0715
  135OSM   C14F14710   2.207   5.478   8.070  0.0759 -0.2786  0.6226
  135OSM   H14F14711   2.132   5.555   8.097  0.3870  1.0761 -2.0522
  135OSM   H14G14712   2.304   5.523   8.041 -0.1357  0.5576  1.1746
  135OSM   C15F14713   2.258   5.393   8.192  0.5001 -0.7311  0.1164
  135OSM   H15F14714   2.321   5.309   8.155  2.9527 -0.1222  2.5691
  135OSM   H15G14715   2.181   5.338   8.249  1.4437 -3.0459 -0.7087
  135OSM   C16F14716   2.339   5.474   8.289  0.0983  0.9871 -0.0523
  135OSM   H16F14717   2.270   5.561   8.302 -0.4710  0.5050  0.2026
  135OSM   H16G14718   2.427   5.518   8.239 -1.5443  2.7749 -1.5482
  135OSM   C17F14719   2.367   5.413   8.428  0.2991 -0.2568 -0.7595
  135OSM   H17F14720   2.419   5.319   8.399 -2.7786 -1.8744 -1.5158
  135OSM   H17G14721   2.276   5.397   8.490 -0.8303  1.1692 -1.9615
  135OSM   C18F14722   2.446   5.518   8.512  0.0857 -0.3578  0.0863
  135OSM   H18F14723   2.538   5.539   8.454  1.8130 -3.1237  1.5981
  135OSM   H18G14724   2.478   5.467   8.605  0.5623 -1.1096 -0.4882
  135OSM   H18H14725   2.387   5.613   8.521  1.6969  0.5305  2.2243
  136OSM      N14726   1.036   5.869   5.954  0.1151  0.3121 -0.1358
  136OSM    C1514727   1.139   5.878   5.843  0.5774  0.1442  0.4007
  136OSM   H15A14728   1.235   5.855   5.889  0.9623  1.1797  0.1322
  136OSM   H15B14729   1.137   5.978   5.804 -2.1821  0.6588  1.6427
  136OSM   H15C14730   1.118   5.811   5.762 -0.2386  0.8408  0.0324
  136OSM    C1414731   1.049   5.991   6.037 -0.1941 -0.3834 -0.1148
  136OSM   H14A14732   1.148   5.994   6.082 -0.4677  0.1146  0.4742
  136OSM   H14B14733   0.971   6.003   6.110  0.9126  1.1627  0.8750
  136OSM   H14C14734   1.041   6.073   5.967  0.8480  0.1962  0.4101
  136OSM    C1314735   0.900   5.865   5.893  0.3595  0.0662 -0.6848
  136OSM   H13A14736   0.895   5.787   5.818 -0.6266 -1.8802  1.2541
  136OSM   H13B14737   0.874   5.955   5.840 -1.2506 -0.5939 -1.0784
  136OSM   H13C14738   0.832   5.840   5.973  1.1661  0.7862  0.2501
  136OSM    C1214739   1.053   5.736   6.034 -0.2137 -0.2996 -0.0278
  136OSM   H12A14740   1.157   5.728   6.061 -0.4617 -0.7865  0.8275
  136OSM   H12B14741   1.039   5.657   5.961  0.3182  0.8470 -1.4230
  136OSM    C1114742   0.966   5.694   6.158  0.9037  0.2565 -0.5126
  136OSM   H11A14743   0.963   5.782   6.226 -2.1108  1.0344 -1.4754
  136OSM   H11B14744   1.021   5.611   6.207  0.5439 -0.1008 -0.7116
  136OSM      P14745   0.706   5.704   6.174 -0.2304 -0.0840 -0.1172
  136OSM    O1314746   0.658   5.818   6.087 -0.3628  0.1993  0.2494
  136OSM    O1414747   0.613   5.588   6.188  0.8385 -0.1444  0.3659
  136OSM    O1114748   0.741   5.770   6.320  0.2009 -0.5435 -0.1187
  136OSM    O1214749   0.840   5.642   6.124 -0.0521  0.1836  0.1322
  136OSM    C1S14750   0.749   5.907   6.358  0.1427  0.7501 -0.3128
  136OSM    H1S14751   0.670   5.970   6.311  0.3694  1.2229 -0.0690
  136OSM    H1T14752   0.851   5.938   6.327  0.9440 -0.7062  0.7292
  136OSM     NF14753   0.697   6.056   6.548 -0.2040  0.0649  0.3022
  136OSM    HNF14754   0.749   6.107   6.617  0.7973  3.2474 -2.5125
  136OSM    C2S14755   0.739   5.923   6.510 -0.1981  0.0218 -0.2084
  136OSM    H2S14756   0.662   5.856   6.554 -0.8562  1.2818  0.6088
  136OSM    C3S14757   0.873   5.874   6.581 -0.5948  0.2842 -0.6547
  136OSM    H3S14758   0.936   5.961   6.550 -1.0607  0.9018  0.0920
  136OSM     O314759   0.936   5.755   6.534  0.5100 -0.2148  0.1324
  136OSM    HO314760   0.876   5.728   6.464 -1.1075  0.1003  1.3112
  136OSM    C4S14761   0.865   5.870   6.726 -0.2979 -0.0539 -0.4020
  136OSM    H4S14762   0.877   5.963   6.783  0.7326 -0.9664  0.9396
  136OSM    C5S14763   0.823   5.763   6.802  0.3398 -1.0232  0.1572
  136OSM    H5S14764   0.795   5.678   6.739  2.3046 -3.0485  1.8535
  136OSM    C6S14765   0.805   5.756   6.954 -0.6231  0.1177  0.3285
  136OSM    H6S14766   0.904   5.736   7.000 -0.0074 -0.0388 -1.0073
  136OSM    H6T14767   0.749   5.665   6.983 -1.2620  0.7851  1.2529
  136OSM    C7S14768   0.749   5.878   7.016 -0.0536 -0.5177  0.1746
  136OSM    H7S14769   0.645   5.897   6.983  0.8794 -0.3273 -2.9413
  136OSM    H7T14770   0.807   5.968   6.984 -0.7722  0.3889  1.3078
  136OSM    C8S14771   0.758   5.871   7.172 -0.6891 -0.3210  0.4116
  136OSM    H8S14772   0.863   5.850   7.204 -0.0182 -0.7825 -1.9368
  136OSM    H8T14773   0.704   5.779   7.202 -1.1392 -0.5916 -1.1567
  136OSM    C9S14774   0.694   5.987   7.235  0.2604 -0.1957  0.5400
  136OSM    H9S14775   0.588   5.984   7.203 -0.4399 -1.7148  2.7166
  136OSM    H9T14776   0.741   6.077   7.190  1.1905 -1.7504 -1.7897
  136OSM   C10S14777   0.693   5.982   7.390 -0.1235 -0.3554 -0.1876
  136OSM   H10S14778   0.794   5.996   7.434 -1.0373  0.2170  1.8483
  136OSM   H10T14779   0.657   5.880   7.417  0.8146 -1.0319 -1.3986
  136OSM   C11S14780   0.590   6.068   7.468  0.5466  0.7033 -0.0572
  136OSM   H11S14781   0.495   6.046   7.415  0.9262 -0.8782 -0.1274
  136OSM   H11T14782   0.621   6.175   7.460  2.2166  0.2582  0.0679
  136OSM   C12S14783   0.575   6.039   7.614 -0.2918 -0.4478 -0.8582
  136OSM   H12S14784   0.548   5.931   7.612  1.4405 -0.9330 -3.3105
  136OSM   H12T14785   0.495   6.097   7.664  0.5407  1.4212 -1.6094
  136OSM   C13S14786   0.708   6.060   7.690  0.2292  0.0546 -0.3086
  136OSM   H13S14787   0.760   6.158   7.682 -0.7397  0.7858  1.5618
  136OSM   H13T14788   0.774   5.981   7.650 -0.6809  0.0396 -1.8602
  136OSM   C14S14789   0.686   6.040   7.846  0.3159  0.5513  0.1766
  136OSM   H14S14790   0.778   5.989   7.882 -0.3006  0.4851  1.7666
  136OSM   H14T14791   0.604   5.966   7.854 -0.6433  1.6492  0.8493
  136OSM   C15S14792   0.662   6.163   7.929  0.6366 -0.2457  0.0217
  136OSM   H15S14793   0.573   6.208   7.879  2.1076  1.9861 -0.7785
  136OSM   H15T14794   0.749   6.227   7.903  2.0104 -2.7149 -1.9988
  136OSM   C16S14795   0.652   6.139   8.078 -0.5223  0.0928  0.2340
  136OSM   H16S14796   0.749   6.112   8.126 -0.2454 -0.6812 -0.7297
  136OSM   H16T14797   0.586   6.052   8.101  2.5264 -2.0443  1.6570
  136OSM   C17S14798   0.609   6.259   8.163  0.2945  0.0569  0.3019
  136OSM   H17S14799   0.580   6.225   8.266 -1.9654 -1.1811 -0.6537
  136OSM   H17T14800   0.510   6.293   8.126  0.0482 -2.0864 -1.1936
  136OSM   C18S14801   0.705   6.374   8.152  0.0222 -0.5257  0.3543
  136OSM   H18S14802   0.688   6.436   8.062  1.9236  0.0554  0.3456
  136OSM   H18T14803   0.806   6.329   8.141  0.1623 -0.7043  2.0126
  136OSM   H18U14804   0.697   6.446   8.237  0.2524  0.9239 -0.8154
  136OSM    C1F14805   0.590   6.125   6.513 -0.3787 -0.0143  0.1335
  136OSM     OF14806   0.516   6.086   6.424 -0.6354 -0.0697 -0.7707
  136OSM    C2F14807   0.575   6.258   6.578 -0.6880  0.3913  0.5861
  136OSM    H2F14808   0.583   6.342   6.506 -2.9826  0.4624  0.3410
  136OSM    H2G14809   0.652   6.277   6.656 -0.3163  1.6890 -0.0736
  136OSM    C3F14810   0.439   6.276   6.646  0.2803 -0.4086 -0.5047
  136OSM    H3F14811   0.355   6.237   6.585  0.7620 -0.5839 -1.0601
  136OSM    H3G14812   0.414   6.384   6.647 -0.1413 -0.4501 -2.3458
  136OSM    C4F14813   0.442   6.208   6.786  0.6749 -0.0985 -0.0316
  136OSM    H4F14814   0.495   6.110   6.776  0.3505 -0.4516  1.5025
  136OSM    H4G14815   0.338   6.200   6.824  0.5941  0.9038 -0.0146
  136OSM    C5F14816   0.517   6.281   6.898  0.6692  0.3616 -0.5836
  136OSM    H5F14817   0.589   6.356   6.858  1.2568  0.2247  0.1941
  136OSM    H5G14818   0.578   6.202   6.947  0.5111 -0.6461 -1.9692
  136OSM    C6F14819   0.431   6.343   7.015 -0.4653  0.1682  0.6806
  136OSM    H6F14820   0.502   6.379   7.094  1.1503  0.8157 -0.9920
  136OSM    H6G14821   0.359   6.277   7.067 -0.0996 -0.2172  0.7039
  136OSM    C7F14822   0.361   6.472   6.974  0.1140  0.0458 -0.0900
  136OSM    H7F14823   0.279   6.440   6.907  0.9274  0.3056 -1.2545
  136OSM    H7G14824   0.428   6.535   6.911 -1.1152  1.6572  0.1716
  136OSM    C8F14825   0.289   6.549   7.085 -0.5050 -0.3755 -0.2566
  136OSM    H8F14826   0.237   6.471   7.144  0.1615 -0.8036 -0.2199
  136OSM    H8G14827   0.205   6.602   7.035 -1.6067 -1.1230  0.7447
  136OSM    C9F14828   0.392   6.629   7.165 -0.0532  0.3309  0.3638
  136OSM    H9F14829   0.450   6.706   7.111  1.4249 -2.1162 -1.7590
  136OSM   C10F14830   0.424   6.611   7.292  0.2970  0.1190 -0.0735
  136OSM   H10F14831   0.495   6.684   7.335 -0.3419  1.1935 -0.8012
  136OSM   C11F14832   0.365   6.501   7.371  0.4618 -0.4486 -0.0240
  136OSM   H11F14833   0.397   6.403   7.329  0.3126 -0.0596 -1.0587
  136OSM   H11G14834   0.255   6.498   7.355  0.6179 -0.7741 -1.0868
  136OSM   C12F14835   0.395   6.513   7.525 -0.1745 -0.5865  0.4475
  136OSM   H12F14836   0.364   6.612   7.564  0.1046 -0.1637 -0.3761
  136OSM   H12G14837   0.505   6.525   7.525 -0.2427  0.0921  0.0105
  136OSM   C13F14838   0.346   6.398   7.613 -0.2563 -0.1741 -0.3020
  136OSM   H13F14839   0.388   6.307   7.567 -2.1365 -1.1739 -0.1303
  136OSM   H13G14840   0.235   6.394   7.601 -0.5250  1.6854  1.0055
  136OSM   C14F14841   0.395   6.407   7.756 -0.3588  0.0619 -0.0056
  136OSM   H14F14842   0.502   6.438   7.765 -0.0237 -1.2086  0.6046
  136OSM   H14G14843   0.375   6.303   7.791 -2.0412  0.3846  0.0490
  136OSM   C15F14844   0.321   6.504   7.840  0.5321 -0.9171 -0.2368
  136OSM   H15F14845   0.212   6.479   7.836  0.6361 -1.8424  1.4961
  136OSM   H15G14846   0.325   6.606   7.797 -1.7166 -0.7316 -0.1236
  136OSM   C16F14847   0.363   6.508   7.989  0.0000 -0.0405  0.7614
  136OSM   H16F14848   0.458   6.564   8.003 -0.7026  1.0684  1.2197
  136OSM   H16G14849   0.365   6.400   8.015 -1.0475  0.1591  1.7615
  136OSM   C17F14850   0.255   6.569   8.081  0.6169 -0.1514 -0.6627
  136OSM   H17F14851   0.153   6.546   8.044  1.0763  2.1449 -3.8545
  136OSM   H17G14852   0.264   6.680   8.075 -1.9469  0.3765  2.3695
  136OSM   C18F14853   0.257   6.506   8.225 -0.5193 -0.0186 -0.2223
  136OSM   H18F14854   0.155   6.530   8.262 -0.1584  0.9269  0.1790
  136OSM   H18G14855   0.340   6.554   8.281  0.9893 -3.8038  1.1347
  136OSM   H18H14856   0.272   6.396   8.221 -1.0134 -0.0556 -2.0759
  137OSM      N14857   4.496   5.249   5.771 -0.1560  0.3049  0.4163
  137OSM    C1514858   4.462   5.111   5.707  0.2220 -0.0783  0.7556
  137OSM   H15A14859   4.509   5.108   5.609  0.6025  3.3122  0.7083
  137OSM   H15B14860   4.355   5.099   5.699 -0.0715  1.0603  2.4060
  137OSM   H15C14861   4.493   5.030   5.770  0.4320 -1.3001 -0.8494
  137OSM    C1414862   4.643   5.246   5.794  0.1223 -0.8328  0.3948
  137OSM   H14A14863   4.679   5.342   5.830  1.6644 -0.9979 -0.6025
  137OSM   H14B14864   4.701   5.199   5.716 -2.3608  0.2317 -2.2745
  137OSM   H14C14865   4.666   5.191   5.884 -0.9214  2.0893  2.5929
  137OSM    C1314866   4.454   5.345   5.664 -0.8177  0.1328 -0.1480
  137OSM   H13A14867   4.509   5.338   5.572  0.3030  0.3703  0.4870
  137OSM   H13B14868   4.465   5.448   5.696 -1.4740  0.3973 -0.7587
  137OSM   H13C14869   4.350   5.326   5.643 -0.4150 -1.7331 -0.6378
  137OSM    C1214870   4.409   5.274   5.896 -0.2096 -0.4849  0.2579
  137OSM   H12A14871   4.304   5.282   5.869 -0.0493  2.0170  0.1443
  137OSM   H12B14872   4.437   5.373   5.927 -1.8147  0.3638 -0.8305
  137OSM    C1114873   4.425   5.182   6.022  0.5252  0.0152  0.2774
  137OSM   H11A14874   4.409   5.079   5.984  1.4752  0.4162 -1.2868
  137OSM   H11B14875   4.349   5.207   6.099  0.8631  2.3845 -0.0673
  137OSM      P14876   4.597   5.302   6.180  0.5115  0.3084  0.0318
  137OSM    O1314877   4.748   5.314   6.174 -0.1977 -0.3199 -0.3294
  137OSM    O1414878   4.522   5.425   6.168  0.1393 -0.7136 -0.5003
  137OSM    O1114879   4.556   5.237   6.314  0.1580  0.2921  0.5045
  137OSM    O1214880   4.552   5.198   6.071  0.2043  0.2873 -0.8885
  137OSM    C1S14881   4.646   5.145   6.382  0.7125  0.5683 -0.8837
  137OSM    H1S14882   4.753   5.174   6.391  0.3246  1.3943  2.1570
  137OSM    H1T14883   4.655   5.047   6.330 -2.8726 -0.8378  0.8211
  137OSM     NF14884   4.706   5.044   6.597  0.5734  0.4558 -0.5134
  137OSM    HNF14885   4.697   4.947   6.618 -0.0978  0.0994 -2.2120
  137OSM    C2S14886   4.607   5.119   6.529  0.7420 -0.0337 -0.2274
  137OSM    H2S14887   4.587   5.219   6.572  0.1879 -0.6990  1.1349
  137OSM    C3S14888   4.474   5.050   6.538  0.4389  0.0402 -0.7535
  137OSM    H3S14889   4.483   4.948   6.495  1.3235  0.1573 -0.8638
  137OSM     O314890   4.373   5.121   6.465 -0.2726 -0.2087  0.0568
  137OSM    HO314891   4.430   5.187   6.427  1.5864 -1.0660  1.1861
  137OSM    C4S14892   4.431   5.034   6.681  0.0791  0.3160 -0.3863
  137OSM    H4S14893   4.441   5.130   6.732 -2.3016  1.8795 -2.6062
  137OSM    C5S14894   4.393   4.922   6.755 -0.2753  0.9036  0.1487
  137OSM    H5S14895   4.382   4.828   6.699  0.1589  0.3202  1.0238
  137OSM    C6S14896   4.353   4.930   6.897 -0.0047 -0.2601 -0.8979
  137OSM    H6S14897   4.258   4.875   6.914 -1.2194  1.9879  0.0239
  137OSM    H6T14898   4.332   5.033   6.932 -0.2551 -0.6828  0.2630
  137OSM    C7S14899   4.447   4.866   6.996 -0.2393  0.0603  0.0957
  137OSM    H7S14900   4.543   4.921   6.989 -0.7328  0.9231  0.0065
  137OSM    H7T14901   4.459   4.763   6.954  1.7563  1.1033 -2.1249
  137OSM    C8S14902   4.409   4.862   7.145 -0.2016 -0.5055 -0.0014
  137OSM    H8S14903   4.314   4.806   7.162 -1.0251  0.7949 -0.1826
  137OSM    H8T14904   4.386   4.965   7.181 -3.1974 -0.4972 -1.6030
  137OSM    C9S14905   4.529   4.805   7.228 -0.3161  0.7424  0.2757
  137OSM    H9S14906   4.621   4.858   7.194  0.0937 -0.5709 -0.7264
  137OSM    H9T14907   4.542   4.699   7.199 -0.9492  0.9684 -0.8848
  137OSM   C10S14908   4.509   4.802   7.385  0.1987  0.3297 -0.6102
  137OSM   H10S14909   4.405   4.766   7.403 -0.1055  0.5601 -1.8176
  137OSM   H10T14910   4.513   4.909   7.415  2.3812  0.0764  0.1485
  137OSM   C11S14911   4.618   4.723   7.468  0.1144  0.3651  0.4163
  137OSM   H11S14912   4.723   4.750   7.446  1.0415 -0.8119  2.9223
  137OSM   H11T14913   4.618   4.614   7.446  0.0133  0.3977  0.2571
  137OSM   C12S14914   4.602   4.747   7.624 -0.2927  1.1888  0.2428
  137OSM   H12S14915   4.497   4.736   7.661 -0.4301  1.1943 -0.1461
  137OSM   H12T14916   4.633   4.849   7.657 -1.4823  1.5561  0.2907
  137OSM   C13S14917   4.690   4.654   7.711 -0.2589 -0.5678  0.3200
  137OSM   H13S14918   4.799   4.662   7.690  0.2691  2.3838  3.3531
  137OSM   H13T14919   4.654   4.553   7.685  0.3033 -1.2920  2.2120
  137OSM   C14S14920   4.655   4.658   7.861 -0.8785  0.0748 -0.3636
  137OSM   H14S14921   4.550   4.623   7.868 -1.1786  0.6889 -1.5601
  137OSM   H14T14922   4.659   4.766   7.888  1.6732 -0.3482  1.2757
  137OSM   C15S14923   4.745   4.570   7.950  0.2142 -0.0632  0.1080
  137OSM   H15S14924   4.850   4.606   7.956  0.2190  0.1478 -1.0255
  137OSM   H15T14925   4.755   4.461   7.930 -0.1499 -0.0944  0.0890
  137OSM   C16S14926   4.688   4.582   8.091 -0.3178 -0.2838 -0.0486
  137OSM   H16S14927   4.584   4.546   8.100 -0.1983 -0.3118  1.5122
  137OSM   H16T14928   4.684   4.691   8.109 -1.6027  0.0768 -2.2407
  137OSM   C17S14929   4.785   4.513   8.195  0.2463  0.1648 -0.1500
  137OSM   H17S14930   4.884   4.565   8.199 -0.3901  1.3649  1.1930
  137OSM   H17T14931   4.803   4.407   8.169  0.1151  0.5908 -2.1367
  137OSM   C18S14932   4.735   4.496   8.340 -0.5149  0.3392 -0.2858
  137OSM   H18S14933   4.627   4.470   8.349 -0.5871  0.8193  0.2523
  137OSM   H18T14934   4.745   4.598   8.382  1.5599  0.4822 -1.0559
  137OSM   H18U14935   4.801   4.432   8.402  0.2361  0.8426 -0.5534
  137OSM    C1F14936   4.820   5.104   6.629 -0.1242 -0.1635  0.7796
  137OSM     OF14937   4.825   5.229   6.625 -0.2799  0.5084  0.0875
  137OSM    C2F14938   4.942   5.025   6.658 -0.8222  0.2247 -0.7605
  137OSM    H2F14939   5.020   5.036   6.579  0.4160  1.5821  0.5943
  137OSM    H2G14940   4.918   4.916   6.663 -0.8148  0.2713  0.9913
  137OSM    C3F14941   5.005   5.066   6.792 -0.6449  1.1910  0.1575
  137OSM    H3F14942   5.027   5.174   6.805 -2.4998  1.8529 -1.6969
  137OSM    H3G14943   5.092   4.997   6.802 -1.1847  0.2127 -1.6232
  137OSM    C4F14944   4.900   5.044   6.901 -0.1171 -0.0186 -0.0929
  137OSM    H4F14945   4.864   4.942   6.877 -1.6844  0.2884  0.7990
  137OSM    H4G14946   4.814   5.114   6.896  0.7433  0.9882 -2.5306
  137OSM    C5F14947   4.961   5.040   7.041 -0.5185  0.2002 -0.1888
  137OSM    H5F14948   5.013   5.134   7.069 -2.7876  1.8475 -1.2336
  137OSM    H5G14949   5.042   4.964   7.033 -1.1249 -0.4659 -0.0913
  137OSM    C6F14950   4.869   5.008   7.158  0.4535  0.3013 -0.4436
  137OSM    H6F14951   4.929   4.983   7.249  1.8475  3.3529 -0.3968
  137OSM    H6G14952   4.811   4.921   7.122 -0.3815  1.1491 -1.2000
  137OSM    C7F14953   4.765   5.116   7.184 -0.4287 -0.1474  0.6255
  137OSM    H7F14954   4.665   5.067   7.181 -1.0295  0.7254  3.2193
  137OSM    H7G14955   4.770   5.178   7.093  1.6104 -0.9871  0.1100
  137OSM    C8F14956   4.782   5.195   7.315 -0.3473  0.1516 -0.7637
  137OSM    H8F14957   4.718   5.285   7.299 -1.4595  0.3433  3.4149
  137OSM    H8G14958   4.890   5.221   7.323  0.1332 -1.9513  0.3257
  137OSM    C9F14959   4.742   5.126   7.443 -0.0800  0.3903  0.9752
  137OSM    H9F14960   4.632   5.128   7.452 -0.3771 -0.8333 -1.6580
  137OSM   C10F14961   4.831   5.082   7.533 -0.6135 -0.4613  0.4941
  137OSM   H10F14962   4.785   5.039   7.623 -0.6310 -0.9154  0.2704
  137OSM   C11F14963   4.981   5.089   7.532 -0.2030 -0.3283  0.1118
  137OSM   H11F14964   5.014   5.195   7.526 -0.3535 -0.2952 -0.1331
  137OSM   H11G14965   5.012   5.031   7.442 -1.1813 -1.9752  0.7888
  137OSM   C12F14966   5.034   5.042   7.658  0.2894 -0.1769 -0.9890
  137OSM   H12F14967   4.993   5.104   7.741  0.2841 -1.0814 -0.3001
  137OSM   H12G14968   5.143   5.062   7.645 -0.2616  1.8084 -3.1968
  137OSM   C13F14969   4.996   4.901   7.687 -0.1847  0.1607 -0.0584
  137OSM   H13F14970   5.000   4.845   7.591 -1.4829 -0.9455  0.4837
  137OSM   H13G14971   4.896   4.882   7.732  0.0069 -0.4580  0.1263
  137OSM   C14F14972   5.082   4.814   7.784 -0.2246  0.1647  0.3235
  137OSM   H14F14973   5.186   4.805   7.746 -0.6057  0.4052 -0.8286
  137OSM   H14G14974   5.048   4.709   7.797  0.8260 -0.4537 -1.4680
  137OSM   C15F14975   5.083   4.867   7.927  0.6546  0.3134 -0.1892
  137OSM   H15F14976   5.148   4.957   7.935 -0.2712  0.9870 -0.1925
  137OSM   H15G14977   5.132   4.789   7.990 -0.0055 -1.1157 -1.3741
  137OSM   C16F14978   4.947   4.903   7.982 -0.0462  0.5757  0.6093
  137OSM   H16F14979   4.886   4.811   7.981  0.5292  0.1555  2.0881
  137OSM   H16G14980   4.904   4.986   7.922 -0.5386 -1.1406 -1.5356
  137OSM   C17F14981   4.936   4.944   8.128 -0.5412 -0.2335 -0.5832
  137OSM   H17F14982   4.990   4.863   8.181 -2.4917 -1.2687 -0.0752
  137OSM   H17G14983   4.831   4.943   8.166 -0.1974 -0.0054  0.4085
  137OSM   C18F14984   5.001   5.074   8.176 -0.0939  0.3396 -0.4580
  137OSM   H18F14985   4.937   5.164   8.161  1.7726  1.9744  0.8553
  137OSM   H18G14986   5.100   5.090   8.128 -0.0889 -0.0902 -0.5962
  137OSM   H18H14987   5.004   5.057   8.286 -3.7364 -1.0608 -0.4270
  138OSM      N14988   4.440   6.204   5.716 -0.1991 -0.1547  0.2600
  138OSM    C1514989   4.311   6.134   5.698 -0.2489  0.1243  0.6925
  138OSM   H15A14990   4.230   6.188   5.744 -1.4833  0.5317 -1.7798
  138OSM   H15B14991   4.309   6.035   5.739 -2.7245 -0.5439 -0.8320
  138OSM   H15C14992   4.292   6.120   5.592 -1.2500  0.5001  0.8092
  138OSM    C1414993   4.548   6.116   5.656 -0.3769  0.0239  0.0453
  138OSM   H14A14994   4.553   6.031   5.724  0.1276 -0.2620 -0.3461
  138OSM   H14B14995   4.642   6.167   5.651  1.0159 -2.1321  2.0454
  138OSM   H14C14996   4.519   6.085   5.557  0.7121  2.7393 -1.2185
  138OSM    C1314997   4.441   6.336   5.650  0.0200  0.5452  0.5894
  138OSM   H13A14998   4.524   6.400   5.678 -1.7679  2.1835  2.5847
  138OSM   H13B14999   4.350   6.390   5.670  0.1901  0.4876  1.5726
  138OSM   H13C15000   4.446   6.318   5.544 -0.8626 -2.5487  0.9855
  138OSM    C1215001   4.469   6.243   5.864  0.0089 -0.0648  0.0059
  138OSM   H12A15002   4.384   6.302   5.896 -1.2209 -1.2724 -0.8965
  138OSM   H12B15003   4.554   6.308   5.874  0.0206 -0.2024  0.8594
  138OSM    C1115004   4.490   6.122   5.963  0.1186 -0.8088  0.4074
  138OSM   H11A15005   4.405   6.055   5.940  0.9659 -1.8195  0.1311
  138OSM   H11B15006   4.485   6.154   6.070 -0.4734 -1.0130  0.4426
  138OSM      P15007   4.760   6.136   5.984  0.0182  0.0230  0.4871
  138OSM    O1315008   4.870   6.041   5.954  0.6326 -0.1071  0.2409
  138OSM    O1415009   4.775   6.270   5.923  0.4561  0.5126 -0.0151
  138OSM    O1115010   4.741   6.158   6.138  0.6091  0.3822 -0.5938
  138OSM    O1215011   4.614   6.067   5.935 -0.1286 -0.6141 -0.1926
  138OSM    C1S15012   4.737   6.042   6.231 -0.5549  0.4126  0.6412
  138OSM    H1S15013   4.830   5.982   6.222 -0.3646  0.5902  1.3096
  138OSM    H1T15014   4.648   5.980   6.207 -1.9037  1.6521  2.1824
  138OSM     NF15015   4.720   5.973   6.477  0.2160  0.4172 -0.4762
  138OSM    HNF15016   4.644   5.917   6.509  0.5541 -0.9380 -1.9043
  138OSM    C2S15017   4.710   6.088   6.377 -0.1341  0.1469 -0.2160
  138OSM    H2S15018   4.789   6.163   6.403 -0.2821  1.0358 -2.1924
  138OSM    C3S15019   4.571   6.160   6.384 -0.7962 -0.4059  1.0928
  138OSM    H3S15020   4.499   6.085   6.344  2.3715 -2.6054 -0.9987
  138OSM     O315021   4.575   6.278   6.298 -0.5108  0.1088  0.2890
  138OSM    HO315022   4.657   6.278   6.247 -0.8218 -2.5256 -0.3225
  138OSM    C4S15023   4.550   6.199   6.530  0.3121  0.2940 -0.0449
  138OSM    H4S15024   4.509   6.118   6.591 -2.5018  1.3046 -0.4421
  138OSM    C5S15025   4.579   6.316   6.585 -0.1472 -0.6513 -0.0766
  138OSM    H5S15026   4.615   6.400   6.523  1.2456  0.2341  1.8391
  138OSM    C6S15027   4.550   6.331   6.727  0.4785 -0.7111 -0.5201
  138OSM    H6S15028   4.515   6.236   6.772  0.7963 -0.0208  1.2934
  138OSM    H6T15029   4.468   6.406   6.734  1.1145 -0.0538  0.0321
  138OSM    C7S15030   4.671   6.365   6.817 -0.4568 -0.2842  1.0635
  138OSM    H7S15031   4.714   6.461   6.779  1.4913 -1.5429 -0.0844
  138OSM    H7T15032   4.752   6.291   6.801 -0.1019  0.1913  0.6010
  138OSM    C8S15033   4.638   6.365   6.967 -0.3728 -0.3389  0.0197
  138OSM    H8S15034   4.587   6.273   7.002 -1.0607  0.2698  0.6533
  138OSM    H8T15035   4.558   6.439   6.990 -0.2649 -0.5404  1.1009
  138OSM    C9S15036   4.758   6.396   7.059  0.1680  0.0153  0.2422
  138OSM    H9S15037   4.827   6.470   7.013  0.1602  0.9264  1.6271
  138OSM    H9T15038   4.816   6.303   7.077 -0.8299 -0.3694  1.5513
  138OSM   C10S15039   4.719   6.453   7.198  0.1440 -0.1505  0.1650
  138OSM   H10S15040   4.671   6.553   7.181  0.0539  0.0834  1.7155
  138OSM   H10T15041   4.813   6.462   7.255 -0.6785  1.3093  1.3915
  138OSM   C11S15042   4.623   6.366   7.269  0.1610 -0.4106 -0.1764
  138OSM   H11S15043   4.655   6.260   7.276 -0.8184 -0.6733  0.5214
  138OSM   H11T15044   4.529   6.384   7.213 -0.3112 -1.3252  0.2939
  138OSM   C12S15045   4.593   6.409   7.417 -0.1714  0.9425  0.8643
  138OSM   H12S15046   4.584   6.520   7.418  0.7800  1.0477 -0.0066
  138OSM   H12T15047   4.681   6.382   7.479 -0.6428 -0.2263  1.0406
  138OSM   C13S15048   4.470   6.331   7.463  0.3252 -0.4237 -0.4265
  138OSM   H13S15049   4.468   6.228   7.421 -1.1336 -1.2305  1.4844
  138OSM   H13T15050   4.383   6.387   7.422 -0.0459 -0.8247 -0.2006
  138OSM   C14S15051   4.467   6.323   7.618 -0.3172  0.2316 -0.2746
  138OSM   H14S15052   4.464   6.429   7.652  0.3459 -0.9173  3.8500
  138OSM   H14T15053   4.556   6.272   7.662 -1.2900  0.0398  1.5369
  138OSM   C15S15054   4.337   6.268   7.688 -0.6368  0.8591  0.2853
  138OSM   H15S15055   4.318   6.173   7.634  2.8985  0.3063 -0.2326
  138OSM   H15T15056   4.250   6.336   7.673  0.6748  3.0942  2.1067
  138OSM   C16S15057   4.340   6.237   7.837  0.3427 -0.0704 -0.3254
  138OSM   H16S15058   4.386   6.326   7.885  1.6872 -0.6415 -0.5058
  138OSM   H16T15059   4.405   6.147   7.847  1.6412  0.7095 -1.4041
  138OSM   C17S15060   4.207   6.212   7.906 -0.4965 -0.3875 -0.2290
  138OSM   H17S15061   4.171   6.108   7.886 -1.2837 -0.3620  0.9337
  138OSM   H17T15062   4.127   6.271   7.859 -0.2668  0.5086  0.4827
  138OSM   C18S15063   4.210   6.229   8.054 -0.6282  0.2415 -0.3140
  138OSM   H18S15064   4.280   6.156   8.099  0.8114 -0.2081 -3.0786
  138OSM   H18T15065   4.106   6.237   8.094 -0.2767  0.4497  0.5720
  138OSM   H18U15066   4.256   6.324   8.088 -2.5148  0.5257  1.6799
  138OSM    C1F15067   4.839   5.918   6.502  0.1605 -0.1913  0.2783
  138OSM     OF15068   4.939   5.981   6.475 -0.0979 -0.1879 -0.5345
  138OSM    C2F15069   4.850   5.790   6.574 -0.0879 -0.1975  0.1862
  138OSM    H2F15070   4.894   5.716   6.504 -0.4780 -0.0396 -0.2326
  138OSM    H2G15071   4.756   5.735   6.598 -1.1936  1.4073 -0.2709
  138OSM    C3F15072   4.950   5.801   6.690  0.2245 -0.4927  0.7187
  138OSM    H3F15073   5.047   5.825   6.641  0.2686  1.0503  1.4896
  138OSM    H3G15074   4.961   5.700   6.733 -0.1598 -0.8733 -0.0484
  138OSM    C4F15075   4.916   5.906   6.794 -0.9658  0.1561  0.2611
  138OSM    H4F15076   4.927   6.012   6.763 -0.6859 -0.2503 -1.1049
  138OSM    H4G15077   4.998   5.894   6.867  0.0062 -1.1472 -0.9881
  138OSM    C5F15078   4.778   5.885   6.858 -0.2585 -0.2896 -0.0941
  138OSM    H5F15079   4.748   5.778   6.858  0.7327 -0.5846  0.7113
  138OSM    H5G15080   4.703   5.929   6.789 -1.4576  0.0744  1.3708
  138OSM    C6F15081   4.748   5.955   6.994  0.8900  1.2866 -0.1125
  138OSM    H6F15082   4.761   6.065   6.981 -0.9526  1.4503 -0.8374
  138OSM    H6G15083   4.826   5.933   7.071  0.9330 -0.8001 -0.7091
  138OSM    C7F15084   4.610   5.928   7.048  1.0565  0.3740 -0.8756
  138OSM    H7F15085   4.596   5.817   7.049  0.2602  0.4592 -1.7684
  138OSM    H7G15086   4.528   5.947   6.977 -3.2718 -2.6263  2.7591
  138OSM    C8F15087   4.576   6.015   7.172 -0.0816  0.1682  0.5816
  138OSM    H8F15088   4.478   5.976   7.209  1.0038 -0.7605  2.6248
  138OSM    H8G15089   4.570   6.123   7.147 -0.2122  0.1553  0.5514
  138OSM    C9F15090   4.674   5.986   7.283  0.1413 -0.3898  0.5194
  138OSM    H9F15091   4.772   6.032   7.266  0.8711 -0.2951  4.3165
  138OSM   C10F15092   4.654   5.919   7.398  0.6284  0.1409 -0.6873
  138OSM   H10F15093   4.730   5.904   7.476 -2.1722 -0.1071  2.2273
  138OSM   C11F15094   4.521   5.850   7.436 -0.9275 -0.0880  0.3749
  138OSM   H11F15095   4.530   5.762   7.503 -3.4762 -1.0322 -0.4336
  138OSM   H11G15096   4.465   5.815   7.347  0.4593 -2.9180  0.5008
  138OSM   C12F15097   4.426   5.944   7.519 -1.3141 -0.1567  0.6762
  138OSM   H12F15098   4.387   6.024   7.452 -1.5487 -0.8677 -0.0499
  138OSM   H12G15099   4.489   6.006   7.586  0.1812 -0.6984 -0.1955
  138OSM   C13F15100   4.320   5.862   7.578  0.0899 -0.0427  0.9197
  138OSM   H13F15101   4.303   5.762   7.534  1.8301  0.8555 -2.1764
  138OSM   H13G15102   4.233   5.924   7.549  1.5776  0.6984 -2.5574
  138OSM   C14F15103   4.337   5.851   7.732 -0.3573  0.4424 -0.2289
  138OSM   H14F15104   4.247   5.798   7.771  1.1353  0.0934  3.1160
  138OSM   H14G15105   4.346   5.951   7.780  0.1770  0.2361  0.1055
  138OSM   C15F15106   4.462   5.770   7.773 -0.0581  0.1655 -0.4175
  138OSM   H15F15107   4.551   5.833   7.751  0.4379  0.5600  2.3310
  138OSM   H15G15108   4.460   5.683   7.704 -0.8586 -0.6299  0.5645
  138OSM   C16F15109   4.457   5.710   7.918  0.6291 -0.0183  0.4208
  138OSM   H16F15110   4.552   5.663   7.953  0.6725 -0.9660 -0.8980
  138OSM   H16G15111   4.385   5.627   7.931 -1.1592  1.7499  2.6272
  138OSM   C17F15112   4.427   5.825   8.026 -0.4045  0.4581  0.0539
  138OSM   H17F15113   4.329   5.872   8.004 -0.7906  0.0068  0.7644
  138OSM   H17G15114   4.505   5.901   8.006 -0.4357  0.6733  0.7252
  138OSM   C18F15115   4.437   5.771   8.166  1.0609 -0.2716  0.2140
  138OSM   H18F15116   4.342   5.722   8.195  0.7131  0.2541 -0.0167
  138OSM   H18G15117   4.448   5.856   8.237 -0.1886  0.5536 -0.5460
  138OSM   H18H15118   4.528   5.709   8.183  0.3776 -2.0403 -2.0946
  139OSM      N15119   3.532   0.104   6.288 -0.3363 -0.4934  0.0727
  139OSM    C1515120   3.575   0.028   6.405  0.8010  0.1579 -0.8773
  139OSM   H15A15121   3.511   0.055   6.487  0.4814  1.8480 -1.6373
  139OSM   H15B15122   3.678   0.054   6.426  0.4396  0.6372  0.3914
  139OSM   H15C15123   3.566  -0.077   6.380 -0.9717 -0.1608  0.9155
  139OSM    C1415124   3.393   0.059   6.229  0.0259  0.4063 -0.3431
  139OSM   H14A15125   3.318   0.067   6.307  0.1145  2.6484 -0.4281
  139OSM   H14B15126   3.399  -0.044   6.198  0.8518  0.2723  0.2403
  139OSM   H14C15127   3.355   0.114   6.144  0.1524 -0.2435 -0.8234
  139OSM    C1315128   3.529   0.249   6.313 -0.0671 -0.8493 -0.2818
  139OSM   H13A15129   3.449   0.272   6.383  1.4616  0.6575  1.0478
  139OSM   H13B15130   3.494   0.297   6.223  2.4101 -0.9675 -1.3667
  139OSM   H13C15131   3.624   0.296   6.332  0.7618 -1.6336 -2.2382
  139OSM    C1215132   3.637   0.080   6.181  0.2274  0.3591  0.0000
  139OSM   H12A15133   3.603   0.123   6.088 -1.5194 -1.6084 -0.3410
  139OSM   H12B15134   3.620  -0.022   6.151 -3.6699  0.4749  1.2495
  139OSM    C1115135   3.789   0.107   6.210 -0.1691  0.3711 -0.5897
  139OSM   H11A15136   3.796   0.216   6.228 -1.4950  0.6217 -1.4262
  139OSM   H11B15137   3.846   0.090   6.117  0.0891  0.4605 -0.4470
  139OSM      P15138   3.930  -0.095   6.311 -0.6651  0.0067  0.5399
  139OSM    O1315139   3.837  -0.208   6.299 -0.0930  0.1078 -0.1226
  139OSM    O1415140   4.024  -0.066   6.200 -0.0988 -0.0145 -0.8520
  139OSM    O1115141   4.011  -0.110   6.444  0.1957 -0.0685  0.9860
  139OSM    O1215142   3.846   0.038   6.325 -0.2186 -0.1399 -0.1240
  139OSM    C1S15143   3.975  -0.032   6.558  0.3277 -0.0867 -0.2336
  139OSM    H1S15144   3.870  -0.034   6.593  1.2439  2.2838  3.1945
  139OSM    H1T15145   3.988   0.078   6.548 -0.8527  0.1678  0.7015
  139OSM     NF15146   4.010  -0.020   6.808 -0.2633  0.0361  0.1160
  139OSM    HNF15147   4.039   0.070   6.839  0.8681  0.3330 -1.6691
  139OSM    C2S15148   4.064  -0.076   6.681 -0.3995  0.0809 -0.3050
  139OSM    H2S15149   4.080  -0.185   6.698 -0.0162 -0.0043 -1.1632
  139OSM    C3S15150   4.207  -0.022   6.649  0.2127 -0.0023  0.5882
  139OSM    H3S15151   4.209   0.089   6.654  1.2040 -0.0634  2.5736
  139OSM     O315152   4.269  -0.073   6.529 -0.2273 -0.1647 -0.1390
  139OSM    HO315153   4.196  -0.112   6.481  0.2653 -1.8843  0.4412
  139OSM    C4S15154   4.299  -0.064   6.759  0.4051 -0.4846  0.0899
  139OSM    H4S15155   4.303  -0.174   6.759 -2.3516 -0.6615 -1.1336
  139OSM    C5S15156   4.367   0.012   6.849  0.2676 -0.8321 -0.1919
  139OSM    H5S15157   4.367   0.121   6.862  3.0829 -0.9504  1.5869
  139OSM    C6S15158   4.441  -0.045   6.964  0.4609  0.2242 -0.6509
  139OSM    H6S15159   4.542   0.002   6.973  1.4031 -1.5579 -1.3645
  139OSM    H6T15160   4.468  -0.152   6.952  1.3336  0.2595  0.7304
  139OSM    C7S15161   4.356  -0.024   7.090 -0.0744  0.3091  0.5902
  139OSM    H7S15162   4.251  -0.057   7.080  0.3003 -0.7285 -0.0863
  139OSM    H7T15163   4.352   0.086   7.105 -1.0326  0.3686 -0.0174
  139OSM    C8S15164   4.418  -0.079   7.219 -0.6133 -0.3310  0.2098
  139OSM    H8S15165   4.528  -0.069   7.206 -0.5245 -0.3001  0.9587
  139OSM    H8T15166   4.397  -0.187   7.229 -3.0328 -0.0870 -1.3882
  139OSM    C9S15167   4.361  -0.004   7.343  0.0715  0.0077  0.2678
  139OSM    H9S15168   4.250  -0.005   7.340  0.0555 -2.4854 -0.8730
  139OSM    H9T15169   4.378   0.106   7.338 -0.7046  0.1474  0.5131
  139OSM   C10S15170   4.419  -0.061   7.475 -0.3178 -0.3887  0.0124
  139OSM   H10S15171   4.530  -0.058   7.471 -0.1872 -1.4998  1.8410
  139OSM   H10T15172   4.394  -0.168   7.458  0.6606 -0.4613 -1.0962
  139OSM   C11S15173   4.360  -0.008   7.600 -0.4844 -0.2809 -0.0440
  139OSM   H11S15174   4.250   0.006   7.593 -0.4030  0.4786  0.0067
  139OSM   H11T15175   4.414   0.083   7.636 -0.1721  0.0103 -1.2237
  139OSM   C12S15176   4.376  -0.110   7.718  0.6258  0.4168 -0.0977
  139OSM   H12S15177   4.360  -0.215   7.685  1.4986 -0.0042  0.7720
  139OSM   H12T15178   4.296  -0.108   7.795  2.5530 -1.4029  2.0874
  139OSM   C13S15179   4.514  -0.105   7.788  0.0923 -0.1038 -0.2180
  139OSM   H13S15180   4.536   0.003   7.802 -0.8816 -0.1101  1.6781
  139OSM   H13T15181   4.591  -0.153   7.723  0.0049  0.5761 -0.8314
  139OSM   C14S15182   4.521  -0.180   7.924 -0.0349 -0.6843  0.1405
  139OSM   H14S15183   4.468  -0.276   7.907 -2.1371  0.1278  1.6861
  139OSM   H14T15184   4.457  -0.119   7.992 -0.2818  2.1829 -2.4275
  139OSM   C15S15185   4.662  -0.198   7.974 -0.0212 -0.1135  0.5767
  139OSM   H15S15186   4.718  -0.102   7.977 -0.6796  0.3319 -0.6352
  139OSM   H15T15187   4.727  -0.251   7.901  3.7533  2.0787  2.0733
  139OSM   C16S15188   4.675  -0.269   8.110 -0.1927 -0.4145 -0.5738
  139OSM   H16S15189   4.653  -0.195   8.190  0.4030 -0.7178 -0.1159
  139OSM   H16T15190   4.781  -0.296   8.131 -0.3238  0.5866  1.7270
  139OSM   C17S15191   4.590  -0.390   8.137  0.4005  0.4524  0.0529
  139OSM   H17S15192   4.487  -0.368   8.101  0.3708  1.1670  0.5398
  139OSM   H17T15193   4.584  -0.410   8.246 -1.6358 -0.8469 -0.2537
  139OSM   C18S15194   4.635  -0.523   8.065  0.5128  0.6573 -0.1959
  139OSM   H18S15195   4.572  -0.610   8.093  0.1951  1.9342  3.6957
  139OSM   H18T15196   4.738  -0.557   8.087  0.9630 -0.2983 -3.2769
  139OSM   H18U15197   4.614  -0.502   7.958 -1.5939  0.6565  0.1761
  139OSM    C1F15198   3.913  -0.080   6.875  0.5384  0.0491  0.5869
  139OSM     OF15199   3.863  -0.181   6.839  0.3587  0.5449  0.3201
  139OSM    C2F15200   3.876  -0.014   7.005 -0.1652  0.6372  0.6618
  139OSM    H2F15201   3.847   0.089   6.978 -0.0085  0.4242 -0.3492
  139OSM    H2G15202   3.973   0.001   7.056  1.3769 -0.2158 -1.8537
  139OSM    C3F15203   3.775  -0.088   7.086 -0.2655  0.0377 -0.6908
  139OSM    H3F15204   3.792  -0.192   7.122 -2.4866 -0.2644 -0.3325
  139OSM    H3G15205   3.681  -0.102   7.028  0.0872 -2.1374 -0.8168
  139OSM    C4F15206   3.727   0.002   7.202  0.0117  0.3714  0.2267
  139OSM    H4F15207   3.699   0.101   7.159  3.0565  1.5824  0.7875
  139OSM    H4G15208   3.815   0.001   7.270 -0.5979  0.4295  1.0282
  139OSM    C5F15209   3.622  -0.047   7.287 -0.0250 -0.4451 -0.4862
  139OSM    H5F15210   3.646  -0.137   7.349 -1.5881 -0.1033  0.6987
  139OSM    H5G15211   3.530  -0.071   7.229 -1.0885 -0.6753  1.1990
  139OSM    C6F15212   3.567   0.059   7.390 -0.1395 -0.2000 -0.5475
  139OSM    H6F15213   3.484   0.009   7.445  0.3927 -0.7457 -0.2291
  139OSM    H6G15214   3.528   0.145   7.332 -1.5719  0.1315  0.8270
  139OSM    C7F15215   3.660   0.112   7.498 -0.5338  0.0936 -0.5080
  139OSM    H7F15216   3.753   0.154   7.454 -0.2626 -0.9019 -0.9221
  139OSM    H7G15217   3.694   0.028   7.562  1.1757  0.5159 -0.8045
  139OSM    C8F15218   3.609   0.222   7.591 -0.0170  0.0085 -0.2386
  139OSM    H8F15219   3.511   0.188   7.632 -0.6397  1.3991 -0.5522
  139OSM    H8G15220   3.578   0.310   7.531 -1.2399 -0.9606 -1.0935
  139OSM    C9F15221   3.706   0.259   7.700  0.0624  0.1670 -0.9664
  139OSM    H9F15222   3.810   0.264   7.666  0.4010 -1.4405 -0.2535
  139OSM   C10F15223   3.678   0.264   7.830 -0.3202  0.5951 -0.9636
  139OSM   H10F15224   3.756   0.279   7.906 -1.2799 -1.0977  0.4262
  139OSM   C11F15225   3.543   0.239   7.894  0.4050  0.2682 -0.1079
  139OSM   H11F15226   3.462   0.207   7.827  0.4324 -1.5242  0.6586
  139OSM   H11G15227   3.510   0.328   7.953 -0.2124  0.5090 -0.8119
  139OSM   C12F15228   3.546   0.116   7.989  1.1873  0.2752  0.5046
  139OSM   H12F15229   3.609   0.031   7.956  1.5043 -0.1637  2.1289
  139OSM   H12G15230   3.442   0.078   7.982 -0.2157  3.7792  0.5797
  139OSM   C13F15231   3.572   0.166   8.133  0.0227 -0.7966  0.3934
  139OSM   H13F15232   3.483   0.225   8.164 -0.9022 -0.9532 -1.8065
  139OSM   H13G15233   3.656   0.238   8.128 -0.5373 -0.2052 -0.6351
  139OSM   C14F15234   3.610   0.048   8.232 -0.0541  0.3611  0.7701
  139OSM   H14F15235   3.701  -0.006   8.199 -1.0739 -1.3405  0.6408
  139OSM   H14G15236   3.516  -0.011   8.226 -0.5960  1.3005 -0.4194
  139OSM   C15F15237   3.635   0.083   8.382 -1.1655 -0.4857 -0.0289
  139OSM   H15F15238   3.656  -0.015   8.429  1.0563 -1.9158 -3.5947
  139OSM   H15G15239   3.545   0.137   8.418 -0.5924 -0.0487  0.7793
  139OSM   C16F15240   3.756   0.176   8.399  0.2663 -0.3460 -0.7521
  139OSM   H16F15241   3.748   0.207   8.505  2.5138  0.7995 -0.8756
  139OSM   H16G15242   3.746   0.267   8.336 -2.2504 -0.0021  0.0371
  139OSM   C17F15243   3.891   0.105   8.371  0.4478  0.3705  0.2221
  139OSM   H17F15244   3.909   0.110   8.261  1.8699 -0.0917  0.4124
  139OSM   H17G15245   3.890   0.000   8.407 -2.2101  0.9004  1.9440
  139OSM   C18F15246   4.000   0.177   8.451 -0.2469 -0.2488 -0.1698
  139OSM   H18F15247   4.096   0.158   8.398  1.0012  0.6120  1.6644
  139OSM   H18G15248   4.010   0.133   8.552 -1.8656  0.9249  0.5408
  139OSM   H18H15249   3.980   0.286   8.457  2.6565  0.3081  0.7442
  140OSM      N15250   4.769   2.312   5.943 -0.3995  0.2046 -0.3321
  140OSM    C1515251   4.723   2.318   5.798 -0.3258  0.1708  0.1429
  140OSM   H15A15252   4.669   2.411   5.794  0.7289  0.9085  1.8574
  140OSM   H15B15253   4.661   2.233   5.778  0.6327 -0.7556  0.9858
  140OSM   H15C15254   4.804   2.314   5.727 -1.6223 -0.3994 -1.3524
  140OSM    C1415255   4.648   2.316   6.032  0.1715 -0.0157 -0.2793
  140OSM   H14A15256   4.679   2.316   6.136 -0.9644  3.6766  0.2090
  140OSM   H14B15257   4.580   2.234   6.013  0.0717  0.2075 -0.8819
  140OSM   H14C15258   4.596   2.409   6.016  0.7049 -0.1616 -3.5024
  140OSM    C1315259   4.843   2.183   5.956 -0.4170  0.6695 -0.2574
  140OSM   H13A15260   4.917   2.190   5.878 -1.0369  1.1519 -0.8073
  140OSM   H13B15261   4.778   2.099   5.936  0.9791  0.1106 -2.8943
  140OSM   H13C15262   4.883   2.167   6.055 -1.2702  1.4165  0.2266
  140OSM    C1215263   4.867   2.429   5.971 -0.3959 -0.9638  0.6854
  140OSM   H12A15264   4.809   2.515   5.942  0.1788 -0.7427  0.1636
  140OSM   H12B15265   4.947   2.424   5.899  0.3733 -3.1037  1.5834
  140OSM    C1115266   4.911   2.457   6.121  0.4084 -0.5713 -0.6716
  140OSM   H11A15267   4.821   2.505   6.166  0.6941 -2.5595  2.3389
  140OSM   H11B15268   4.994   2.531   6.126  0.4697 -0.5696 -1.5792
  140OSM      P15269   4.919   2.312   6.343 -0.4104 -0.3198  0.0196
  140OSM    O1315270   4.965   2.174   6.379 -0.6274  0.2902  0.0709
  140OSM    O1415271   4.967   2.431   6.422  0.2442  0.8834 -0.0508
  140OSM    O1115272   4.759   2.320   6.332  0.2164  0.9635 -0.0951
  140OSM    O1215273   4.951   2.339   6.189 -0.0098 -0.3508  0.2611
  140OSM    C1S15274   4.681   2.237   6.428  0.5663 -0.0142 -0.1685
  140OSM    H1S15275   4.730   2.144   6.463 -1.8522 -0.7459  1.5525
  140OSM    H1T15276   4.586   2.212   6.377  0.4206 -0.3799  0.2730
  140OSM     NF15277   4.615   2.236   6.666  0.1384 -0.0448  0.3611
  140OSM    HNF15278   4.521   2.233   6.698  0.0293 -1.6856 -0.0186
  140OSM    C2S15279   4.642   2.326   6.560 -0.3186 -0.5796 -0.2424
  140OSM    H2S15280   4.731   2.386   6.590 -0.8069  0.0931 -0.1353
  140OSM    C3S15281   4.534   2.430   6.511  0.0305 -0.3035 -0.3544
  140OSM    H3S15282   4.441   2.384   6.472  0.3790  0.3118 -1.9648
  140OSM     O315283   4.578   2.493   6.385 -0.5658  0.3905 -0.5271
  140OSM    HO315284   4.665   2.458   6.365 -0.3028  0.5909  0.2178
  140OSM    C4S15285   4.517   2.539   6.610 -0.3916  0.7842 -0.4520
  140OSM    H4S15286   4.615   2.570   6.651 -2.0419  1.8613  3.1122
  140OSM    C5S15287   4.402   2.569   6.676  0.2851 -0.3321 -0.1471
  140OSM    H5S15288   4.312   2.527   6.629  0.0958 -0.7553  0.5768
  140OSM    C6S15289   4.390   2.676   6.780  0.5464  0.3278 -0.2844
  140OSM    H6S15290   4.363   2.628   6.876 -1.3680  0.7773 -0.5470
  140OSM    H6T15291   4.301   2.739   6.758 -1.6171 -2.6850 -0.6949
  140OSM    C7S15292   4.517   2.750   6.821  0.2764 -0.4087  0.3125
  140OSM    H7S15293   4.533   2.826   6.741 -1.8076  0.0548  0.2888
  140OSM    H7T15294   4.614   2.697   6.827  0.4826 -0.0883 -0.0985
  140OSM    C8S15295   4.505   2.838   6.949  0.5369 -0.1349  0.1974
  140OSM    H8S15296   4.403   2.881   6.942  0.6304 -0.0774 -1.1171
  140OSM    H8T15297   4.569   2.928   6.943  0.3004  0.0033 -0.3073
  140OSM    C9S15298   4.530   2.752   7.070  0.0047  0.0732 -0.1365
  140OSM    H9S15299   4.640   2.739   7.069  0.3658  2.6490 -1.2124
  140OSM    H9T15300   4.490   2.650   7.049 -1.9999  1.1310 -1.9522
  140OSM   C10S15301   4.481   2.815   7.194 -0.6268  0.5297 -0.6206
  140OSM   H10S15302   4.370   2.815   7.194 -0.6400  0.5950 -1.9470
  140OSM   H10T15303   4.524   2.916   7.183  3.0082 -0.8080 -0.2850
  140OSM   C11S15304   4.529   2.744   7.314 -0.1775  0.7427  0.3560
  140OSM   H11S15305   4.638   2.728   7.297 -0.7739 -0.5062 -3.0317
  140OSM   H11T15306   4.490   2.642   7.332  2.9030 -1.0183 -2.0499
  140OSM   C12S15307   4.509   2.825   7.441  0.7579  0.6866  0.0999
  140OSM   H12S15308   4.406   2.866   7.449  0.5900  0.2034  0.4819
  140OSM   H12T15309   4.578   2.912   7.434 -1.4658  2.5412  0.2664
  140OSM   C13S15310   4.545   2.760   7.575  0.2660 -0.4988  0.6881
  140OSM   H13S15311   4.655   2.755   7.585  0.1422 -2.6076  1.2793
  140OSM   H13T15312   4.499   2.659   7.575  0.6110 -0.6779 -0.6765
  140OSM   C14S15313   4.481   2.832   7.695  0.6983 -0.4650  0.6901
  140OSM   H14S15314   4.373   2.844   7.676  0.9562  0.0587 -0.5222
  140OSM   H14T15315   4.525   2.934   7.705 -1.5506  0.5343  0.8366
  140OSM   C15S15316   4.495   2.767   7.827  0.3282  0.0102 -0.3092
  140OSM   H15S15317   4.597   2.760   7.870  0.2677 -2.1310 -0.4376
  140OSM   H15T15318   4.453   2.665   7.825  2.9700 -1.1646 -0.0052
  140OSM   C16S15319   4.415   2.838   7.932 -0.1129 -0.6113 -0.2148
  140OSM   H16S15320   4.310   2.856   7.900  0.0694 -0.2151 -0.6139
  140OSM   H16T15321   4.457   2.941   7.935 -1.5926  0.1068 -2.0689
  140OSM   C17S15322   4.418   2.792   8.079  0.4862 -0.0705  0.2981
  140OSM   H17S15323   4.375   2.871   8.144 -2.6927 -1.7155  0.3896
  140OSM   H17T15324   4.527   2.793   8.102  0.6194 -0.5467 -0.2749
  140OSM   C18S15325   4.368   2.654   8.112 -0.4798  0.6590 -0.1721
  140OSM   H18S15326   4.431   2.577   8.061 -0.3505  0.0182  0.9260
  140OSM   H18T15327   4.269   2.641   8.064  1.2801 -2.7030 -3.3981
  140OSM   H18U15328   4.364   2.631   8.221 -1.0420 -1.8619 -0.6609
  140OSM    C1F15329   4.704   2.155   6.715  0.3647  0.3709  0.0732
  140OSM     OF15330   4.820   2.166   6.690 -0.0751 -0.6295 -0.5815
  140OSM    C2F15331   4.657   2.052   6.809  0.1545 -0.5877 -0.1193
  140OSM    H2F15332   4.608   1.971   6.751 -0.8773  1.1281 -1.7234
  140OSM    H2G15333   4.576   2.089   6.875  0.5443  0.1112 -0.0219
  140OSM    C3F15334   4.770   1.989   6.898  0.1119 -0.1554 -0.0276
  140OSM    H3F15335   4.809   2.066   6.968 -2.2491  1.0876  0.0226
  140OSM    H3G15336   4.853   1.956   6.832  1.5933 -0.1005  1.7242
  140OSM    C4F15337   4.712   1.865   6.977  0.4362 -0.7121  0.0021
  140OSM    H4F15338   4.690   1.791   6.897  1.8373 -0.4960 -0.6278
  140OSM    H4G15339   4.629   1.893   7.044  0.2533 -2.8497  0.7483
  140OSM    C5F15340   4.807   1.802   7.075 -0.2778  0.8060 -0.4879
  140OSM    H5F15341   4.909   1.794   7.032 -0.4592  0.4038 -0.8533
  140OSM    H5G15342   4.775   1.704   7.114 -0.1192  2.1513  3.4629
  140OSM    C6F15343   4.813   1.885   7.200 -0.5454  0.0974 -0.0714
  140OSM    H6F15344   4.716   1.912   7.245  0.6292  0.6872  2.2816
  140OSM    H6G15345   4.863   1.983   7.185 -1.0628  0.2770 -0.6580
  140OSM    C7F15346   4.903   1.829   7.306 -0.9911 -0.1325 -0.2305
  140OSM    H7F15347   5.008   1.853   7.281 -1.0947  0.8811  0.2382
  140OSM    H7G15348   4.896   1.718   7.302  0.3503 -0.2410  0.0353
  140OSM    C8F15349   4.885   1.886   7.449  0.2537  0.6423  0.0352
  140OSM    H8F15350   4.921   1.991   7.455  0.1828  0.5833  3.6510
  140OSM    H8G15351   4.942   1.821   7.519 -0.0787 -0.9766 -1.1400
  140OSM    C9F15352   4.741   1.874   7.494  0.3378  0.5543 -0.7829
  140OSM    H9F15353   4.668   1.834   7.421 -0.6400 -1.1610  1.0446
  140OSM   C10F15354   4.697   1.927   7.611 -0.0898 -0.4441  0.4686
  140OSM   H10F15355   4.594   1.932   7.647  0.5636  0.1219  2.3731
  140OSM   C11F15356   4.792   2.004   7.698 -0.4850  0.0833 -0.2634
  140OSM   H11F15357   4.779   2.112   7.677  0.8642  0.9922  2.9780
  140OSM   H11G15358   4.901   1.997   7.674 -0.8109 -2.0517 -1.3742
  140OSM   C12F15359   4.782   1.968   7.851  0.0679 -0.9103 -0.0591
  140OSM   H12F15360   4.868   2.020   7.900  1.1417 -2.6576  0.0167
  140OSM   H12G15361   4.804   1.860   7.863  0.6305 -0.6186  1.9147
  140OSM   C13F15362   4.652   2.006   7.916  0.7949 -0.3665  0.1239
  140OSM   H13F15363   4.573   1.953   7.859  1.1394  0.1997 -0.9028
  140OSM   H13G15364   4.640   2.115   7.900  0.3541 -0.5102 -0.5787
  140OSM   C14F15365   4.641   1.983   8.070  0.4241  0.9453  0.6781
  140OSM   H14F15366   4.638   1.873   8.083 -0.8901  0.6100 -1.8878
  140OSM   H14G15367   4.550   2.033   8.112 -0.6793  1.4461 -2.1229
  140OSM   C15F15368   4.757   2.046   8.141 -0.6621  0.3459 -0.5815
  140OSM   H15F15369   4.783   2.135   8.080  1.0329  1.4457  1.6205
  140OSM   H15G15370   4.842   1.976   8.153 -0.6002  0.2861 -1.3280
  140OSM   C16F15371   4.724   2.096   8.286  1.1714  0.1382 -0.8104
  140OSM   H16F15372   4.667   2.014   8.335  0.3580  1.2655  0.1943
  140OSM   H16G15373   4.671   2.194   8.289  1.4313  0.3276  3.0879
  140OSM   C17F15374   4.846   2.110   8.367  0.0444 -0.0521  0.1718
  140OSM   H17F15375   4.924   2.177   8.325  0.7290  0.3198  1.9593
  140OSM   H17G15376   4.878   2.008   8.395 -3.2544 -0.4489  3.2391
  140OSM   C18F15377   4.810   2.164   8.508  0.6340 -0.6897 -0.1386
  140OSM   H18F15378   4.768   2.267   8.515  1.0075 -0.5437 -0.0448
  140OSM   H18G15379   4.896   2.164   8.578  1.8201 -0.5498 -1.5663
  140OSM   H18H15380   4.739   2.091   8.554  0.9062 -2.4409 -2.3371
  141OSM      N15381   3.876   3.556   6.100  0.7797 -0.0604  0.5271
  141OSM    C1515382   3.880   3.455   5.991 -0.5437 -0.2511  0.4084
  141OSM   H15A15383   3.807   3.377   6.009 -0.3077 -1.0714 -1.9430
  141OSM   H15B15384   3.980   3.414   5.989  0.4950  1.9489  2.3927
  141OSM   H15C15385   3.871   3.502   5.895 -0.9571  1.2424  1.1525
  141OSM    C1415386   3.928   3.474   6.215 -0.0710  0.1359  0.0793
  141OSM   H14A15387   3.942   3.532   6.305  1.4557 -0.1258  0.0473
  141OSM   H14B15388   4.020   3.428   6.182 -0.3391 -1.1431  1.0299
  141OSM   H14C15389   3.871   3.386   6.239  1.4457 -0.5569  1.3359
  141OSM    C1315390   3.974   3.663   6.086 -0.3063 -0.4985 -0.1106
  141OSM   H13A15391   3.982   3.731   6.169  0.2604  0.8440 -1.2295
  141OSM   H13B15392   3.941   3.727   6.006  0.9533 -1.4677 -1.4443
  141OSM   H13C15393   4.071   3.623   6.064  0.8722  2.5478 -0.9433
  141OSM    C1215394   3.738   3.609   6.123 -0.3378  0.1640 -0.6388
  141OSM   H12A15395   3.669   3.528   6.102 -1.0300  0.3220  0.9107
  141OSM   H12B15396   3.706   3.680   6.048 -0.6750  0.1179 -0.5431
  141OSM    C1115397   3.715   3.686   6.257  0.4309 -0.1071 -0.8337
  141OSM   H11A15398   3.732   3.625   6.348  1.6430 -0.7482 -1.4769
  141OSM   H11B15399   3.605   3.703   6.249  0.5527  0.8005 -0.6524
  141OSM      P15400   3.740   3.942   6.215  0.3483 -0.0382 -0.0894
  141OSM    O1315401   3.861   4.014   6.176  0.3688 -0.8174 -0.0311
  141OSM    O1415402   3.634   3.917   6.117  1.0346 -0.7614  0.3420
  141OSM    O1115403   3.674   4.017   6.339 -0.1142  0.8238 -0.1327
  141OSM    O1215404   3.787   3.805   6.272 -0.2624  0.1877  0.1865
  141OSM    C1S15405   3.759   4.042   6.460 -0.3841 -0.1832  0.3864
  141OSM    H1S15406   3.793   4.148   6.461 -0.1571 -0.2539  1.1015
  141OSM    H1T15407   3.848   3.976   6.475  0.1488  0.8274  1.9486
  141OSM     NF15408   3.757   4.045   6.708  0.0547  0.1447 -0.6529
  141OSM    HNF15409   3.797   3.959   6.739 -0.1487 -0.2231 -1.3875
  141OSM    C2S15410   3.675   4.020   6.590  0.1985 -0.0469  0.2210
  141OSM    H2S15411   3.591   4.094   6.590  0.5701  0.3835  0.6496
  141OSM    C3S15412   3.607   3.880   6.598  0.2743  0.4127 -0.5507
  141OSM    H3S15413   3.673   3.793   6.577 -1.6123 -1.4524  0.9458
  141OSM     O315414   3.514   3.867   6.494  0.0741 -0.0572  0.1336
  141OSM    HO315415   3.536   3.935   6.429 -0.9752  0.2825  0.1226
  141OSM    C4S15416   3.535   3.852   6.729  0.3820 -0.6652  0.4928
  141OSM    H4S15417   3.438   3.905   6.731  0.8944  0.5022 -2.0607
  141OSM    C5S15418   3.573   3.757   6.817 -0.4510  0.2727  0.1968
  141OSM    H5S15419   3.664   3.698   6.798  0.5518  1.7978  0.0709
  141OSM    C6S15420   3.514   3.732   6.953  0.2774 -0.1580 -0.2147
  141OSM    H6S15421   3.453   3.640   6.958  0.4416 -0.2081  3.0371
  141OSM    H6T15422   3.469   3.826   6.991 -0.1525 -0.0594 -0.9561
  141OSM    C7S15423   3.636   3.701   7.054 -0.0185 -0.3157  0.6179
  141OSM    H7S15424   3.704   3.789   7.053 -0.7675  0.2833  0.1943
  141OSM    H7T15425   3.687   3.611   7.015 -3.1247 -1.8015 -0.3184
  141OSM    C8S15426   3.586   3.674   7.195 -0.1357 -0.6955  0.1123
  141OSM    H8S15427   3.533   3.576   7.199 -1.8413  0.1714 -0.3470
  141OSM    H8T15428   3.514   3.752   7.228  1.6547  0.9795  0.2210
  141OSM    C9S15429   3.705   3.671   7.300  0.1299  0.3798  0.0159
  141OSM    H9S15430   3.725   3.778   7.322  1.5155  0.0363  0.5518
  141OSM    H9T15431   3.792   3.626   7.247  0.2093  0.2362  0.2687
  141OSM   C10S15432   3.662   3.605   7.435 -0.2803  0.1821 -0.2638
  141OSM   H10S15433   3.638   3.498   7.420 -1.1283  0.1821  0.9943
  141OSM   H10T15434   3.571   3.660   7.467  0.2528  0.6075  0.5603
  141OSM   C11S15435   3.770   3.620   7.541 -0.7547  0.4246 -0.4166
  141OSM   H11S15436   3.805   3.725   7.551  0.5777 -0.0057 -0.2765
  141OSM   H11T15437   3.851   3.558   7.497 -2.2909 -2.5530  0.6697
  141OSM   C12S15438   3.723   3.567   7.678 -0.0120  0.0763  0.4628
  141OSM   H12S15439   3.667   3.474   7.653 -0.9407  0.6213  0.4842
  141OSM   H12T15440   3.665   3.650   7.723  0.7864  0.3468  1.0076
  141OSM   C13S15441   3.834   3.523   7.775 -0.8554 -0.0899  0.3404
  141OSM   H13S15442   3.913   3.599   7.790 -1.6157  0.9636 -0.8806
  141OSM   H13T15443   3.886   3.436   7.730 -0.2825  1.0794 -1.3403
  141OSM   C14S15444   3.768   3.463   7.906 -0.2280  0.7477  0.3267
  141OSM   H14S15445   3.849   3.397   7.946  0.0160 -0.4051 -1.8790
  141OSM   H14T15446   3.682   3.400   7.876  0.2579  0.4740 -0.5400
  141OSM   C15S15447   3.731   3.563   8.006 -0.0044  0.0675 -0.9051
  141OSM   H15S15448   3.646   3.617   7.959  0.7622  0.7917 -1.4826
  141OSM   H15T15449   3.809   3.639   8.026 -2.3555  2.0100  1.6139
  141OSM   C16S15450   3.678   3.501   8.139  0.6402  0.4885 -0.0882
  141OSM   H16S15451   3.763   3.504   8.211  0.4275 -1.0739  0.2684
  141OSM   H16T15452   3.636   3.401   8.114 -2.5828  1.5500  0.6373
  141OSM   C17S15453   3.561   3.583   8.204  0.2622 -0.3975 -0.2044
  141OSM   H17S15454   3.506   3.636   8.123 -0.2768 -1.1198 -0.3155
  141OSM   H17T15455   3.612   3.669   8.252 -0.7218 -0.8894  1.8045
  141OSM   C18S15456   3.467   3.521   8.308 -0.1726 -0.0514 -0.2195
  141OSM   H18S15457   3.403   3.441   8.265  2.1456 -1.6701 -0.8482
  141OSM   H18T15458   3.396   3.597   8.347 -0.2179  0.3401 -1.0229
  141OSM   H18U15459   3.527   3.472   8.387  0.0290 -2.4490 -1.7632
  141OSM    C1F15460   3.793   4.165   6.758  0.6683  0.1247 -0.3511
  141OSM     OF15461   3.732   4.263   6.719  0.5400 -0.7580 -0.1766
  141OSM    C2F15462   3.896   4.165   6.863 -0.3400 -0.9176 -0.0594
  141OSM    H2F15463   3.995   4.185   6.816 -1.6092  3.5174 -1.3623
  141OSM    H2G15464   3.910   4.067   6.912  1.0736 -0.2232  1.0108
  141OSM    C3F15465   3.869   4.271   6.971 -0.9640  0.1206 -0.1444
  141OSM    H3F15466   3.869   4.375   6.932 -1.4918  1.0680  2.2256
  141OSM    H3G15467   3.951   4.259   7.045  1.3011 -0.1185 -2.5350
  141OSM    C4F15468   3.740   4.249   7.061 -0.5798 -0.2031  0.3508
  141OSM    H4F15469   3.646   4.251   7.003 -0.6854  2.5909  0.5083
  141OSM    H4G15470   3.735   4.338   7.127 -1.3126  1.0920 -1.3861
  141OSM    C5F15471   3.752   4.122   7.138  0.2899 -0.0044  0.0900
  141OSM    H5F15472   3.830   4.112   7.216  0.8138 -1.6276 -0.6190
  141OSM    H5G15473   3.778   4.048   7.060  0.2357 -0.1620  0.2203
  141OSM    C6F15474   3.619   4.076   7.206 -0.6425  0.4714  0.4178
  141OSM    H6F15475   3.631   3.976   7.251 -1.0347 -0.5819 -1.6971
  141OSM    H6G15476   3.541   4.061   7.128  1.4923  0.7967 -1.9253
  141OSM    C7F15477   3.571   4.160   7.327  0.6415 -0.2787  0.8338
  141OSM    H7F15478   3.479   4.113   7.368  0.5270  0.2617  1.2017
  141OSM    H7G15479   3.543   4.256   7.279 -0.9721 -1.2402 -0.2580
  141OSM    C8F15480   3.674   4.187   7.432  0.1908 -0.6971  0.0509
  141OSM    H8F15481   3.627   4.258   7.503 -0.1378  0.6409 -1.4590
  141OSM    H8G15482   3.761   4.245   7.395  1.2836 -1.7796  0.8327
  141OSM    C9F15483   3.711   4.054   7.499 -0.1011 -0.4917 -0.3919
  141OSM    H9F15484   3.739   3.974   7.429  1.3561  1.3237 -2.0052
  141OSM   C10F15485   3.707   4.027   7.632  0.5636 -0.4226  0.0416
  141OSM   H10F15486   3.752   3.930   7.657  5.9010  1.4736 -0.8358
  141OSM   C11F15487   3.669   4.112   7.747  0.6160 -0.3226 -0.2996
  141OSM   H11F15488   3.571   4.082   7.790  1.3870 -0.0405  1.7771
  141OSM   H11G15489   3.646   4.217   7.720  0.7752 -0.8439 -2.7387
  141OSM   C12F15490   3.762   4.108   7.865 -0.1736 -0.6792 -0.1309
  141OSM   H12F15491   3.727   4.174   7.947  1.3349  0.9930 -0.7676
  141OSM   H12G15492   3.867   4.138   7.844 -0.3680  2.0730  2.2750
  141OSM   C13F15493   3.760   3.969   7.934  0.0828 -0.4875  0.3705
  141OSM   H13F15494   3.805   3.902   7.857  0.3964  1.8133 -1.5703
  141OSM   H13G15495   3.657   3.929   7.946  0.5446 -1.0663  3.0756
  141OSM   C14F15496   3.840   3.959   8.069  0.5465  0.6846 -0.6244
  141OSM   H14F15497   3.937   4.010   8.049  0.6793 -0.1599 -2.3479
  141OSM   H14G15498   3.858   3.853   8.094 -1.3885  0.4890  0.1179
  141OSM   C15F15499   3.762   4.023   8.182  0.1657 -0.3926  0.1005
  141OSM   H15F15500   3.675   3.967   8.222  1.8815 -2.3955  1.2377
  141OSM   H15G15501   3.723   4.124   8.159  1.7015  0.2377  0.1628
  141OSM   C16F15502   3.853   4.041   8.301  0.4273 -0.1930 -1.2138
  141OSM   H16F15503   3.948   4.064   8.250  1.4677 -1.3641  0.1067
  141OSM   H16G15504   3.881   3.944   8.347 -1.2936 -0.5766 -0.8901
  141OSM   C17F15505   3.811   4.144   8.406 -0.8943 -0.3620  0.0312
  141OSM   H17F15506   3.703   4.138   8.433 -1.2110  2.3927 -0.2673
  141OSM   H17G15507   3.834   4.241   8.356  1.6030 -0.9025 -0.0013
  141OSM   C18F15508   3.893   4.140   8.536  0.0257 -0.0050  0.2067
  141OSM   H18F15509   3.857   4.211   8.612  0.6486  0.7507 -0.1914
  141OSM   H18G15510   3.994   4.180   8.513  0.4437 -1.4661 -0.7007
  141OSM   H18H15511   3.894   4.033   8.566 -0.8758  0.1565  0.8491
  142OSM      N15512   2.998   5.921   6.140 -0.2062  0.2057 -0.1465
  142OSM    C1515513   2.848   5.938   6.114  0.4008  0.2178 -0.4380
  142OSM   H15A15514   2.820   6.031   6.159 -0.2049 -1.4372  2.9317
  142OSM   H15B15515   2.802   5.852   6.160  3.7298 -1.0025  0.9413
  142OSM   H15C15516   2.825   5.947   6.009 -1.2222 -0.3134 -0.1545
  142OSM    C1415517   3.042   5.792   6.083  0.6390  0.2296 -0.3813
  142OSM   H14A15518   3.011   5.788   5.979  1.4863  1.7012 -0.7205
  142OSM   H14B15519   2.988   5.710   6.128  1.2345  0.1771  0.2355
  142OSM   H14C15520   3.147   5.776   6.101  0.1918 -1.9738  0.6430
  142OSM    C1315521   3.076   6.030   6.068 -0.1910 -0.1143 -1.0148
  142OSM   H13A15522   3.053   6.124   6.116 -2.8320 -1.7589  1.2778
  142OSM   H13B15523   3.044   6.028   5.965 -1.9767 -0.0537 -0.4877
  142OSM   H13C15524   3.183   6.014   6.063  0.0905 -0.0685  2.3663
  142OSM    C1215525   3.025   5.919   6.292 -1.0451 -0.0681 -0.4850
  142OSM   H12A15526   3.023   6.019   6.332  0.2006 -0.1245 -0.2436
  142OSM   H12B15527   3.125   5.889   6.319 -2.0546 -0.0516  4.1432
  142OSM    C1115528   2.936   5.832   6.387 -0.5862  0.4826 -0.4208
  142OSM   H11A15529   2.831   5.867   6.383 -0.7843 -0.0946 -0.3154
  142OSM   H11B15530   2.968   5.853   6.491 -1.9990  2.0060 -0.2447
  142OSM      P15531   2.868   5.577   6.290 -0.2777 -0.2281  0.0313
  142OSM    O1315532   2.736   5.633   6.244  0.3381  0.1435 -0.7624
  142OSM    O1415533   2.954   5.508   6.190  0.6429 -0.1635 -0.1580
  142OSM    O1115534   2.840   5.479   6.415 -0.1520  0.1070  0.4203
  142OSM    O1215535   2.958   5.691   6.356  0.7764 -0.5970  0.0948
  142OSM    C1S15536   2.920   5.486   6.532  0.2940  0.0276  0.1046
  142OSM    H1S15537   2.923   5.591   6.568 -1.3016 -0.2850  1.2492
  142OSM    H1T15538   3.026   5.464   6.508  0.7160  0.3726  1.5615
  142OSM     NF15539   2.962   5.421   6.776  0.6713 -0.2400  0.6020
  142OSM    HNF15540   3.059   5.398   6.778  1.0555  0.7510 -2.0784
  142OSM    C2S15541   2.882   5.390   6.651  0.4349  0.3411  0.0337
  142OSM    H2S15542   2.774   5.411   6.668 -0.3890 -0.7292 -3.0875
  142OSM    C3S15543   2.906   5.239   6.602  0.7418 -0.3162 -0.3605
  142OSM    H3S15544   3.012   5.211   6.582  1.0259  1.5748 -1.8315
  142OSM     O315545   2.833   5.213   6.484 -0.3615  0.1864 -0.0736
  142OSM    HO315546   2.791   5.294   6.456  0.4127  1.0947  1.2627
  142OSM    C4S15547   2.863   5.145   6.710 -0.0951 -0.0689 -0.0645
  142OSM    H4S15548   2.758   5.114   6.701  0.3319 -1.2778 -1.2378
  142OSM    C5S15549   2.945   5.098   6.808  0.1688 -0.4671  0.2278
  142OSM    H5S15550   3.054   5.109   6.798 -0.1218  2.6411 -0.4189
  142OSM    C6S15551   2.905   5.006   6.922  0.5884 -0.0742 -0.3210
  142OSM    H6S15552   2.975   4.921   6.932  1.4280  0.7243  0.8257
  142OSM    H6T15553   2.803   4.964   6.904 -0.8512  3.2694 -0.8241
  142OSM    C7S15554   2.898   5.076   7.061 -0.6213 -0.6875 -0.1254
  142OSM    H7S15555   2.823   5.157   7.070  3.0347  3.0236 -0.0325
  142OSM    H7T15556   2.997   5.114   7.094 -0.0059 -1.1937 -1.3149
  142OSM    C8S15557   2.869   4.963   7.165 -0.0728  0.3184  0.6556
  142OSM    H8S15558   2.914   4.864   7.141 -1.5715 -0.1279 -0.4356
  142OSM    H8T15559   2.760   4.948   7.153 -0.4466  1.4578  2.2248
  142OSM    C9S15560   2.909   5.009   7.307  0.4253 -0.3021  0.5043
  142OSM    H9S15561   2.820   5.068   7.337 -0.9310 -1.6370 -0.7677
  142OSM    H9T15562   3.009   5.058   7.300 -0.5633  1.8315  0.5164
  142OSM   C10S15563   2.911   4.895   7.417  0.0065 -0.1443  0.1610
  142OSM   H10S15564   3.001   4.832   7.401  0.9046  0.7034  1.6318
  142OSM   H10T15565   2.817   4.840   7.396 -0.7763  0.2661  2.3979
  142OSM   C11S15566   2.936   4.959   7.550  0.2593  0.0092  0.3094
  142OSM   H11S15567   2.850   5.028   7.564 -0.5307 -1.3017  2.3209
  142OSM   H11T15568   3.027   5.024   7.551 -1.0894  2.0009 -0.0728
  142OSM   C12S15569   2.950   4.854   7.659  0.3754  0.0662 -0.2472
  142OSM   H12S15570   3.037   4.787   7.638 -0.5296 -0.7572 -1.6095
  142OSM   H12T15571   2.871   4.777   7.672  1.6364 -1.6621 -2.0256
  142OSM   C13S15572   2.975   4.924   7.788 -0.4396  0.7297 -0.6880
  142OSM   H13S15573   2.877   4.958   7.829  0.7901  1.0295  2.2688
  142OSM   H13T15574   3.057   4.998   7.781  0.5591 -0.3968 -1.1907
  142OSM   C14S15575   3.019   4.825   7.898  0.1092  0.1149 -0.2858
  142OSM   H14S15576   3.102   4.762   7.862 -1.8807 -2.5600 -0.4807
  142OSM   H14T15577   2.928   4.764   7.919 -0.4122  0.1406 -2.3325
  142OSM   C15S15578   3.063   4.902   8.024  0.1254 -0.7704 -0.1757
  142OSM   H15S15579   2.986   4.975   8.055 -0.0699 -1.4048  0.9067
  142OSM   H15T15580   3.157   4.957   8.003 -0.0234 -0.6248 -0.4621
  142OSM   C16S15581   3.096   4.812   8.145 -0.4236 -0.0336  0.2247
  142OSM   H16S15582   3.172   4.735   8.117 -0.1649  0.2973  0.0099
  142OSM   H16T15583   3.003   4.762   8.178 -0.4806  0.1587  0.3588
  142OSM   C17S15584   3.152   4.909   8.258  0.1250  0.5658  0.7769
  142OSM   H17S15585   3.080   4.994   8.265 -0.9140 -0.2769  0.5986
  142OSM   H17T15586   3.246   4.958   8.224 -0.5129  2.1932  1.2463
  142OSM   C18S15587   3.171   4.861   8.399  0.3261 -0.8005  0.0016
  142OSM   H18S15588   3.070   4.831   8.436 -0.7119  1.6952 -0.5743
  142OSM   H18T15589   3.201   4.951   8.456  0.1174  0.9758 -2.5254
  142OSM   H18U15590   3.251   4.784   8.407  2.3411  1.0286 -1.5518
  142OSM    C1F15591   2.929   5.533   6.840  1.7753  0.8988  0.1003
  142OSM     OF15592   2.835   5.598   6.806  0.1781 -0.1928 -0.6664
  142OSM    C2F15593   3.025   5.593   6.926  0.4119  0.0397  0.3539
  142OSM    H2F15594   2.986   5.693   6.956  0.2442  0.9911 -2.7082
  142OSM    H2G15595   3.111   5.621   6.862  1.1602  2.2257  2.2023
  142OSM    C3F15596   3.057   5.499   7.044  0.5905 -0.7326 -0.1920
  142OSM    H3F15597   3.116   5.556   7.119 -0.5143 -1.5713  1.3613
  142OSM    H3G15598   3.115   5.411   7.009  0.6860 -1.3868  1.5190
  142OSM    C4F15599   2.944   5.445   7.136  0.5317  0.1241 -0.2934
  142OSM    H4F15600   2.862   5.402   7.076 -1.0319  2.4229  0.0610
  142OSM    H4G15601   2.887   5.528   7.182  0.7683 -0.2666  0.7256
  142OSM    C5F15602   3.004   5.351   7.247 -0.1467 -0.4612 -0.1306
  142OSM    H5F15603   3.084   5.295   7.193 -0.5250 -0.5644 -0.5953
  142OSM    H5G15604   2.927   5.277   7.278 -0.2576  0.0860  0.9105
  142OSM    C6F15605   3.048   5.435   7.375  0.1884 -0.8218  0.6468
  142OSM    H6F15606   2.964   5.498   7.409  0.4867 -0.2228  0.2972
  142OSM    H6G15607   3.131   5.501   7.340  0.3492 -1.0813  0.5312
  142OSM    C7F15608   3.088   5.337   7.482  0.2405  0.5057  0.3063
  142OSM    H7F15609   3.169   5.271   7.444 -0.4919 -1.0377  1.3013
  142OSM    H7G15610   3.003   5.266   7.497 -0.6583  1.3060 -0.8331
  142OSM    C8F15611   3.130   5.403   7.615 -0.0878 -0.2429 -0.1093
  142OSM    H8F15612   3.056   5.481   7.644  1.6260  1.2340  0.4399
  142OSM    H8G15613   3.227   5.454   7.593 -0.3663  1.1223  1.6197
  142OSM    C9F15614   3.144   5.285   7.706  0.0067 -0.5021  0.0892
  142OSM    H9F15615   3.192   5.190   7.676  0.6437  0.4594 -2.1668
  142OSM   C10F15616   3.087   5.274   7.824  0.3581  0.1743 -0.1962
  142OSM   H10F15617   3.100   5.181   7.880  1.5672  0.4794  0.0547
  142OSM   C11F15618   2.996   5.379   7.895 -0.2706  0.1875  0.2830
  142OSM   H11F15619   2.891   5.345   7.883 -0.0684 -0.5954  0.7095
  142OSM   H11G15620   3.004   5.480   7.848  0.8687 -0.2280 -0.4481
  142OSM   C12F15621   3.040   5.389   8.043 -0.3574  0.0154 -0.3545
  142OSM   H12F15622   3.146   5.422   8.053 -0.5203 -0.1259  2.8274
  142OSM   H12G15623   3.052   5.288   8.087  0.3129  0.4869  0.5774
  142OSM   C13F15624   2.940   5.479   8.119  0.0449  0.6893  0.0900
  142OSM   H13F15625   2.844   5.422   8.117  1.2480 -1.4652 -2.0992
  142OSM   H13G15626   2.930   5.579   8.071 -3.2137  0.0462 -0.8511
  142OSM   C14F15627   2.980   5.500   8.270 -0.2528  0.6770  0.7503
  142OSM   H14F15628   3.074   5.558   8.255 -0.1665  0.3885  0.1601
  142OSM   H14G15629   3.004   5.404   8.320 -0.8627  0.8216  1.3343
  142OSM   C15F15630   2.887   5.597   8.339 -0.3028 -0.5671 -0.2655
  142OSM   H15F15631   2.783   5.558   8.331  0.0168 -1.6738  0.7252
  142OSM   H15G15632   2.879   5.698   8.294 -3.6446 -1.0384 -1.0175
  142OSM   C16F15633   2.923   5.622   8.484 -0.3987  0.8076  0.0555
  142OSM   H16F15634   2.894   5.531   8.541 -1.3700  0.6433 -0.6691
  142OSM   H16G15635   2.871   5.712   8.522  0.3240  1.5380 -0.6489
  142OSM   C17F15636   3.066   5.670   8.517  0.5607  0.0674  0.2970
  142OSM   H17F15637   3.130   5.580   8.507 -1.5089 -1.3695 -0.6228
  142OSM   H17G15638   3.081   5.701   8.623  2.8789  0.4887 -0.0988
  142OSM   C18F15639   3.126   5.775   8.426  0.1256 -0.1405  0.3204
  142OSM   H18F15640   3.208   5.825   8.481 -0.5728  4.2104 -2.1608
  142OSM   H18G15641   3.047   5.853   8.415 -0.2852 -0.7453 -1.3540
  142OSM   H18H15642   3.160   5.736   8.328  1.1106 -0.3012  0.7190
  143OSM      N15643   5.044   0.602   6.105 -0.4331 -0.5115  0.1281
  143OSM    C1515644   5.145   0.496   6.060 -0.3152 -0.1900  0.0144
  143OSM   H15A15645   5.158   0.413   6.128  0.2248 -0.5795 -0.5512
  143OSM   H15B15646   5.243   0.536   6.040 -0.0350 -1.0470 -0.3850
  143OSM   H15C15647   5.118   0.450   5.966  1.4769 -0.7013 -0.2801
  143OSM    C1415648   5.045   0.707   6.001  0.6800  0.5183  0.0383
  143OSM   H14A15649   4.990   0.682   5.911  1.8906 -0.5838 -0.4153
  143OSM   H14B15650   5.146   0.737   5.979  0.7458 -0.1923 -0.6561
  143OSM   H14C15651   5.003   0.794   6.049 -0.4511  0.0900 -0.1384
  143OSM    C1315652   4.916   0.545   6.123  0.4315 -0.3469 -0.7044
  143OSM   H13A15653   4.843   0.623   6.136  1.2038  0.3753 -0.6141
  143OSM   H13B15654   4.910   0.471   6.202 -1.8005  0.4006 -0.1095
  143OSM   H13C15655   4.890   0.490   6.034 -0.2683 -1.1293 -0.0381
  143OSM    C1215656   5.095   0.661   6.243 -0.6832  0.3125 -0.6420
  143OSM   H12A15657   5.198   0.691   6.231  0.0722 -1.9045 -0.2246
  143OSM   H12B15658   5.096   0.588   6.323 -1.2511  3.0095  2.0259
  143OSM    C1115659   5.027   0.781   6.304 -0.2915 -0.2481  0.0717
  143OSM   H11A15660   5.088   0.791   6.396  0.4873  1.0340 -0.5618
  143OSM   H11B15661   4.922   0.761   6.336 -0.2450 -1.1634 -0.2929
  143OSM      P15662   5.141   1.001   6.216 -0.0861 -0.3150 -0.5087
  143OSM    O1315663   5.268   0.933   6.183 -0.3852 -0.3949  0.2730
  143OSM    O1415664   5.100   1.119   6.139  0.3271  0.3158 -0.2533
  143OSM    O1115665   5.153   1.042   6.372 -0.3130 -0.3791  0.1324
  143OSM    O1215666   5.027   0.894   6.218 -0.3517 -0.1161  0.4590
  143OSM    C1S15667   5.035   1.090   6.445 -0.8080 -0.2404 -0.0059
  143OSM    H1S15668   4.938   1.053   6.403 -0.0891  0.2564 -2.2506
  143OSM    H1T15669   5.040   1.201   6.450 -0.9954 -0.2849  1.5562
  143OSM     NF15670   4.899   1.062   6.657 -0.0367 -0.1077 -0.4337
  143OSM    HNF15671   4.874   1.143   6.709 -0.7178 -1.6046  1.7027
  143OSM    C2S15672   5.028   1.039   6.596 -0.6598 -0.0252 -0.6114
  143OSM    H2S15673   5.042   0.929   6.585  0.6217  0.2316 -1.7271
  143OSM    C3S15674   5.148   1.104   6.673 -0.8746  0.4592  1.2172
  143OSM    H3S15675   5.134   1.213   6.683  0.1806  0.7507 -0.1695
  143OSM     O315676   5.272   1.087   6.603 -0.0359 -0.0358  0.1863
  143OSM    HO315677   5.243   1.061   6.515  0.7884 -1.4682  0.3020
  143OSM    C4S15678   5.152   1.035   6.810 -0.6942  0.2517  0.1238
  143OSM    H4S15679   5.070   1.073   6.873  0.3341  2.7898  0.0350
  143OSM    C5S15680   5.236   0.941   6.858  0.0621  0.0219 -0.2381
  143OSM    H5S15681   5.309   0.907   6.784 -0.3511 -1.1114 -0.1505
  143OSM    C6S15682   5.217   0.884   6.996  0.5908  0.4055  0.3983
  143OSM    H6S15683   5.239   0.776   7.004  0.0400  0.3012  0.6113
  143OSM    H6T15684   5.114   0.891   7.039  0.3813 -0.5936  0.0898
  143OSM    C7S15685   5.299   0.960   7.103  0.5751 -0.1778  0.1051
  143OSM    H7S15686   5.282   1.070   7.098 -3.4366 -0.4829  2.3974
  143OSM    H7T15687   5.406   0.931   7.106  0.2227 -1.5081  0.7861
  143OSM    C8S15688   5.249   0.918   7.245  0.0708  0.4000 -0.1417
  143OSM    H8S15689   5.279   0.816   7.276  0.5894  0.7182  0.4328
  143OSM    H8T15690   5.138   0.912   7.246 -0.1223  2.6237 -1.5508
  143OSM    C9S15691   5.296   1.017   7.353 -0.4335 -0.1903  0.0075
  143OSM    H9S15692   5.290   1.123   7.321  0.8650 -0.8731 -2.8118
  143OSM    H9T15693   5.404   1.001   7.375 -0.3635  1.4877  1.1582
  143OSM   C10S15694   5.233   0.997   7.487 -0.1020 -0.0744 -0.0183
  143OSM   H10S15695   5.229   0.887   7.505 -0.7047 -0.6489 -3.1451
  143OSM   H10T15696   5.128   1.032   7.490  0.0287  0.2362  1.7625
  143OSM   C11S15697   5.293   1.080   7.602  0.1318  0.3325  0.3876
  143OSM   H11S15698   5.261   1.183   7.575 -0.3327 -0.1891 -1.1768
  143OSM   H11T15699   5.404   1.081   7.602  0.2403  3.4580 -2.2679
  143OSM   C12S15700   5.238   1.034   7.735 -0.4112 -0.2407 -0.3753
  143OSM   H12S15701   5.231   0.923   7.737 -0.7968 -0.2007  0.7980
  143OSM   H12T15702   5.135   1.075   7.727  0.1513  1.3911  0.3555
  143OSM   C13S15703   5.304   1.099   7.851  0.4014 -0.8595 -0.6096
  143OSM   H13S15704   5.324   1.202   7.814  0.1001 -1.1330 -1.5676
  143OSM   H13T15705   5.399   1.042   7.857  1.2740  0.5166 -0.9147
  143OSM   C14S15706   5.227   1.090   7.982 -0.2852 -0.2147 -0.0865
  143OSM   H14S15707   5.188   0.987   7.968  0.1466 -0.4099  0.1240
  143OSM   H14T15708   5.144   1.164   7.981  0.1604  0.3376 -2.6962
  143OSM   C15S15709   5.315   1.103   8.105  0.4493  0.6919 -0.3156
  143OSM   H15S15710   5.355   1.207   8.102  1.5310  0.2849 -1.7603
  143OSM   H15T15711   5.400   1.033   8.090 -0.3592 -0.3367 -0.1650
  143OSM   C16S15712   5.252   1.076   8.239 -1.4519  0.1984  0.0570
  143OSM   H16S15713   5.335   1.084   8.313 -0.4167 -2.8075 -0.6424
  143OSM   H16T15714   5.206   0.976   8.247  1.0357 -0.9287  1.4724
  143OSM   C17S15715   5.138   1.176   8.278 -0.3399 -0.4411 -0.2801
  143OSM   H17S15716   5.057   1.170   8.202 -1.9403 -0.3934  1.3502
  143OSM   H17T15717   5.182   1.277   8.279 -0.3269 -0.4380  1.8940
  143OSM   C18S15718   5.077   1.154   8.414 -0.1336  0.3462  0.5258
  143OSM   H18S15719   5.143   1.179   8.499  0.1662 -2.4597  1.2096
  143OSM   H18T15720   5.053   1.047   8.428  0.3195  0.1312 -0.2930
  143OSM   H18U15721   4.989   1.223   8.418  0.4149  1.1090 -0.1563
  143OSM    C1F15722   4.799   0.986   6.628 -0.1425  0.4879 -0.0949
  143OSM     OF15723   4.804   0.899   6.543  0.7978  0.0293  0.2845
  143OSM    C2F15724   4.669   1.017   6.708  0.2960 -0.2205 -0.2800
  143OSM    H2F15725   4.588   1.028   6.633  2.6367 -1.1160 -3.1243
  143OSM    H2G15726   4.678   1.113   6.763 -1.1237  0.4982 -1.2504
  143OSM    C3F15727   4.641   0.907   6.813 -0.3012 -0.0481 -0.2789
  143OSM    H3F15728   4.606   0.814   6.763 -0.2916 -0.1635 -0.0725
  143OSM    H3G15729   4.558   0.945   6.875  2.0779  2.1076  1.8046
  143OSM    C4F15730   4.757   0.864   6.909 -0.0377 -0.8148  0.6789
  143OSM    H4F15731   4.804   0.958   6.945 -0.0246 -0.4222 -0.3148
  143OSM    H4G15732   4.848   0.819   6.863  0.9758  1.2714  0.5082
  143OSM    C5F15733   4.721   0.782   7.032 -0.3329  0.2356  0.0415
  143OSM    H5F15734   4.677   0.682   7.013 -1.6418  1.1338 -1.9501
  143OSM    H5G15735   4.635   0.824   7.088 -2.0010 -1.2974 -1.2763
  143OSM    C6F15736   4.836   0.769   7.133 -0.3464 -0.2643  0.3924
  143OSM    H6F15737   4.845   0.874   7.170 -1.8794 -1.2144  3.8393
  143OSM    H6G15738   4.934   0.746   7.086 -0.9356  1.7276 -2.0041
  143OSM    C7F15739   4.801   0.674   7.254 -0.4606  0.1381 -0.2699
  143OSM    H7F15740   4.833   0.570   7.229  1.7109  1.2563 -2.6482
  143OSM    H7G15741   4.692   0.679   7.271 -0.6058 -2.3692 -0.0734
  143OSM    C8F15742   4.879   0.711   7.382 -0.9793 -0.3833 -0.1134
  143OSM    H8F15743   4.985   0.690   7.358 -0.0078  0.9935  2.5545
  143OSM    H8G15744   4.864   0.634   7.461  3.4458 -0.9810  0.3865
  143OSM    C9F15745   4.874   0.847   7.448  0.4401  0.7157 -0.1366
  143OSM    H9F15746   4.881   0.935   7.383 -2.7101  0.6277 -0.7332
  143OSM   C10F15747   4.859   0.875   7.579  0.1058 -0.4732  0.0496
  143OSM   H10F15748   4.880   0.978   7.613 -1.4532 -0.9310  2.6927
  143OSM   C11F15749   4.845   0.772   7.690  0.1268  0.4559  0.3959
  143OSM   H11F15750   4.919   0.693   7.667  0.4805  0.9486 -0.2038
  143OSM   H11G15751   4.744   0.727   7.699 -0.1116  1.0520  0.8172
  143OSM   C12F15752   4.876   0.821   7.829  0.1456 -0.4264 -0.7752
  143OSM   H12F15753   4.980   0.859   7.839  0.2279 -1.2487  2.6196
  143OSM   H12G15754   4.872   0.731   7.894  0.3415  0.0058 -0.1545
  143OSM   C13F15755   4.767   0.928   7.871  0.0630  0.0162  0.7430
  143OSM   H13F15756   4.675   0.870   7.887  0.0478  0.4532  2.4556
  143OSM   H13G15757   4.741   1.010   7.801  0.6451  0.1211  0.6375
  143OSM   C14F15758   4.798   0.990   8.004 -0.3912  0.3986  0.6495
  143OSM   H14F15759   4.891   1.051   7.994 -0.5898  0.5476 -0.3654
  143OSM   H14G15760   4.806   0.898   8.065 -1.4352 -1.1532 -1.4303
  143OSM   C15F15761   4.687   1.079   8.054  0.2824 -0.0878 -0.7480
  143OSM   H15F15762   4.587   1.043   8.021  0.8279 -1.8069 -0.6392
  143OSM   H15G15763   4.703   1.169   7.991  2.3179 -0.2528 -0.5359
  143OSM   C16F15764   4.708   1.118   8.206  0.2318  0.4916  0.2580
  143OSM   H16F15765   4.790   1.192   8.203 -0.0379  0.8742  1.7135
  143OSM   H16G15766   4.740   1.030   8.266  0.9873  0.5765 -0.0031
  143OSM   C17F15767   4.582   1.177   8.263  0.1395 -0.0616 -0.5137
  143OSM   H17F15768   4.509   1.094   8.275  0.2506 -0.1509 -0.4522
  143OSM   H17G15769   4.554   1.255   8.189 -0.9823  0.0488 -0.0009
  143OSM   C18F15770   4.598   1.243   8.400 -0.1972  0.2804  0.2691
  143OSM   H18F15771   4.624   1.164   8.473  0.2148 -0.1862 -0.3641
  143OSM   H18G15772   4.513   1.300   8.441 -2.5966 -1.7745 -1.5427
  143OSM   H18H15773   4.687   1.310   8.395 -1.0240  1.5956  2.0581
  144OSM      N15774   4.578   0.259   5.996 -0.0926  0.3913 -0.2440
  144OSM    C1515775   4.690   0.296   5.902  0.5563 -0.0610  0.5894
  144OSM   H15A15776   4.666   0.382   5.842 -1.4335 -1.5433 -0.8495
  144OSM   H15B15777   4.710   0.216   5.833 -0.4006  1.8208 -2.0194
  144OSM   H15C15778   4.779   0.324   5.957  0.3389  3.5221 -0.6420
  144OSM    C1415779   4.514   0.378   6.067 -0.2721 -0.3795 -0.3257
  144OSM   H14A15780   4.478   0.453   5.998 -0.9498 -0.3598  0.0401
  144OSM   H14B15781   4.591   0.425   6.126  0.5931 -2.0014 -0.0980
  144OSM   H14C15782   4.439   0.356   6.142  0.2734  1.2048  0.7409
  144OSM    C1315783   4.476   0.178   5.924  0.8590  0.8698  0.7031
  144OSM   H13A15784   4.415   0.233   5.853  1.6869 -0.4798 -1.1235
  144OSM   H13B15785   4.412   0.131   5.997 -0.6238  1.1337 -0.3658
  144OSM   H13C15786   4.521   0.099   5.866 -0.8994 -0.8188  1.5393
  144OSM    C1215787   4.639   0.173   6.104 -0.4471 -0.2316 -0.3152
  144OSM   H12A15788   4.675   0.089   6.046  0.2716 -2.5443  3.1633
  144OSM   H12B15789   4.560   0.144   6.171  0.1253  0.8783  0.8681
  144OSM    C1115790   4.774   0.206   6.181  0.5861  0.3165 -0.4237
  144OSM   H11A15791   4.796   0.119   6.245 -0.4090  1.9934  2.4035
  144OSM   H11B15792   4.741   0.292   6.244  1.0682 -0.6116  1.1538
  144OSM      P15793   4.996   0.143   6.062  0.4051 -0.0124 -0.3702
  144OSM    O1315794   4.930   0.024   6.007 -0.3793  0.0523  0.2787
  144OSM    O1415795   5.097   0.211   5.979  0.0607 -0.3957  0.0559
  144OSM    O1115796   5.052   0.112   6.202 -0.4504  0.0836  0.3586
  144OSM    O1215797   4.880   0.238   6.097 -0.0716 -0.6748 -0.1812
  144OSM    C1S15798   5.101   0.219   6.293 -0.0681 -0.1494  0.1595
  144OSM    H1S15799   5.072   0.322   6.262  1.4947  0.0455 -0.7327
  144OSM    H1T15800   5.212   0.218   6.293 -0.0438 -0.4283 -1.5890
  144OSM     NF15801   5.085   0.312   6.531 -0.8930 -0.1652  0.0949
  144OSM    HNF15802   5.144   0.285   6.606 -0.4208 -1.5706 -0.7357
  144OSM    C2S15803   5.038   0.209   6.440 -0.1990  0.4315  0.2168
  144OSM    H2S15804   4.930   0.222   6.419 -0.0427 -0.9826 -1.7716
  144OSM    C3S15805   5.058   0.062   6.489  0.8145  0.7556 -0.3507
  144OSM    H3S15806   5.168   0.045   6.485  0.4638 -2.1883 -0.2959
  144OSM     O315807   4.996  -0.039   6.412  0.6323  0.8139  0.0751
  144OSM    HO315808   4.970   0.011   6.334  3.1121 -0.1478 -1.4945
  144OSM    C4S15809   5.012   0.042   6.636  0.0311 -0.8171  0.7563
  144OSM    H4S15810   5.087   0.034   6.716  0.0879 -1.2133  0.6629
  144OSM    C5S15811   4.883   0.027   6.666 -0.4067 -1.1033  0.3910
  144OSM    H5S15812   4.813   0.032   6.581  1.1151 -0.7933 -0.9038
  144OSM    C6S15813   4.820   0.016   6.799 -0.3138  0.2181  0.0915
  144OSM    H6S15814   4.749  -0.070   6.798  1.1377 -1.0304  0.2707
  144OSM    H6T15815   4.751   0.101   6.815 -1.4381 -0.5011 -0.7749
  144OSM    C7S15816   4.902  -0.003   6.928 -0.0800 -0.1078  0.0750
  144OSM    H7S15817   4.989   0.066   6.942  0.7630 -0.8425 -1.2782
  144OSM    H7T15818   4.953  -0.101   6.920 -0.8246 -0.4089 -1.2511
  144OSM    C8S15819   4.813  -0.002   7.057 -0.1116 -0.4291 -0.1808
  144OSM    H8S15820   4.742  -0.086   7.038  1.0037 -0.5899 -5.0692
  144OSM    H8T15821   4.768   0.099   7.064  1.2554  0.1451  0.9877
  144OSM    C9S15822   4.903  -0.025   7.186  0.2225  0.1459  0.6963
  144OSM    H9S15823   4.990   0.042   7.163 -0.7310  0.7314 -1.4628
  144OSM    H9T15824   4.937  -0.131   7.185 -0.9762 -0.2702 -1.1304
  144OSM   C10S15825   4.830   0.009   7.315 -0.2717  0.6979  0.7813
  144OSM   H10S15826   4.738  -0.051   7.327  0.8061 -1.1280  0.3559
  144OSM   H10T15827   4.801   0.116   7.313  1.5439  1.2664  1.9013
  144OSM   C11S15828   4.906  -0.013   7.444  0.7114  0.2679 -0.2613
  144OSM   H11S15829   4.994   0.055   7.453  0.4044  0.6154  0.2111
  144OSM   H11T15830   4.925  -0.122   7.446  0.0931  0.1575 -0.2253
  144OSM   C12S15831   4.814   0.003   7.569 -0.2366  0.1798 -0.5627
  144OSM   H12S15832   4.722  -0.059   7.561  0.9467 -1.5657 -1.3031
  144OSM   H12T15833   4.788   0.111   7.568 -0.7792  0.0564 -0.2615
  144OSM   C13S15834   4.890  -0.039   7.697 -0.2769 -0.5408  0.5671
  144OSM   H13S15835   4.840  -0.020   7.794  0.3527 -0.7947  0.9494
  144OSM   H13T15836   4.981   0.025   7.692 -1.3213  0.8856 -1.6078
  144OSM   C14S15837   4.942  -0.184   7.698  0.6854 -0.6839 -0.5685
  144OSM   H14S15838   5.005  -0.211   7.611  2.0001 -0.2619  0.2259
  144OSM   H14T15839   4.854  -0.252   7.709 -0.3050  0.9408  3.1724
  144OSM   C15S15840   5.022  -0.216   7.828 -0.3626 -0.4159  0.6647
  144OSM   H15S15841   4.961  -0.184   7.915 -0.1923  1.8627  0.0015
  144OSM   H15T15842   5.112  -0.150   7.828  0.7430 -1.8175 -1.2787
  144OSM   C16S15843   5.057  -0.363   7.846  0.1361 -0.3223  0.4720
  144OSM   H16S15844   5.110  -0.385   7.750  0.2934 -2.1032  0.9250
  144OSM   H16T15845   4.959  -0.415   7.843 -0.2136  0.3483 -0.2658
  144OSM   C17S15846   5.147  -0.402   7.958  0.1737 -0.2193  0.4354
  144OSM   H17S15847   5.238  -0.341   7.943  1.0324 -1.0446  2.0012
  144OSM   H17T15848   5.164  -0.512   7.946 -1.4898 -0.4943  0.3774
  144OSM   C18S15849   5.080  -0.393   8.101 -0.2445 -0.2522  0.2647
  144OSM   H18S15850   5.083  -0.287   8.134  0.3056  0.8458 -2.9871
  144OSM   H18T15851   5.143  -0.452   8.170  1.4186  0.1361 -0.8687
  144OSM   H18U15852   4.979  -0.441   8.097  0.3903 -1.7171  1.0057
  144OSM    C1F15853   5.064   0.443   6.508  0.5232 -0.1634 -0.4282
  144OSM     OF15854   4.982   0.467   6.426 -0.1393 -0.2173  0.4189
  144OSM    C2F15855   5.134   0.547   6.589 -0.5958 -0.2380  0.3954
  144OSM    H2F15856   5.188   0.619   6.524  1.4751 -2.5094 -0.5574
  144OSM    H2G15857   5.209   0.484   6.640 -0.9811 -1.1891 -0.1972
  144OSM    C3F15858   5.049   0.620   6.689  0.1806 -0.2541 -0.2543
  144OSM    H3F15859   4.961   0.666   6.639  0.0660 -0.6145 -0.3916
  144OSM    H3G15860   5.112   0.702   6.730 -0.3346  0.2071 -0.3776
  144OSM    C4F15861   4.989   0.529   6.800 -0.1364 -0.6322  0.4523
  144OSM    H4F15862   4.914   0.456   6.762  0.5978 -1.0020 -0.3293
  144OSM    H4G15863   4.926   0.601   6.856 -0.1280 -0.1330 -0.1671
  144OSM    C5F15864   5.086   0.468   6.902 -0.4146  0.1615 -0.2430
  144OSM    H5F15865   5.161   0.546   6.931 -0.6543  0.2810  0.0577
  144OSM    H5G15866   5.133   0.379   6.856 -0.8032  0.9017 -2.1724
  144OSM    C6F15867   5.018   0.429   7.039  0.8284  0.0660 -0.2651
  144OSM    H6F15868   4.947   0.345   7.027  0.1337  0.5997  0.0091
  144OSM    H6G15869   4.963   0.522   7.065  0.9613  1.1126 -3.3086
  144OSM    C7F15870   5.127   0.401   7.143  0.4522  0.2227  0.5851
  144OSM    H7F15871   5.188   0.494   7.142  1.1699 -0.2449  0.4227
  144OSM    H7G15872   5.184   0.315   7.103  0.7952 -0.2583  2.0244
  144OSM    C8F15873   5.060   0.360   7.277  0.3504 -0.2809 -0.2081
  144OSM    H8F15874   4.980   0.288   7.249 -0.4404  1.2931 -2.2811
  144OSM    H8G15875   5.001   0.448   7.311 -1.0890 -1.7592  1.3053
  144OSM    C9F15876   5.171   0.316   7.372 -0.3651 -0.4557  0.3606
  144OSM    H9F15877   5.222   0.223   7.343  0.9993  0.9967 -2.2794
  144OSM   C10F15878   5.209   0.371   7.485 -0.3994  0.5797  0.1688
  144OSM   H10F15879   5.298   0.332   7.538  0.1631  3.3722  1.5055
  144OSM   C11F15880   5.159   0.498   7.549 -0.7100  0.5043 -0.4609
  144OSM   H11F15881   5.050   0.513   7.533 -0.5178  0.8279 -1.5910
  144OSM   H11G15882   5.217   0.581   7.503 -2.0287  2.3212  1.0258
  144OSM   C12F15883   5.178   0.499   7.705 -0.0318  0.4578  0.2361
  144OSM   H12F15884   5.108   0.429   7.757  1.8652 -1.1976  0.7018
  144OSM   H12G15885   5.139   0.598   7.735  0.9862  0.9651 -0.0938
  144OSM   C13F15886   5.320   0.470   7.746 -0.2690  0.7659  0.8808
  144OSM   H13F15887   5.383   0.551   7.703 -2.7469  1.8345 -0.9721
  144OSM   H13G15888   5.349   0.369   7.711 -0.7177  0.9928 -0.1897
  144OSM   C14F15889   5.334   0.480   7.896 -0.4462  0.1338 -0.4441
  144OSM   H14F15890   5.429   0.441   7.936 -0.6996  0.9993  1.0586
  144OSM   H14G15891   5.261   0.410   7.942  1.6463 -1.0915  1.1622
  144OSM   C15F15892   5.319   0.622   7.949  0.2007 -0.6337  0.1223
  144OSM   H15F15893   5.218   0.668   7.947 -0.5778 -2.0175  3.0123
  144OSM   H15G15894   5.382   0.680   7.878  1.0382  0.1424  1.4434
  144OSM   C16F15895   5.377   0.639   8.091  0.0099  0.6095  0.1245
  144OSM   H16F15896   5.467   0.574   8.098  0.6852  0.5423 -5.2096
  144OSM   H16G15897   5.306   0.592   8.163 -0.6666 -0.2396 -1.0637
  144OSM   C17F15898   5.400   0.773   8.143 -0.3164 -0.1853 -0.4452
  144OSM   H17F15899   5.307   0.834   8.137  0.9881  1.9884  0.3966
  144OSM   H17G15900   5.487   0.815   8.087  0.7395 -1.0881  0.4646
  144OSM   C18F15901   5.439   0.760   8.294 -0.1639 -0.0722  0.0852
  144OSM   H18F15902   5.380   0.680   8.344  1.2006 -0.2137  1.5586
  144OSM   H18G15903   5.425   0.857   8.346  1.1211 -0.3771  1.0577
  144OSM   H18H15904   5.545   0.730   8.307 -0.6719 -1.6481  0.8473
  145SAPE     N15905   0.014   0.606  10.642  0.9598  1.1624  0.3252
  145SAPE   HN115906   0.022   0.503  10.632 -0.7236  1.0666 -0.2919
  145SAPE   HN215907   0.106   0.640  10.678  1.8944 -0.3991 -0.4731
  145SAPE   HN315908  -0.048   0.628  10.722  2.4096  0.7523  1.6224
  145SAPE   C1215909  -0.011   0.665  10.510 -0.6292  0.5068 -0.1773
  145SAPE  H12A15910  -0.088   0.598  10.465  0.8289 -1.6308  0.3971
  145SAPE  H12B15911   0.085   0.685  10.458  0.3191 -0.2863  1.2078
  145SAPE   C1115912  -0.072   0.807  10.534 -0.3698  0.6687  0.5373
  145SAPE  H11A15913  -0.179   0.803  10.564 -0.3250  0.3491  0.6562
  145SAPE  H11B15914  -0.071   0.857  10.435 -2.3877  2.0729  1.1414
  145SAPE     P15915   0.127   0.963  10.610 -0.4850  0.3464  0.4296
  145SAPE   O1315916   0.137   1.070  10.709  0.1000  0.6378 -0.0317
  145SAPE   O1415917   0.250   0.883  10.599 -0.3348 -0.4521  0.0845
  145SAPE   O1215918  -0.002   0.877  10.638 -0.5283 -0.3441 -0.5827
  145SAPE   O1115919   0.092   1.009  10.469 -0.2379 -0.3095 -0.5675
  145SAPE    C115920   0.190   1.070  10.389 -0.6461  0.4205 -0.0243
  145SAPE    HA15921   0.143   1.146  10.323 -2.1639 -0.2872  0.1963
  145SAPE    HB15922   0.268   1.126  10.444  1.3588 -0.2778 -1.9835
  145SAPE    C215923   0.263   0.967  10.305  0.3772 -0.1356 -0.4084
  145SAPE    HS15924   0.282   0.877  10.367  0.7058  0.3546  0.2150
  145SAPE   O2115925   0.389   1.039  10.265 -0.4672 -0.3730 -0.1090
  145SAPE   C2115926   0.497   0.961  10.288 -0.9511 -0.0020  0.4898
  145SAPE   O2215927   0.500   0.847  10.321 -0.1323 -0.3766 -0.4724
  145SAPE   C2215928   0.623   1.033  10.244 -0.5665 -0.3063 -0.5474
  145SAPE   H2R15929   0.619   1.144  10.236 -0.0840 -0.4164 -4.7083
  145SAPE   H2S15930   0.705   1.004  10.313 -0.3482  0.8734 -0.2789
  145SAPE    C315931   0.178   0.943  10.177  0.4866  0.5249 -0.8440
  145SAPE    HX15932   0.161   1.045  10.135  1.3390  1.1284  0.2341
  145SAPE    HY15933   0.077   0.902  10.200  0.7058 -0.2196 -1.1717
  145SAPE   O3115934   0.254   0.863  10.085 -0.1111  0.5530  0.0677
  145SAPE   C3115935   0.211   0.740  10.061  0.8325 -0.3905 -0.0073
  145SAPE   O3215936   0.117   0.682  10.114 -0.3765 -0.3507  0.8521
  145SAPE   C3215937   0.295   0.691   9.944 -0.6331  0.2832  0.0776
  145SAPE   H2X15938   0.362   0.617   9.992  0.2719  1.0946  0.0865
  145SAPE   H2Y15939   0.358   0.772   9.901 -0.5463 -0.5230 -1.3416
  145SAPE   C2315940   0.661   0.987  10.102  0.0771 -0.4435 -0.5807
  145SAPE   H3R15941   0.652   0.876  10.099 -0.3549 -0.3975 -1.3797
  145SAPE   H3S15942   0.768   1.012  10.090 -0.0925  0.2158 -0.7260
  145SAPE   C2415943   0.573   1.044   9.986 -0.3845 -0.5318 -0.0618
  145SAPE   H4R15944   0.603   1.148   9.962  1.1587 -1.2572 -1.4691
  145SAPE   H4S15945   0.467   1.039  10.019  0.1052  0.8736  1.9089
  145SAPE   C2515946   0.588   0.956   9.861 -0.4501 -0.3978 -0.2646
  145SAPE   H5R15947   0.585   0.849   9.882  0.5480 -0.4633 -0.4341
  145SAPE   C2615948   0.592   0.999   9.730  0.1224 -0.2368  0.1045
  145SAPE   H6R15949   0.586   0.925   9.649  1.3164 -0.5513  0.2889
  145SAPE   C2715950   0.588   1.141   9.683 -0.2533 -0.0190 -0.6541
  145SAPE   H7R15951   0.661   1.199   9.743  2.4079  0.0566 -3.7324
  145SAPE   H7S15952   0.484   1.181   9.688 -0.1472  0.1079  1.0959
  145SAPE   C2815953   0.636   1.152   9.537 -0.2126  0.5516  0.0424
  145SAPE   H8R15954   0.744   1.170   9.526 -0.3912  0.8254 -1.5126
  145SAPE   C2915955   0.567   1.124   9.424 -0.2586 -0.7732 -0.4872
  145SAPE   H9R15956   0.621   1.129   9.328  1.8330  1.9054  0.7006
  145SAPE  C21015957   0.421   1.081   9.423  0.5236 -0.0292 -0.1673
  145SAPE  H10R15958   0.370   1.062   9.519 -2.7984 -0.9383 -1.9376
  145SAPE  H10S15959   0.429   0.979   9.380 -0.5612 -1.3684  2.5589
  145SAPE  C21115960   0.343   1.188   9.341 -0.0021 -0.5003 -0.6011
  145SAPE  H11R15961   0.355   1.294   9.367  2.1315 -0.2041 -2.5870
  145SAPE  C21215962   0.253   1.167   9.241 -0.2121  0.3280 -0.1155
  145SAPE  H12R15963   0.207   1.257   9.197 -0.5749  0.9245  1.4275
  145SAPE  C21315964   0.226   1.027   9.180  0.5473 -0.3026  0.2625
  145SAPE  H13R15965   0.120   1.010   9.152  0.2987  0.0629  0.9493
  145SAPE  H13S15966   0.225   0.947   9.256  1.4753 -0.7610 -0.1891
  145SAPE  C21415967   0.303   0.992   9.059 -0.7397 -0.2356  0.3297
  145SAPE  H14R15968   0.380   0.920   9.092 -1.6014 -1.3211 -0.0033
  145SAPE  C21515969   0.300   1.026   8.929  0.0330  1.0179  0.4891
  145SAPE  H15R15970   0.376   0.995   8.857  1.1388 -0.5798  2.2333
  145SAPE  C21615971   0.204   1.130   8.872 -0.3207 -0.4823 -0.0589
  145SAPE  H16R15972   0.252   1.223   8.834 -1.2138  0.6061  1.3894
  145SAPE  H16S15973   0.152   1.173   8.960 -2.3906  1.4624 -2.0808
  145SAPE  C21715974   0.091   1.058   8.793 -0.4695  0.0977  0.0155
  145SAPE  H17R15975   0.048   0.984   8.864 -2.2437  1.2523  0.1949
  145SAPE  H17S15976   0.136   1.001   8.709  0.7036  0.0386  0.6660
  145SAPE  C21815977  -0.016   1.154   8.754 -0.6764 -0.4755  0.1316
  145SAPE  H18R15978   0.036   1.234   8.697 -1.0503  0.4361  1.0433
  145SAPE  H18S15979  -0.046   1.215   8.842  0.5135  2.2994 -1.2289
  145SAPE  C21915980  -0.140   1.090   8.684 -0.5674  0.1124 -0.2621
  145SAPE  H19R15981  -0.102   1.032   8.597  2.8434  0.1620  1.0407
  145SAPE  H19S15982  -0.206   1.168   8.640  0.8131  0.3854 -1.9414
  145SAPE  C22015983  -0.225   0.986   8.767 -0.2920 -0.4560 -0.5013
  145SAPE  H20R15984  -0.307   0.940   8.709 -0.3583  0.1274 -0.8759
  145SAPE  H20S15985  -0.252   1.023   8.868  0.8038 -3.4195  1.0009
  145SAPE  H20T15986  -0.154   0.906   8.797  0.3305  0.4724  0.5906
  145SAPE   C3315987   0.206   0.619   9.838 -0.8147  0.2225 -0.4474
  145SAPE   H3X15988   0.133   0.690   9.792 -1.1330  2.6489  3.3713
  145SAPE   H3Y15989   0.149   0.536   9.885  0.9950  0.6809  2.8925
  145SAPE   C3415990   0.291   0.555   9.726  0.2890  0.2375 -0.1388
  145SAPE   H4X15991   0.365   0.483   9.768 -0.3951  0.6134  1.8305
  145SAPE   H4Y15992   0.344   0.631   9.665  0.1077 -0.1832 -0.8317
  145SAPE   C3515993   0.218   0.488   9.603  0.3468 -0.4655  0.0067
  145SAPE   H5X15994   0.165   0.395   9.630 -0.1431  0.3667  2.0668
  145SAPE   H5Y15995   0.297   0.456   9.531 -1.9639 -1.6582 -2.1744
  145SAPE   C3615996   0.122   0.577   9.521 -0.1990 -0.5729 -0.4375
  145SAPE   H6X15997   0.133   0.677   9.567 -0.1968 -1.2553  1.1168
  145SAPE   H6Y15998   0.013   0.556   9.520 -0.2451 -0.3304 -0.9757
  145SAPE   C3715999   0.158   0.575   9.374 -0.3777 -0.1110 -0.8882
  145SAPE   H7X16000   0.119   0.477   9.340 -0.7957 -0.5282  0.7048
  145SAPE   H7Y16001   0.267   0.586   9.353 -0.1326 -0.0954  0.3251
  145SAPE   C3816002   0.072   0.678   9.300  0.1751 -0.5243  0.0475
  145SAPE   H8X16003   0.109   0.777   9.334 -1.4665  0.3279 -0.5835
  145SAPE   H8Y16004  -0.034   0.663   9.328  0.1815 -0.1922  0.2564
  145SAPE   C3916005   0.094   0.672   9.150 -0.2347 -0.4315  0.4074
  145SAPE   H9X16006   0.196   0.698   9.115 -1.1010  1.2119 -1.0350
  145SAPE   H9Y16007   0.034   0.756   9.110  0.7456 -0.2151 -0.6734
  145SAPE  C31016008   0.054   0.538   9.085  0.6205 -0.2192  0.0868
  145SAPE  H10X16009  -0.048   0.507   9.115 -0.2915  0.6740 -1.9105
  145SAPE  H10Y16010   0.133   0.467   9.118 -0.1328 -1.2065 -0.1928
  145SAPE  C31116011   0.071   0.541   8.931  0.3257 -0.0629 -0.1067
  145SAPE  H11X16012   0.047   0.440   8.890  0.5248 -0.2483  0.2246
  145SAPE  H11Y16013   0.173   0.569   8.898 -0.0462  0.4501 -0.8346
  145SAPE  C31216014  -0.022   0.653   8.882  0.1137  0.1202  0.0300
  145SAPE  H12X16015   0.035   0.748   8.878  2.7596 -1.4043 -1.7006
  145SAPE  H12Y16016  -0.107   0.658   8.953 -1.5504  1.9533 -1.9847
  145SAPE  C31316017  -0.083   0.613   8.749  0.2430  0.2265 -0.4253
  145SAPE  H13X16018  -0.167   0.685   8.740  0.2408  0.0736 -1.9971
  145SAPE  H13Y16019  -0.124   0.510   8.749 -1.8928  1.0270 -0.4964
  145SAPE  C31416020   0.022   0.638   8.639 -0.1867  0.3270  0.5484
  145SAPE  H14X16021   0.093   0.553   8.634 -2.3279 -1.5675  0.5155
  145SAPE  H14Y16022   0.080   0.731   8.659  2.1349 -1.4051  2.3297
  145SAPE  C31516023  -0.047   0.641   8.494 -0.5111  1.1808 -0.3204
  145SAPE  H15X16024  -0.119   0.556   8.482  0.5004  0.3698 -0.8399
  145SAPE  H15Y16025   0.032   0.641   8.416  0.3296  3.3051  0.4674
  145SAPE  C31616026  -0.129   0.767   8.465  0.2183 -0.8619 -0.5696
  145SAPE  H16X16027  -0.075   0.862   8.445 -0.4690 -0.3793 -0.1854
  145SAPE  H16Y16028  -0.190   0.796   8.553 -2.1030  2.2330 -2.9239
  145SAPE  C31716029  -0.241   0.744   8.365 -0.7687 -0.3181 -0.4112
  145SAPE  H17X16030  -0.315   0.674   8.408 -0.2329 -0.5722  0.1145
  145SAPE  H17Y16031  -0.207   0.701   8.268  0.9854 -1.9140  0.8639
  145SAPE  C31816032  -0.307   0.876   8.322 -0.0376 -0.5052  0.0633
  145SAPE  H18X16033  -0.345   0.933   8.409  1.6573  0.1789  0.4029
  145SAPE  H18Y16034  -0.392   0.860   8.253  1.0487  0.4567 -1.5555
  145SAPE  H18Z16035  -0.243   0.952   8.272  0.9267 -0.5972  1.1172
  146SAPE     N16036   6.548   2.509  10.505 -0.0367 -0.3448 -0.2842
  146SAPE   HN116037   6.545   2.568  10.590 -0.4921 -1.2208  0.3224
  146SAPE   HN216038   6.622   2.437  10.519  1.5700  1.1301 -0.8178
  146SAPE   HN316039   6.567   2.573  10.424 -0.1165 -0.1011 -0.1113
  146SAPE   C1216040   6.414   2.443  10.496 -0.2684 -0.2015 -0.1952
  146SAPE  H12A16041   6.413   2.390  10.399  1.6706 -0.4301 -0.1248
  146SAPE  H12B16042   6.328   2.514  10.500  0.5714  0.8380 -0.1234
  146SAPE   C1116043   6.401   2.345  10.611  0.3222  0.0825  0.3109
  146SAPE  H11A16044   6.297   2.307  10.611  0.1010  0.6521  1.5480
  146SAPE  H11B16045   6.418   2.400  10.706  2.0068  0.4063 -0.1507
  146SAPE     P16046   6.464   2.090  10.647 -0.2356  0.0071  0.5845
  146SAPE   O1316047   6.533   2.056  10.772  0.3102 -0.0903 -0.4046
  146SAPE   O1416048   6.317   2.072  10.648 -0.7124 -0.1733 -0.3274
  146SAPE   O1216049   6.501   2.241  10.611 -0.7031 -0.1653  0.0154
  146SAPE   O1116050   6.530   1.995  10.534  0.0089 -0.0431 -0.7595
  146SAPE    C116051   6.654   2.048  10.475  0.3009  0.1657  0.3659
  146SAPE    HA16052   6.711   2.117  10.541 -0.3656 -0.2468  1.4057
  146SAPE    HB16053   6.721   1.963  10.450  0.2894 -0.0864  1.1710
  146SAPE    C216054   6.625   2.125  10.346  0.5090 -0.7059  0.1196
  146SAPE    HS16055   6.554   2.206  10.373  0.2946 -0.8189 -0.0969
  146SAPE   O2116056   6.576   2.031  10.250  0.6773  0.0212  0.4594
  146SAPE   C2116057   6.451   2.035  10.210  0.4259 -0.4972  0.5286
  146SAPE   O2216058   6.366   2.113  10.242  0.2277 -0.2059  0.0358
  146SAPE   C2216059   6.422   1.931  10.098  0.7586  0.3308 -0.2333
  146SAPE   H2R16060   6.469   1.837  10.135 -1.0331  0.0351  1.4162
  146SAPE   H2S16061   6.312   1.918  10.092  0.2600  3.8628 -0.6469
  146SAPE    C316062   6.743   2.202  10.284 -0.6026  0.7057 -0.8330
  146SAPE    HX16063   6.825   2.129  10.264 -1.0094 -0.6396  1.8854
  146SAPE    HY16064   6.788   2.273  10.357  1.3354 -2.3795  1.2467
  146SAPE   O3116065   6.700   2.253  10.158  0.3387 -0.4320 -0.1054
  146SAPE   C3116066   6.636   2.369  10.158 -0.1912 -0.2070  0.0777
  146SAPE   O3216067   6.615   2.432  10.256 -0.0090 -0.5151 -0.6625
  146SAPE   C3216068   6.616   2.418  10.012  0.0876 -0.6495  0.1171
  146SAPE   H2X16069   6.575   2.334   9.952 -0.5358  0.2224 -0.7055
  146SAPE   H2Y16070   6.720   2.421   9.972 -0.1248 -1.3699 -0.5103
  146SAPE   C2316071   6.474   1.974   9.961  0.1086  0.2482 -0.4132
  146SAPE   H3R16072   6.572   1.925   9.940  0.3286 -0.3261  1.7102
  146SAPE   H3S16073   6.501   2.082   9.972  1.5438 -0.2271  1.2157
  146SAPE   C2416074   6.372   1.959   9.849 -0.0808 -0.2096  0.1835
  146SAPE   H4R16075   6.278   2.014   9.867  0.0011 -0.0434  0.1022
  146SAPE   H4S16076   6.354   1.849   9.845  0.9155 -0.5844  3.4173
  146SAPE   C2516077   6.427   2.020   9.725 -0.0347 -0.5876 -0.2650
  146SAPE   H5R16078   6.480   2.115   9.742 -0.3314 -0.8459  2.7790
  146SAPE   C2616079   6.432   1.957   9.607  0.5624  0.3039 -0.1768
  146SAPE   H6R16080   6.493   1.994   9.522 -0.4915 -2.7253 -2.4377
  146SAPE   C2716081   6.385   1.819   9.572  0.2714  0.0557  0.6354
  146SAPE   H7R16082   6.279   1.815   9.538 -0.2580  0.2301  2.1661
  146SAPE   H7S16083   6.395   1.752   9.660  0.9332  0.6073  0.9941
  146SAPE   C2816084   6.460   1.745   9.463  0.0030 -0.0021 -0.4030
  146SAPE   H8R16085   6.401   1.736   9.371 -0.1315 -1.9782 -0.1514
  146SAPE   C2916086   6.583   1.685   9.478 -0.1687 -0.0810 -0.1038
  146SAPE   H9R16087   6.629   1.627   9.397  1.1751 -0.2137  0.7265
  146SAPE  C21016088   6.665   1.679   9.602  0.1544  0.0636  0.1540
  146SAPE  H10R16089   6.683   1.573   9.632 -0.7654  0.5487  2.6211
  146SAPE  H10S16090   6.606   1.712   9.690  0.6801  2.1672 -0.2411
  146SAPE  C21116091   6.787   1.767   9.603 -0.5772  0.2713 -0.2029
  146SAPE  H11R16092   6.756   1.872   9.593 -0.6469  0.0871 -2.6696
  146SAPE  C21216093   6.917   1.734   9.604  0.4859 -0.4085  0.1824
  146SAPE  H12R16094   6.982   1.822   9.604 -0.1187  0.0868  1.9885
  146SAPE  C21316095   6.974   1.597   9.605  0.2982  0.1847 -0.5913
  146SAPE  H13R16096   6.920   1.526   9.537  1.3410  0.0948 -1.3499
  146SAPE  H13S16097   6.968   1.551   9.706 -1.8607 -0.8641 -1.1224
  146SAPE  C21416098   7.119   1.597   9.574 -0.4907  0.0031 -0.2967
  146SAPE  H14R16099   7.189   1.552   9.646 -2.4728 -1.7187  0.6936
  146SAPE  C21516100   7.179   1.631   9.455  1.0298 -0.4722 -0.1602
  146SAPE  H15R16101   7.289   1.624   9.445  1.1246  0.9189 -0.3417
  146SAPE  C21616102   7.094   1.671   9.336 -0.3897 -0.5123 -0.3561
  146SAPE  H16R16103   7.109   1.777   9.308 -2.2703 -0.9481 -3.4159
  146SAPE  H16S16104   6.985   1.662   9.351 -0.7564  0.2824 -2.3509
  146SAPE  C21716105   7.136   1.588   9.211  0.4980  0.3005 -0.2590
  146SAPE  H17R16106   7.096   1.485   9.221 -0.3142  0.5169 -1.1027
  146SAPE  H17S16107   7.245   1.575   9.196  0.7622  0.9659  1.0383
  146SAPE  C21816108   7.092   1.650   9.076  0.3745 -0.9720 -0.2451
  146SAPE  H18R16109   7.149   1.741   9.050  2.2289 -2.3649 -1.3120
  146SAPE  H18S16110   6.988   1.688   9.091  1.2574  1.1319  0.8484
  146SAPE  C21916111   7.097   1.539   8.962  0.4211  0.3902 -0.9095
  146SAPE  H19R16112   7.018   1.466   8.987 -0.8388  1.6871 -0.9880
  146SAPE  H19S16113   7.190   1.478   8.965  1.2908  1.6960 -0.3618
  146SAPE  C22016114   7.054   1.591   8.819 -0.3722 -0.6520  0.0304
  146SAPE  H20R16115   6.952   1.635   8.810 -0.0535 -0.0362 -0.7642
  146SAPE  H20S16116   7.058   1.495   8.762 -2.1696 -1.1414  0.6442
  146SAPE  H20T16117   7.129   1.661   8.778  0.3636 -1.1912  0.4420
  146SAPE   C3316118   6.537   2.551   9.983 -0.1189  0.3078  0.2792
  146SAPE   H3X16119   6.575   2.629  10.052 -0.9076  1.5988 -0.6916
  146SAPE   H3Y16120   6.430   2.540  10.009 -0.6169  1.1758 -1.2110
  146SAPE   C3416121   6.544   2.606   9.837 -0.6893  0.1448 -0.2309
  146SAPE   H4X16122   6.652   2.619   9.815 -0.6352  0.9462  0.4733
  146SAPE   H4Y16123   6.500   2.707   9.842  1.9723  1.3276  1.1062
  146SAPE   C3516124   6.507   2.499   9.741 -0.3899 -0.4497  0.1687
  146SAPE   H5X16125   6.407   2.458   9.768 -0.7221  0.4559  0.3319
  146SAPE   H5Y16126   6.576   2.413   9.757  0.2172 -0.0887 -0.4615
  146SAPE   C3616127   6.509   2.563   9.602  0.1547  0.0598 -0.1142
  146SAPE   H6X16128   6.596   2.628   9.578  0.9776 -1.0330 -0.2307
  146SAPE   H6Y16129   6.422   2.632   9.596  0.4608  0.3755 -1.0444
  146SAPE   C3716130   6.502   2.454   9.499  0.4662 -0.1035 -0.0939
  146SAPE   H7X16131   6.402   2.405   9.504 -1.3326  2.9240 -2.6088
  146SAPE   H7Y16132   6.586   2.384   9.520 -0.1951 -1.2137 -1.0633
  146SAPE   C3816133   6.498   2.503   9.349  0.2101 -0.0220 -0.2154
  146SAPE   H8X16134   6.588   2.566   9.332  1.3399 -0.6740  2.7436
  146SAPE   H8Y16135   6.406   2.566   9.350 -1.5607 -2.4528  1.3856
  146SAPE   C3916136   6.485   2.395   9.247  0.0779  0.0492  0.7775
  146SAPE   H9X16137   6.387   2.343   9.260  0.1289 -0.5324 -0.9342
  146SAPE   H9Y16138   6.569   2.323   9.253  0.4850  0.6401  2.6690
  146SAPE  C31016139   6.487   2.461   9.111  0.2781  0.1118  0.6541
  146SAPE  H10X16140   6.580   2.522   9.114 -0.5533  1.4350  0.3968
  146SAPE  H10Y16141   6.407   2.536   9.092  0.1712 -0.7738 -3.3681
  146SAPE  C31116142   6.493   2.368   8.987  0.6337 -0.5172 -0.2328
  146SAPE  H11X16143   6.391   2.330   8.962  0.9673 -2.1505  0.7056
  146SAPE  H11Y16144   6.539   2.270   9.015 -2.3464 -1.1123  3.4633
  146SAPE  C31216145   6.547   2.442   8.867 -0.3623  0.1126  0.0496
  146SAPE  H12X16146   6.627   2.511   8.902 -2.2997  0.8945  3.2627
  146SAPE  H12Y16147   6.472   2.512   8.826  0.8136  0.7395 -1.1196
  146SAPE  C31316148   6.587   2.334   8.761  0.3481 -0.8346  0.5794
  146SAPE  H13X16149   6.515   2.253   8.737  0.3692  0.0808 -3.2262
  146SAPE  H13Y16150   6.676   2.282   8.803 -0.7182 -3.0854  0.1864
  146SAPE  C31416151   6.616   2.394   8.624  0.4013 -0.6524 -0.2785
  146SAPE  H14X16152   6.709   2.454   8.625  0.1014 -0.1900  1.1268
  146SAPE  H14Y16153   6.531   2.452   8.583  1.4438  0.7946 -0.4531
  146SAPE  C31516154   6.656   2.285   8.519  0.4211  0.4171  0.2225
  146SAPE  H15X16155   6.628   2.329   8.421 -1.5700 -1.7374 -0.2909
  146SAPE  H15Y16156   6.583   2.203   8.538  0.6979  0.1602  0.1879
  146SAPE  C31616157   6.801   2.237   8.540  0.1125  0.2771  0.1325
  146SAPE  H16X16158   6.807   2.204   8.646 -3.4178 -3.3806 -0.5612
  146SAPE  H16Y16159   6.871   2.317   8.507 -0.2914  1.7972  2.6879
  146SAPE  C31716160   6.836   2.116   8.455  0.0229 -0.2499 -0.0015
  146SAPE  H17X16161   6.821   2.122   8.345 -1.5082  0.6991  0.2168
  146SAPE  H17Y16162   6.761   2.042   8.490 -1.3645  0.0058 -2.2520
  146SAPE  C31816163   6.979   2.070   8.468 -0.3784  0.0686 -0.4290
  146SAPE  H18X16164   6.984   2.020   8.567  0.0473 -1.6362 -1.2750
  146SAPE  H18Y16165   7.042   2.161   8.459 -1.0089  0.7602  1.6095
  146SAPE  H18Z16166   7.007   1.991   8.395 -0.4103 -1.1975  0.8857
  147SAPE     N16167   1.961   4.892  10.855  0.5339 -0.2686 -0.2566
  147SAPE   HN116168   1.879   4.956  10.848 -0.1342 -1.0267  0.3988
  147SAPE   HN216169   1.922   4.810  10.906  1.6615 -0.4031  0.4137
  147SAPE   HN316170   2.032   4.941  10.913  3.2178  0.7127 -4.0515
  147SAPE   C1216171   2.025   4.862  10.722  0.0840 -0.6475  0.6683
  147SAPE  H12A16172   1.949   4.799  10.671 -0.3091  0.7843 -0.5831
  147SAPE  H12B16173   2.124   4.812  10.728 -0.1254 -1.7326 -2.5930
  147SAPE   C1116174   2.033   4.994  10.634  0.7753  0.5643 -0.4561
  147SAPE  H11A16175   1.938   5.051  10.642 -2.2734 -4.0632  0.2976
  147SAPE  H11B16176   2.057   4.973  10.528  0.1910  0.6827 -0.6178
  147SAPE     P16177   2.179   5.213  10.628 -0.3864 -0.4275  0.1118
  147SAPE   O1316178   2.090   5.316  10.680  0.5085  0.0991 -0.3771
  147SAPE   O1416179   2.325   5.229  10.653  0.6944  0.8444  0.0294
  147SAPE   O1216180   2.138   5.071  10.695 -0.7761 -0.2308  0.2751
  147SAPE   O1116181   2.168   5.187  10.470 -0.0572  0.6699  0.5370
  147SAPE    C116182   2.123   5.303  10.389  0.3490 -0.0494 -0.4903
  147SAPE    HA16183   2.148   5.406  10.422 -1.0473  0.0464  0.3352
  147SAPE    HB16184   2.175   5.290  10.292  1.2745  0.9122 -0.1456
  147SAPE    C216185   1.972   5.303  10.359 -0.7162 -0.3237  0.6260
  147SAPE    HS16186   1.938   5.351  10.453 -0.1364  0.0131  0.6662
  147SAPE   O2116187   1.929   5.165  10.345 -0.0313 -0.3021 -0.0782
  147SAPE   C2116188   1.810   5.131  10.371  0.7175  0.1767  0.9848
  147SAPE   O2216189   1.724   5.193  10.428  0.8359 -0.4190 -0.0085
  147SAPE   C2216190   1.781   4.987  10.315  0.8644 -0.1028  0.0111
  147SAPE   H2R16191   1.728   4.923  10.389 -0.5471  1.3217  0.2905
  147SAPE   H2S16192   1.712   4.992  10.228  1.0710 -4.4722 -0.6019
  147SAPE    C316193   1.924   5.399  10.244 -0.2886  0.1248 -0.2311
  147SAPE    HX16194   1.959   5.495  10.287  0.0273 -1.0144  2.2025
  147SAPE    HY16195   1.814   5.410  10.235 -0.3427  0.1343  0.4196
  147SAPE   O3116196   1.992   5.368  10.121  0.1404  0.3356  0.2640
  147SAPE   C3116197   1.924   5.292  10.036  0.5085 -0.1234  0.4351
  147SAPE   O3216198   1.807   5.263  10.037  0.7756 -0.4346 -0.5956
  147SAPE   C3216199   2.027   5.223   9.939  0.5834  0.2911 -0.1481
  147SAPE   H2X16200   2.036   5.118   9.973 -1.3962  0.1466  0.0157
  147SAPE   H2Y16201   2.127   5.272   9.945  1.3059 -1.2113  0.5719
  147SAPE   C2316202   1.909   4.921  10.250 -0.5174  0.8187 -0.7968
  147SAPE   H3R16203   1.993   4.908  10.321 -0.2954 -0.2500 -1.2333
  147SAPE   H3S16204   1.941   4.987  10.166  1.3181  1.3206  0.2483
  147SAPE   C2416205   1.876   4.776  10.203  0.2521 -0.3393  0.4393
  147SAPE   H4R16206   1.789   4.789  10.135  0.2659  0.6391  0.5845
  147SAPE   H4S16207   1.851   4.714  10.292  0.5557 -0.5540  0.3789
  147SAPE   C2516208   1.983   4.711  10.123  0.0258 -0.5371  0.1079
  147SAPE   H5R16209   2.079   4.720  10.175  1.4208 -2.9115 -1.8477
  147SAPE   C2616210   1.988   4.666   9.996 -0.4280  0.0062 -0.0907
  147SAPE   H6R16211   2.090   4.637   9.965  0.3636  1.2030  1.2767
  147SAPE   C2716212   1.877   4.661   9.891  0.0458  0.1679  0.0213
  147SAPE   H7R16213   1.891   4.753   9.830 -0.7291 -0.5398 -1.2883
  147SAPE   H7S16214   1.782   4.684   9.944 -0.7372  2.4074 -2.1670
  147SAPE   C2816215   1.866   4.542   9.795  0.3150  0.1406 -0.4633
  147SAPE   H8R16216   1.941   4.462   9.801 -1.6405 -1.7119  0.5272
  147SAPE   C2916217   1.755   4.512   9.723  0.2466 -0.4452  0.4922
  147SAPE   H9R16218   1.747   4.410   9.683 -0.6873  0.0894 -0.7873
  147SAPE  C21016219   1.629   4.597   9.700 -0.8987  0.1936 -0.4098
  147SAPE  H10R16220   1.620   4.661   9.610 -0.9869 -1.0320 -1.3013
  147SAPE  H10S16221   1.628   4.671   9.782 -2.8214 -1.0618  0.7907
  147SAPE  C21116222   1.508   4.505   9.703  0.2131  0.8967 -0.1423
  147SAPE  H11R16223   1.463   4.461   9.794  1.8624 -0.9742 -0.1323
  147SAPE  C21216224   1.446   4.479   9.592 -0.1223 -0.2761 -0.4438
  147SAPE  H12R16225   1.369   4.401   9.602  0.3893 -0.6448  0.7967
  147SAPE  C21316226   1.468   4.528   9.451 -0.2455 -0.8706  0.0284
  147SAPE  H13R16227   1.497   4.449   9.377 -1.4544 -2.1823  0.8860
  147SAPE  H13S16228   1.553   4.597   9.434 -1.8453  1.0890 -0.3938
  147SAPE  C21416229   1.359   4.625   9.407  0.0584 -0.4532  0.3434
  147SAPE  H14R16230   1.348   4.712   9.474 -0.4391  0.3244 -0.7213
  147SAPE  C21516231   1.281   4.617   9.300  0.0278  0.1738 -0.0585
  147SAPE  H15R16232   1.212   4.698   9.270 -2.2041 -2.0520 -1.3096
  147SAPE  C21616233   1.293   4.491   9.205  0.5558 -0.4746 -0.3572
  147SAPE  H16R16234   1.195   4.461   9.160  1.5007 -2.0515 -1.4558
  147SAPE  H16S16235   1.320   4.400   9.264 -0.6332 -1.2895 -1.0299
  147SAPE  C21716236   1.384   4.518   9.088  0.8566 -0.5427  1.0132
  147SAPE  H17R16237   1.401   4.420   9.039  1.6364 -0.5511  1.2827
  147SAPE  H17S16238   1.482   4.561   9.116  0.4674  1.3333 -0.3280
  147SAPE  C21816239   1.331   4.615   8.990 -0.3315 -0.0349  0.1232
  147SAPE  H18R16240   1.331   4.714   9.040 -0.2649  1.0302 -1.8882
  147SAPE  H18S16241   1.229   4.591   8.955 -0.4408  2.8564 -1.9042
  147SAPE  C21916242   1.421   4.627   8.866  1.1920  0.0236 -0.0584
  147SAPE  H19R16243   1.360   4.673   8.785  0.3203  0.0329  0.5833
  147SAPE  H19S16244   1.450   4.522   8.841  2.0990 -0.2919  2.1058
  147SAPE  C22016245   1.551   4.713   8.879 -0.2740 -0.4563  0.9462
  147SAPE  H20R16246   1.543   4.820   8.908 -0.7783 -0.0286 -0.6842
  147SAPE  H20S16247   1.604   4.704   8.782 -0.4377 -0.2703  0.8382
  147SAPE  H20T16248   1.626   4.661   8.943  0.3311 -1.2502 -0.3777
  147SAPE   C3316249   1.975   5.222   9.798  0.6283 -0.0370  0.6967
  147SAPE   H3X16250   2.055   5.245   9.725 -0.3614 -1.3426 -0.8821
  147SAPE   H3Y16251   1.900   5.301   9.775  2.4352  0.9063 -2.5231
  147SAPE   C3416252   1.940   5.079   9.746  0.7980  0.0154 -0.2468
  147SAPE   H4X16253   1.849   5.046   9.800  0.5571  1.8884  0.5695
  147SAPE   H4Y16254   2.021   5.012   9.780  0.8763  0.3545  0.2382
  147SAPE   C3516255   1.926   5.075   9.595 -0.9797  0.2886 -0.0125
  147SAPE   H5X16256   2.022   5.103   9.548 -2.3489 -0.0525 -3.2217
  147SAPE   H5Y16257   1.860   5.150   9.547 -0.0105  0.1526 -1.6020
  147SAPE   C3616258   1.879   4.935   9.551  0.2024 -0.2294 -0.0334
  147SAPE   H6X16259   1.797   4.890   9.610 -0.2220  0.0325 -0.4117
  147SAPE   H6Y16260   1.956   4.855   9.558 -0.8343 -1.1431  1.2626
  147SAPE   C3716261   1.813   4.941   9.414 -0.2945  0.4729 -0.4134
  147SAPE   H7X16262   1.880   4.989   9.338  1.3537 -0.3832  0.4406
  147SAPE   H7Y16263   1.716   4.995   9.417 -1.0726 -0.9337  0.3753
  147SAPE   C3816264   1.803   4.792   9.367  0.9836  0.3055  0.5181
  147SAPE   H8X16265   1.752   4.734   9.447  1.7676  0.6656  1.2909
  147SAPE   H8Y16266   1.910   4.762   9.374  0.6725 -0.5261  2.2221
  147SAPE   C3916267   1.741   4.774   9.225  0.9086 -0.3185  0.0163
  147SAPE   H9X16268   1.636   4.811   9.221  1.2423  0.7180  0.5493
  147SAPE   H9Y16269   1.735   4.667   9.195 -2.6685  0.0047 -0.8859
  147SAPE  C31016270   1.814   4.835   9.108 -0.0086  0.6913 -0.1355
  147SAPE  H10X16271   1.836   4.942   9.128  1.0332  1.2493 -3.5169
  147SAPE  H10Y16272   1.743   4.824   9.023 -1.7096  1.2196  1.1769
  147SAPE  C31116273   1.953   4.769   9.077  0.0622 -0.3714  0.1383
  147SAPE  H11X16274   1.931   4.661   9.090  1.9090 -1.0170 -1.6027
  147SAPE  H11Y16275   2.034   4.798   9.147 -0.4439 -0.3194  0.7103
  147SAPE  C31216276   2.007   4.783   8.930 -0.2386  0.4278 -0.2926
  147SAPE  H12X16277   2.036   4.889   8.911 -4.1292  1.9917  1.3551
  147SAPE  H12Y16278   1.919   4.759   8.865  0.2625  1.3225 -1.3423
  147SAPE  C31316279   2.125   4.684   8.891  0.5122  0.1434 -0.6789
  147SAPE  H13X16280   2.112   4.583   8.934  2.8782  0.1054  0.0549
  147SAPE  H13Y16281   2.215   4.731   8.935  1.1360 -1.3151 -0.3696
  147SAPE  C31416282   2.137   4.662   8.739 -0.0025 -0.2874 -0.4448
  147SAPE  H14X16283   2.234   4.614   8.712  0.5413  1.0108 -0.8771
  147SAPE  H14Y16284   2.139   4.760   8.688  0.2790 -1.6640 -3.2586
  147SAPE  C31516285   2.026   4.574   8.678 -0.4109 -0.9373 -0.3086
  147SAPE  H15X16286   1.928   4.624   8.689  0.0665  0.0504 -0.4094
  147SAPE  H15Y16287   2.031   4.476   8.729 -2.1589 -1.6600 -1.4455
  147SAPE  C31616288   2.049   4.551   8.533 -0.7079  0.3155 -0.3306
  147SAPE  H16X16289   2.144   4.499   8.507 -0.8525  0.8209 -1.9939
  147SAPE  H16Y16290   2.062   4.648   8.481 -0.4702 -0.1613 -1.1818
  147SAPE  C31716291   1.934   4.473   8.468  0.2428  0.3957  0.4291
  147SAPE  H17X16292   1.835   4.523   8.463  0.6896  1.2182 -0.3984
  147SAPE  H17Y16293   1.915   4.384   8.533  0.4055  0.1606  0.1567
  147SAPE  C31816294   1.972   4.424   8.321  0.4752 -0.3845  0.2951
  147SAPE  H18X16295   1.960   4.520   8.268  4.2616 -0.8743 -1.8197
  147SAPE  H18Y16296   1.897   4.347   8.294  0.2518  0.2314 -0.8715
  147SAPE  H18Z16297   2.077   4.388   8.312  2.0652  3.4895  1.4573
  148SAPE     N16298   2.359   0.298  10.717 -0.4337 -0.1428  0.5466
  148SAPE   HN116299   2.267   0.284  10.671 -0.5172  0.6255  0.4712
  148SAPE   HN216300   2.417   0.213  10.701 -0.1395  0.4883 -2.2110
  148SAPE   HN316301   2.337   0.312  10.818  1.5353 -1.3668  1.2056
  148SAPE   C1216302   2.420   0.419  10.650  0.4075  0.4320 -0.1929
  148SAPE  H12A16303   2.346   0.502  10.653  0.4940  0.4950  1.7547
  148SAPE  H12B16304   2.428   0.384  10.545 -1.8054 -0.2163 -0.1913
  148SAPE   C1116305   2.561   0.458  10.702 -0.4606  0.1838  0.3939
  148SAPE  H11A16306   2.559   0.482  10.811 -1.5177 -1.0586  0.6751
  148SAPE  H11B16307   2.589   0.555  10.656 -0.4842  0.8130  1.6663
  148SAPE     P16308   2.760   0.367  10.563  0.3705 -0.1191 -0.3280
  148SAPE   O1316309   2.831   0.495  10.581  0.3716  0.0286 -0.5673
  148SAPE   O1416310   2.846   0.249  10.564 -0.1012 -0.5299  0.6306
  148SAPE   O1216311   2.655   0.351  10.680  0.4718 -0.0816 -0.1147
  148SAPE   O1116312   2.661   0.385  10.440  0.2260  0.2922  0.0658
  148SAPE    C116313   2.607   0.268  10.375  0.3901 -0.1023  0.0065
  148SAPE    HA16314   2.564   0.195  10.447 -1.0287 -0.6659 -1.3432
  148SAPE    HB16315   2.536   0.293  10.293  0.7448 -1.8442 -0.8840
  148SAPE    C216316   2.708   0.180  10.298 -0.1133  0.4648  0.1314
  148SAPE    HS16317   2.771   0.127  10.373 -0.7019  0.2045  0.4491
  148SAPE   O2116318   2.776   0.276  10.220 -0.0809  0.3796 -0.0701
  148SAPE   C2116319   2.892   0.231  10.179  0.9444  0.4283 -0.2739
  148SAPE   O2216320   2.942   0.128  10.220  0.9892  0.3472  0.2474
  148SAPE   C2216321   2.959   0.318  10.075  0.2375 -0.7208  0.2659
  148SAPE   H2R16322   3.009   0.256   9.998 -3.2057 -0.6012 -2.3494
  148SAPE   H2S16323   2.891   0.390  10.023  0.8255 -0.1213  0.3180
  148SAPE    C316324   2.640   0.068  10.207 -0.6780  0.4146  0.1776
  148SAPE    HX16325   2.591  -0.001  10.279 -1.3365  0.5328 -0.1517
  148SAPE    HY16326   2.726   0.017  10.158 -1.3192 -1.6349  1.0820
  148SAPE   O3116327   2.540   0.113  10.120  0.1276  0.3415 -0.2343
  148SAPE   C3116328   2.573   0.150   9.998 -0.9650 -0.2771 -0.4010
  148SAPE   O3216329   2.688   0.154   9.952 -0.3333  0.0334 -0.0826
  148SAPE   C3216330   2.447   0.196   9.929 -0.5773  0.5099 -0.4183
  148SAPE   H2X16331   2.411   0.287   9.982  0.3720  0.6325  0.0400
  148SAPE   H2Y16332   2.369   0.118   9.945 -1.0965  1.0407 -0.3154
  148SAPE   C2316333   3.065   0.407  10.148 -1.1240 -0.0241 -0.4244
  148SAPE   H3R16334   3.116   0.343  10.223 -1.8846  0.1979  0.3110
  148SAPE   H3S16335   3.016   0.479  10.218  1.8247  2.1169 -0.3423
  148SAPE   C2416336   3.175   0.477  10.063  0.5848  0.3129  0.2398
  148SAPE   H4R16337   3.222   0.399  10.000 -2.6269 -0.2994 -1.6553
  148SAPE   H4S16338   3.251   0.513  10.135  0.7565 -1.2602  0.8802
  148SAPE   C2516339   3.114   0.598   9.995  0.1113 -0.4450  1.2184
  148SAPE   H5R16340   3.092   0.678  10.067 -0.6498  0.4936 -0.0166
  148SAPE   C2616341   3.070   0.621   9.872  0.0177  0.2146  0.7597
  148SAPE   H6R16342   3.012   0.714   9.860 -1.9928 -1.1079 -0.3556
  148SAPE   C2716343   3.071   0.532   9.753 -0.7706 -0.9185 -0.1245
  148SAPE   H7R16344   3.123   0.435   9.772  0.4799 -0.0581  1.0152
  148SAPE   H7S16345   3.132   0.580   9.674 -2.3457  2.0021  0.3092
  148SAPE   C2816346   2.927   0.511   9.707 -0.8032  0.3403  0.6956
  148SAPE   H8R16347   2.860   0.460   9.778 -1.0167  3.1411  2.6621
  148SAPE   C2916348   2.875   0.551   9.586 -0.0131  0.2844  0.0615
  148SAPE   H9R16349   2.770   0.534   9.560  0.4545  0.5987 -2.1916
  148SAPE  C21016350   2.954   0.618   9.474 -0.3873 -0.0907 -0.3513
  148SAPE  H10R16351   3.034   0.548   9.441 -0.6929  0.3590 -2.1594
  148SAPE  H10S16352   3.015   0.701   9.517 -2.0204  1.3290 -0.6828
  148SAPE  C21116353   2.886   0.684   9.357 -0.1441 -0.4506  0.5128
  148SAPE  H11R16354   2.861   0.790   9.370  0.1470 -0.3130 -0.0185
  148SAPE  C21216355   2.860   0.630   9.241  0.1686  0.7081 -0.2454
  148SAPE  H12R16356   2.806   0.695   9.171  1.4437  0.3146 -1.6529
  148SAPE  C21316357   2.899   0.490   9.210  0.4981 -0.5875 -0.2275
  148SAPE  H13R16358   2.902   0.431   9.304 -1.8023  0.5549  0.6338
  148SAPE  H13S16359   3.002   0.483   9.170 -0.3919 -1.5751 -2.5234
  148SAPE  C21416360   2.812   0.422   9.115 -0.0901  0.1813 -0.2644
  148SAPE  H14R16361   2.755   0.338   9.157  1.0280  0.0044  0.9626
  148SAPE  C21516362   2.791   0.446   8.982  0.3106 -0.3320 -0.0036
  148SAPE  H15R16363   2.718   0.381   8.933 -1.8278  2.5106 -0.8213
  148SAPE  C21616364   2.870   0.555   8.916  0.0708  0.0925  0.0979
  148SAPE  H16R16365   2.958   0.587   8.977 -0.1610 -0.3859  0.6986
  148SAPE  H16S16366   2.800   0.640   8.901  1.3287  1.1012 -0.2373
  148SAPE  C21716367   2.916   0.513   8.776  0.1985  0.2932  0.4063
  148SAPE  H17R16368   2.825   0.499   8.714  1.6879  0.5734 -1.9790
  148SAPE  H17S16369   2.975   0.419   8.778 -0.1126  0.0412 -1.1619
  148SAPE  C21816370   3.009   0.615   8.714  0.3345 -0.8992 -0.6613
  148SAPE  H18R16371   3.070   0.573   8.631  2.2217  0.3747 -0.0034
  148SAPE  H18S16372   3.078   0.646   8.796 -0.2151  0.0434 -0.5438
  148SAPE  C21916373   2.921   0.744   8.663 -0.2037  0.5515 -0.4687
  148SAPE  H19R16374   2.895   0.816   8.744  1.0593  1.4352 -0.8213
  148SAPE  H19S16375   2.827   0.709   8.616 -2.6986  3.5554  1.8409
  148SAPE  C22016376   2.999   0.826   8.561  0.3776 -0.8466 -0.2212
  148SAPE  H20R16377   3.071   0.762   8.506  0.5416 -2.0025  1.2617
  148SAPE  H20S16378   3.053   0.913   8.604  1.5239 -1.0183 -1.2543
  148SAPE  H20T16379   2.929   0.868   8.487 -0.8120  0.5066  1.5784
  148SAPE   C3316380   2.464   0.218   9.784 -0.1594  0.1211  0.1767
  148SAPE   H3X16381   2.480   0.122   9.729  0.8756  1.6268 -2.3458
  148SAPE   H3Y16382   2.554   0.279   9.761 -0.1585  0.8705  2.0114
  148SAPE   C3416383   2.352   0.292   9.714  0.2161 -0.4277  0.6466
  148SAPE   H4X16384   2.332   0.387   9.768 -0.0638 -0.5268  0.7177
  148SAPE   H4Y16385   2.261   0.230   9.726  0.9458 -1.9170 -1.2180
  148SAPE   C3516386   2.381   0.308   9.566 -0.3810  0.3105 -0.5572
  148SAPE   H5X16387   2.388   0.207   9.520 -1.6108  0.3191 -0.7983
  148SAPE   H5Y16388   2.479   0.357   9.553 -0.6170  0.7812 -0.5960
  148SAPE   C3616389   2.282   0.388   9.488  1.0955  0.0372  0.8974
  148SAPE   H6X16390   2.279   0.488   9.537  1.7254  0.3203  0.3720
  148SAPE   H6Y16391   2.179   0.347   9.500  0.4119  1.5164  0.3881
  148SAPE   C3716392   2.317   0.398   9.338  0.1782  0.3112 -0.1413
  148SAPE   H7X16393   2.424   0.417   9.316  0.8508 -2.8317 -0.1325
  148SAPE   H7Y16394   2.253   0.478   9.296 -1.6478 -0.0686  1.7660
  148SAPE   C3816395   2.279   0.271   9.256 -0.3120  0.7502  0.0229
  148SAPE   H8X16396   2.178   0.237   9.286 -0.0405 -0.3716 -0.2830
  148SAPE   H8Y16397   2.358   0.200   9.290 -0.6718  0.6305  0.6263
  148SAPE   C3916398   2.279   0.280   9.103  0.3771  1.2347  0.3097
  148SAPE   H9X16399   2.380   0.319   9.078  1.5029  0.0065  2.6126
  148SAPE   H9Y16400   2.198   0.352   9.081 -0.1380  0.3868 -0.6416
  148SAPE  C31016401   2.234   0.149   9.036 -0.6710 -0.6937 -0.1826
  148SAPE  H10X16402   2.297   0.060   9.053 -3.2172 -3.0501 -2.2058
  148SAPE  H10Y16403   2.228   0.174   8.928 -2.8296 -0.1923  0.0033
  148SAPE  C31116404   2.100   0.092   9.072 -0.1850 -0.3533  0.3051
  148SAPE  H11X16405   2.017   0.163   9.053  0.9535  0.9222 -0.0199
  148SAPE  H11Y16406   2.097   0.063   9.179  0.9095 -2.3370 -0.1513
  148SAPE  C31216407   2.064  -0.033   8.986  0.0988 -0.3636 -0.1182
  148SAPE  H12X16408   1.987  -0.088   9.045  0.3053 -0.0839  0.4130
  148SAPE  H12Y16409   2.160  -0.088   8.980  1.5251  2.0308 -0.7086
  148SAPE  C31316410   2.008   0.004   8.845  0.1697  0.2526 -0.9575
  148SAPE  H13X16411   2.087   0.060   8.790  0.8520  1.2873  0.9631
  148SAPE  H13Y16412   1.908   0.051   8.854 -0.8469 -1.5529 -2.1939
  148SAPE  C31416413   1.985  -0.120   8.760 -0.1607  0.0090  0.0023
  148SAPE  H14X16414   1.910  -0.180   8.816  1.6809 -0.6803  1.9173
  148SAPE  H14Y16415   2.076  -0.184   8.764 -0.5087 -0.4351  1.8786
  148SAPE  C31516416   1.928  -0.103   8.620 -0.2505  0.1764 -0.1367
  148SAPE  H15X16417   1.877  -0.005   8.611 -0.8451 -0.0818  0.3416
  148SAPE  H15Y16418   1.844  -0.176   8.610 -2.1828  2.0321  1.5246
  148SAPE  C31616419   2.039  -0.128   8.503  0.4577 -0.0868 -0.0472
  148SAPE  H16X16420   1.993  -0.139   8.402  1.1492  0.4120 -0.4235
  148SAPE  H16Y16421   2.082  -0.229   8.517  0.7406 -0.3610 -2.5093
  148SAPE  C31716422   2.161  -0.033   8.492 -0.6186 -0.1370 -0.1008
  148SAPE  H17X16423   2.208  -0.030   8.593 -0.9885 -1.5833  0.1412
  148SAPE  H17Y16424   2.132   0.068   8.455 -0.0544  1.0313  2.4240
  148SAPE  C31816425   2.269  -0.079   8.398 -0.2569  0.0878  0.3572
  148SAPE  H18X16426   2.237  -0.122   8.301  1.0125  3.6032 -1.8161
  148SAPE  H18Y16427   2.337  -0.149   8.451  0.2143  0.6176  0.4685
  148SAPE  H18Z16428   2.331   0.009   8.370 -0.8324  0.4016  0.0499
  149SAPE     N16429   4.823   3.542  10.659 -0.7383 -0.4489  0.1501
  149SAPE   HN116430   4.765   3.599  10.595 -1.8968 -1.2678  0.4298
  149SAPE   HN216431   4.785   3.551  10.756  3.1911 -2.2299  2.0985
  149SAPE   HN316432   4.918   3.582  10.650 -1.1029 -0.0613 -2.9312
  149SAPE   C1216433   4.825   3.395  10.619 -0.2256 -0.1531 -0.2719
  149SAPE  H12A16434   4.882   3.332  10.691 -0.1067 -1.3218 -1.3545
  149SAPE  H12B16435   4.886   3.397  10.526 -0.2678  3.4719 -0.3663
  149SAPE   C1116436   4.689   3.326  10.603  0.4780 -0.3410  0.1279
  149SAPE  H11A16437   4.713   3.221  10.577 -0.1721  0.0340 -2.2170
  149SAPE  H11B16438   4.630   3.363  10.516  2.8738  2.6795 -0.3768
  149SAPE     P16439   4.612   3.210  10.827 -0.5382  0.1199 -0.2809
  149SAPE   O1316440   4.755   3.183  10.861  0.4416 -0.0116 -0.6136
  149SAPE   O1416441   4.525   3.259  10.937 -0.2990 -0.3681  0.4457
  149SAPE   O1216442   4.608   3.332  10.718 -0.5750 -0.9676 -0.6321
  149SAPE   O1116443   4.547   3.092  10.747  0.3794 -0.1895 -0.3323
  149SAPE    C116444   4.570   2.954  10.779 -0.2802 -0.2326 -0.0461
  149SAPE    HA16445   4.579   2.941  10.889 -2.1273  0.1811  0.1820
  149SAPE    HB16446   4.485   2.895  10.739  0.0298 -1.9592  1.7134
  149SAPE    C216447   4.694   2.910  10.695 -0.6118 -0.7457  0.3333
  149SAPE    HS16448   4.778   2.980  10.718  0.8963 -2.6854  0.9991
  149SAPE   O2116449   4.666   2.908  10.560  0.1241  0.3856  0.5071
  149SAPE   C2116450   4.761   2.939  10.473  0.2430 -0.5795 -0.3438
  149SAPE   O2216451   4.877   2.958  10.501 -0.3889  0.1229 -0.5608
  149SAPE   C2216452   4.712   2.940  10.332 -0.8206  1.1416 -0.3078
  149SAPE   H2R16453   4.713   2.836  10.291  0.6980  0.9934  0.0646
  149SAPE   H2S16454   4.608   2.979  10.334 -0.4226  2.2355 -0.1905
  149SAPE    C316455   4.748   2.778  10.751  0.1088  0.3669  0.1527
  149SAPE    HX16456   4.757   2.788  10.861  1.9456 -1.0189  0.1767
  149SAPE    HY16457   4.851   2.763  10.713 -0.2651 -3.1132  0.2345
  149SAPE   O3116458   4.660   2.669  10.729  0.0756  0.3278 -0.0702
  149SAPE   C3116459   4.684   2.590  10.624 -0.4697  0.2880  0.5642
  149SAPE   O3216460   4.789   2.582  10.561 -0.3144 -0.2529 -0.2965
  149SAPE   C3216461   4.554   2.511  10.600  0.0545 -0.2609 -0.5586
  149SAPE   H2X16462   4.520   2.476  10.699  2.4566  0.4006  0.5672
  149SAPE   H2Y16463   4.567   2.421  10.536 -0.0930  0.6711 -1.9523
  149SAPE   C2316464   4.792   3.045  10.246  0.5011  0.5700  0.0106
  149SAPE   H3R16465   4.898   3.012  10.241  0.0806 -0.7064 -0.7230
  149SAPE   H3S16466   4.798   3.144  10.296 -1.9346  0.2710  1.0319
  149SAPE   C2416467   4.739   3.071  10.109 -0.0735 -0.3153 -0.1292
  149SAPE   H4R16468   4.758   3.177  10.079 -0.6264 -0.3190 -0.5166
  149SAPE   H4S16469   4.628   3.066  10.120  0.0168  1.7703  2.9575
  149SAPE   C2516470   4.782   2.966  10.014  0.5754 -0.5476  1.0701
  149SAPE   H5R16471   4.849   2.888  10.054  0.4325 -1.4432 -0.3727
  149SAPE   C2616472   4.757   2.968   9.880 -0.0509 -1.1128  0.1678
  149SAPE   H6R16473   4.803   2.890   9.817  2.3877  0.4849 -0.1371
  149SAPE   C2716474   4.685   3.087   9.810 -0.9931  0.3437 -0.4360
  149SAPE   H7R16475   4.624   3.149   9.879  1.6691  3.0482 -0.2865
  149SAPE   H7S16476   4.619   3.053   9.728  0.0871  1.8780 -1.9905
  149SAPE   C2816477   4.786   3.182   9.748  0.7364 -0.4630 -0.4201
  149SAPE   H8R16478   4.889   3.169   9.783  1.4084 -1.5772 -2.6022
  149SAPE   C2916479   4.761   3.272   9.652  0.3089 -0.9153  0.1366
  149SAPE   H9R16480   4.848   3.332   9.621 -1.1446  0.7774 -0.8831
  149SAPE  C21016481   4.631   3.293   9.578 -0.2139  0.3287  0.2368
  149SAPE  H10R16482   4.582   3.387   9.611 -1.3584 -0.1046 -0.1766
  149SAPE  H10S16483   4.555   3.217   9.606  0.8640 -0.3013  1.5372
  149SAPE  C21116484   4.633   3.305   9.424  0.1527 -0.2497  0.0928
  149SAPE  H11R16485   4.600   3.216   9.369 -1.1548 -0.9002  1.8106
  149SAPE  C21216486   4.694   3.402   9.350 -0.2678 -0.1318 -0.2789
  149SAPE  H12R16487   4.681   3.401   9.240  0.2994 -0.5100 -0.3443
  149SAPE  C21316488   4.767   3.518   9.408  0.2320  0.5971  0.4554
  149SAPE  H13R16489   4.770   3.510   9.519  1.3324 -2.3270  0.3258
  149SAPE  H13S16490   4.707   3.609   9.390 -0.2325 -0.1354 -2.0648
  149SAPE  C21416491   4.906   3.520   9.367 -0.8403 -0.1121 -0.0648
  149SAPE  H14R16492   4.978   3.446   9.406  1.7789  1.1453 -2.1639
  149SAPE  C21516493   4.948   3.605   9.271  0.2591 -0.4440  0.0862
  149SAPE  H15R16494   5.057   3.595   9.253  0.6326  1.0510  1.2678
  149SAPE  C21616495   4.862   3.702   9.188 -0.3421  0.4602 -0.5914
  149SAPE  H16R16496   4.915   3.799   9.174  0.6471 -0.1625 -1.2929
  149SAPE  H16S16497   4.767   3.730   9.237  1.3502  2.0999  1.9974
  149SAPE  C21716498   4.835   3.637   9.054 -0.7348  0.2228 -0.2287
  149SAPE  H17R16499   4.739   3.680   9.017 -0.2751  1.0526 -0.4809
  149SAPE  H17S16500   4.806   3.529   9.060  1.5320 -0.3590  1.3934
  149SAPE  C21816501   4.937   3.660   8.942 -0.5920  0.5037  0.0016
  149SAPE  H18R16502   5.027   3.596   8.955 -0.7764  0.1307 -0.5222
  149SAPE  H18S16503   4.972   3.765   8.951  2.2402 -0.3055 -0.4028
  149SAPE  C21916504   4.872   3.643   8.797 -0.5114  0.1020  0.3478
  149SAPE  H19R16505   4.937   3.694   8.722 -0.0512  2.3610  2.1588
  149SAPE  H19S16506   4.776   3.698   8.806 -1.7963 -2.0611  0.5677
  149SAPE  C22016507   4.854   3.494   8.763  0.4879  0.7907  0.2645
  149SAPE  H20R16508   4.808   3.440   8.848  1.2453  3.1444  2.2945
  149SAPE  H20S16509   4.940   3.436   8.725  0.7293  2.2222 -1.5385
  149SAPE  H20T16510   4.776   3.481   8.685 -1.1376 -1.8472  2.1598
  149SAPE   C3316511   4.445   2.595  10.536  0.8463 -0.0546 -0.3852
  149SAPE   H3X16512   4.439   2.695  10.583 -4.3664 -1.5081  2.8204
  149SAPE   H3Y16513   4.347   2.555  10.570  0.0360 -0.5142 -3.0133
  149SAPE   C3416514   4.442   2.601  10.384  0.5771  0.7619 -0.1599
  149SAPE   H4X16515   4.548   2.606  10.354  0.3101 -0.9952 -1.5005
  149SAPE   H4Y16516   4.393   2.690  10.338 -1.2186 -1.6985 -3.3772
  149SAPE   C3516517   4.391   2.464  10.329  0.2899  0.2818  0.5777
  149SAPE   H5X16518   4.423   2.375  10.387 -1.9027 -0.7444  0.3143
  149SAPE   H5Y16519   4.449   2.454  10.235  1.3181 -0.4776  1.2670
  149SAPE   C3616520   4.231   2.457  10.299 -0.5376  1.0708 -0.4848
  149SAPE   H6X16521   4.194   2.542  10.238 -4.1915 -0.3227 -0.4758
  149SAPE   H6Y16522   4.180   2.467  10.397  0.2985 -0.1791  0.0961
  149SAPE   C3716523   4.185   2.329  10.224  0.4044 -0.5472 -0.3367
  149SAPE   H7X16524   4.074   2.341  10.225  0.4342 -0.1651  0.9158
  149SAPE   H7Y16525   4.206   2.240  10.287 -0.4358 -1.3290 -1.1435
  149SAPE   C3816526   4.236   2.330  10.079 -0.5950  0.9544 -0.0937
  149SAPE   H8X16527   4.209   2.229  10.042 -0.6872  1.0728 -0.3514
  149SAPE   H8Y16528   4.347   2.320  10.083 -0.5798  0.1321 -1.9853
  149SAPE   C3916529   4.196   2.444   9.982 -0.6522  0.8076 -0.2172
  149SAPE   H9X16530   4.270   2.523  10.008 -1.7366  1.9597 -0.5791
  149SAPE   H9Y16531   4.103   2.499  10.008 -0.6229  0.4778  0.6297
  149SAPE  C31016532   4.214   2.396   9.833 -0.3531  0.5903 -0.1109
  149SAPE  H10X16533   4.141   2.315   9.811 -1.8686  1.7717  0.3651
  149SAPE  H10Y16534   4.316   2.352   9.828  0.8451  3.1193  0.3562
  149SAPE  C31116535   4.187   2.513   9.730 -0.5834  0.3496 -0.4350
  149SAPE  H11X16536   4.265   2.591   9.738 -0.4641  0.1860  0.0146
  149SAPE  H11Y16537   4.085   2.555   9.742 -1.2394 -1.5604  1.3124
  149SAPE  C31216538   4.193   2.458   9.589  0.3773 -0.1693 -0.6615
  149SAPE  H12X16539   4.111   2.383   9.582 -2.4145  2.5963 -0.2118
  149SAPE  H12Y16540   4.289   2.404   9.576  1.3891  1.8544 -2.2473
  149SAPE  C31316541   4.176   2.555   9.476 -0.2454  0.5327 -0.1094
  149SAPE  H13X16542   4.254   2.633   9.487 -2.1337  2.4777  0.4048
  149SAPE  H13Y16543   4.075   2.603   9.480  0.1134  1.6322 -2.6711
  149SAPE  C31416544   4.194   2.495   9.336  0.3654 -0.2597 -0.0267
  149SAPE  H14X16545   4.135   2.401   9.335 -0.8778  0.4116 -3.6715
  149SAPE  H14Y16546   4.303   2.481   9.326  0.7087  0.6432  1.9095
  149SAPE  C31516547   4.148   2.578   9.217 -0.2316 -0.3438  0.2359
  149SAPE  H15X16548   4.202   2.675   9.229 -1.6349  0.2248  2.5783
  149SAPE  H15Y16549   4.044   2.614   9.230  0.4971  1.5276  1.2724
  149SAPE  C31616550   4.164   2.514   9.081 -0.1884  0.3399  0.0439
  149SAPE  H16X16551   4.122   2.411   9.082 -0.0443  0.2723  1.6970
  149SAPE  H16Y16552   4.273   2.512   9.059  0.0819 -2.2781  1.2377
  149SAPE  C31716553   4.093   2.584   8.968  0.2627 -0.8358 -0.2907
  149SAPE  H17X16554   4.140   2.683   8.952 -0.0495 -0.5280  0.6776
  149SAPE  H17Y16555   3.988   2.597   9.002 -0.1258 -1.8792 -1.0321
  149SAPE  C31816556   4.095   2.505   8.837  0.4747 -0.9123  0.3979
  149SAPE  H18X16557   4.033   2.553   8.758 -1.7375 -1.9418  1.4136
  149SAPE  H18Y16558   4.047   2.406   8.847 -0.0945 -0.7819 -0.8355
  149SAPE  H18Z16559   4.198   2.486   8.803  0.1036  2.3264 -3.3389
  150SAPE     N16560   0.042   1.526  10.910  0.6414 -0.3980 -0.1048
  150SAPE   HN116561  -0.050   1.512  10.957  1.6466 -2.6750  1.3906
  150SAPE   HN216562   0.036   1.575  10.819  0.1716  0.0977  0.1869
  150SAPE   HN316563   0.086   1.433  10.899 -2.6114 -2.1182  0.2651
  150SAPE   C1216564   0.121   1.624  10.996 -0.2440 -0.1455 -0.1823
  150SAPE  H12A16565   0.122   1.601  11.105  0.0065  0.2226 -0.1037
  150SAPE  H12B16566   0.067   1.721  10.990 -0.9645 -0.5442 -0.2536
  150SAPE   C1116567   0.269   1.631  10.947 -0.3533  0.2248  0.3663
  150SAPE  H11A16568   0.299   1.524  10.941  0.9197  0.6499 -1.2021
  150SAPE  H11B16569   0.334   1.681  11.022 -0.1467  0.6551 -0.0941
  150SAPE     P16570   0.402   1.659  10.722 -0.1745 -0.3559  0.1038
  150SAPE   O1316571   0.394   1.743  10.602  0.0653 -0.3715  0.4039
  150SAPE   O1416572   0.527   1.675  10.800  0.0808 -0.1906 -0.2725
  150SAPE   O1216573   0.274   1.687  10.815 -0.2435 -0.2869  0.3935
  150SAPE   O1116574   0.386   1.508  10.675  0.9451 -0.0774 -0.6389
  150SAPE    C116575   0.276   1.478  10.588 -0.6244 -0.8991 -0.4228
  150SAPE    HA16576   0.256   1.372  10.615  2.7578 -1.1775  1.5934
  150SAPE    HB16577   0.181   1.526  10.621 -0.1826 -0.8313  0.8106
  150SAPE    C216578   0.326   1.485  10.443 -0.3458 -0.1674  0.1167
  150SAPE    HS16579   0.379   1.578  10.414  1.1115 -1.1294 -0.4244
  150SAPE   O2116580   0.217   1.451  10.354  0.8451  0.8384 -0.3355
  150SAPE   C2116581   0.112   1.542  10.356 -0.8586  0.0207 -0.0094
  150SAPE   O2216582   0.107   1.648  10.416  0.0988  0.6124 -0.2032
  150SAPE   C2216583  -0.002   1.471  10.286 -0.6704  0.5657  0.8344
  150SAPE   H2R16584   0.022   1.390  10.213 -0.5005 -0.4526  1.9837
  150SAPE   H2S16585  -0.069   1.428  10.363 -0.9393 -0.8265 -0.1351
  150SAPE    C316586   0.443   1.395  10.415 -0.4988  0.1379  0.5163
  150SAPE    HX16587   0.425   1.297  10.464  0.3644  0.8965  2.4387
  150SAPE    HY16588   0.534   1.442  10.458 -1.5260  2.5101  0.2890
  150SAPE   O3116589   0.466   1.381  10.270 -0.1752  0.2014  0.1490
  150SAPE   C3116590   0.496   1.483  10.198 -0.4369 -0.6331  0.1356
  150SAPE   O3216591   0.520   1.599  10.240  0.1519  0.1273  0.2562
  150SAPE   C3216592   0.512   1.444  10.047  0.1305  0.5429 -0.3506
  150SAPE   H2X16593   0.516   1.333  10.038 -1.6814  0.3118  1.2238
  150SAPE   H2Y16594   0.614   1.483  10.026  1.1973 -1.1413  1.3625
  150SAPE   C2316595  -0.088   1.577  10.216  0.8770 -0.4030  0.2295
  150SAPE   H3R16596  -0.028   1.640  10.146 -1.5624  0.8341 -0.8615
  150SAPE   H3S16597  -0.127   1.649  10.291  0.0456 -0.7402  0.1279
  150SAPE   C2416598  -0.224   1.535  10.141  0.1255 -0.6081  0.0078
  150SAPE   H4R16599  -0.273   1.631  10.112 -1.2454 -0.9539  1.0334
  150SAPE   H4S16600  -0.296   1.481  10.207 -0.3116  0.4591  0.4276
  150SAPE   C2516601  -0.190   1.461  10.016 -0.1702  0.0453 -0.7889
  150SAPE   H5R16602  -0.087   1.422  10.021 -0.5524 -1.0169  3.8089
  150SAPE   C2616603  -0.269   1.457   9.903 -0.4737  0.5821  0.2297
  150SAPE   H6R16604  -0.237   1.397   9.817 -0.5571  0.4454  0.2945
  150SAPE   C2716605  -0.410   1.520   9.888 -0.5169  0.3260  0.3525
  150SAPE   H7R16606  -0.407   1.591   9.803 -1.1383  1.4596  1.2525
  150SAPE   H7S16607  -0.437   1.586   9.973 -2.3349 -1.0510  0.9050
  150SAPE   C2816608  -0.517   1.416   9.872  0.4898 -0.5355  0.5122
  150SAPE   H8R16609  -0.553   1.377   9.968  1.3733  0.1171  1.1323
  150SAPE   C2916610  -0.576   1.371   9.760  0.6069  0.1707  0.0084
  150SAPE   H9R16611  -0.661   1.302   9.772 -0.0552  0.9720  0.0413
  150SAPE  C21016612  -0.546   1.412   9.618 -0.1598  0.3055 -0.4218
  150SAPE  H10R16613  -0.481   1.335   9.570  2.3309  3.1249 -1.9415
  150SAPE  H10S16614  -0.472   1.495   9.618 -0.5042  0.6176 -0.1201
  150SAPE  C21116615  -0.668   1.449   9.546  0.3402 -0.4644  0.2513
  150SAPE  H11R16616  -0.755   1.483   9.605  1.0906  4.3825 -1.0018
  150SAPE  C21216617  -0.696   1.466   9.419  0.6525  0.8403 -0.0879
  150SAPE  H12R16618  -0.796   1.500   9.392  2.0508  4.8466 -0.9170
  150SAPE  C21316619  -0.589   1.443   9.316  0.1170 -0.2612 -0.1851
  150SAPE  H13R16620  -0.492   1.469   9.362 -0.6407 -0.5792  1.6570
  150SAPE  H13S16621  -0.613   1.518   9.237  1.7164  2.8362  2.0765
  150SAPE  C21416622  -0.588   1.308   9.256 -0.5751  0.5451  0.3045
  150SAPE  H14R16623  -0.532   1.234   9.315  1.3248  1.6953  0.0321
  150SAPE  C21516624  -0.621   1.283   9.124  0.5473  0.1688 -0.0640
  150SAPE  H15R16625  -0.606   1.181   9.086  1.7831  0.0350  0.7309
  150SAPE  C21616626  -0.675   1.383   9.027 -0.1033  0.3963  0.3969
  150SAPE  H16R16627  -0.667   1.344   8.923  0.7217  2.4326 -0.3522
  150SAPE  H16S16628  -0.610   1.473   9.029 -1.0457  1.1738 -1.4338
  150SAPE  C21716629  -0.826   1.410   9.054  0.1431  0.7211 -0.1995
  150SAPE  H17R16630  -0.827   1.470   9.147 -1.1177  0.8830 -0.3039
  150SAPE  H17S16631  -0.881   1.316   9.076  3.4202 -1.3991 -0.2958
  150SAPE  C21816632  -0.893   1.473   8.937  0.1853  0.4898 -0.0023
  150SAPE  H18R16633  -0.999   1.492   8.966 -1.0705 -1.0783 -3.0512
  150SAPE  H18S16634  -0.893   1.408   8.847  0.6035  0.9955 -0.3775
  150SAPE  C21916635  -0.826   1.604   8.875 -0.5424  0.3660  0.1665
  150SAPE  H19R16636  -0.882   1.636   8.784  3.0929  2.9695 -1.4218
  150SAPE  H19S16637  -0.723   1.576   8.844 -0.7956 -0.6280  0.1827
  150SAPE  C22016638  -0.818   1.721   8.971  0.0498 -0.1613 -0.9185
  150SAPE  H20R16639  -0.913   1.773   8.995  1.1149  0.9830  1.0679
  150SAPE  H20S16640  -0.752   1.802   8.932 -1.0908  0.7789 -0.9539
  150SAPE  H20T16641  -0.769   1.697   9.068  0.0107 -1.3313 -1.1789
  150SAPE   C3316642   0.406   1.501   9.954  0.7774 -0.3162 -0.0284
  150SAPE   H3X16643   0.419   1.462   9.851 -2.1393 -0.7491 -0.3293
  150SAPE   H3Y16644   0.416   1.610   9.936 -0.3633  0.0556  1.3968
  150SAPE   C3416645   0.261   1.468  10.003  0.4444 -0.6778  0.3557
  150SAPE   H4X16646   0.195   1.510   9.925 -1.1445 -0.4566  1.7514
  150SAPE   H4Y16647   0.235   1.517  10.100  2.2569  0.0265  0.5363
  150SAPE   C3516648   0.223   1.324  10.010 -0.4497  0.3352  0.6244
  150SAPE   H5X16649   0.114   1.310  10.024 -0.6824  1.0568 -0.3447
  150SAPE   H5Y16650   0.280   1.281  10.095  2.8411  1.5299 -0.7974
  150SAPE   C3616651   0.280   1.234   9.904  0.1508 -0.0363 -0.4854
  150SAPE   H6X16652   0.277   1.129   9.940  0.6207 -0.3798 -1.4141
  150SAPE   H6Y16653   0.386   1.255   9.878 -0.0780  0.2280 -1.2279
  150SAPE   C3716654   0.205   1.243   9.767 -0.5111 -0.4715 -0.4215
  150SAPE   H7X16655   0.261   1.187   9.689 -2.9572 -2.5942 -0.7944
  150SAPE   H7Y16656   0.206   1.351   9.743 -3.1899 -0.3318 -0.2496
  150SAPE   C3816657   0.056   1.191   9.778  0.4298  0.3942  0.8074
  150SAPE   H8X16658   0.008   1.206   9.877 -0.3164  1.1732  0.3488
  150SAPE   H8Y16659   0.069   1.084   9.750 -0.5117  0.0764  1.5491
  150SAPE   C3916660  -0.041   1.256   9.678 -0.0539 -0.1850  0.5823
  150SAPE   H9X16661  -0.061   1.357   9.720  0.8973 -0.5572  2.0049
  150SAPE   H9Y16662  -0.128   1.188   9.683  0.2243 -0.6513 -0.6289
  150SAPE  C31016663   0.000   1.256   9.525  0.1634  0.5547 -0.7877
  150SAPE  H10X16664   0.029   1.155   9.488 -0.6325  1.0977 -3.1071
  150SAPE  H10Y16665   0.091   1.316   9.503  0.5634 -0.4108 -1.8973
  150SAPE  C31116666  -0.121   1.291   9.436 -0.7725  0.0873  0.3933
  150SAPE  H11X16667  -0.169   1.382   9.477 -1.8221  0.7466 -2.1465
  150SAPE  H11Y16668  -0.198   1.212   9.431  0.4739 -1.1258 -0.3456
  150SAPE  C31216669  -0.072   1.314   9.292 -0.3489 -0.0533 -0.3851
  150SAPE  H12X16670  -0.027   1.218   9.257  2.2666  0.5120  1.1744
  150SAPE  H12Y16671   0.010   1.389   9.291 -0.6047  0.2286 -0.3940
  150SAPE  C31316672  -0.187   1.362   9.201 -0.0653  0.4743  0.1591
  150SAPE  H13X16673  -0.233   1.448   9.254  1.5363  0.7803  1.1125
  150SAPE  H13Y16674  -0.253   1.272   9.197 -0.3804  0.7277 -0.3327
  150SAPE  C31416675  -0.143   1.401   9.062 -0.7677  0.2564 -0.0068
  150SAPE  H14X16676  -0.125   1.311   8.999  0.5829  0.1593  0.4799
  150SAPE  H14Y16677  -0.050   1.461   9.072 -0.5876  0.3115 -1.7642
  150SAPE  C31516678  -0.238   1.487   8.986  0.6438 -0.4439  0.3569
  150SAPE  H15X16679  -0.235   1.597   9.007  1.1963 -0.2619 -0.6295
  150SAPE  H15Y16680  -0.338   1.447   9.013  1.4315 -1.6867  1.5500
  150SAPE  C31616681  -0.236   1.465   8.830 -0.0617 -0.1923 -0.1726
  150SAPE  H16X16682  -0.310   1.540   8.795 -0.5508 -0.9496 -0.8098
  150SAPE  H16Y16683  -0.269   1.363   8.800 -0.6413  0.8598 -3.5737
  150SAPE  C31716684  -0.105   1.507   8.766 -0.2340 -0.6841  0.3192
  150SAPE  H17X16685  -0.024   1.440   8.801  0.7728  0.8948  1.1103
  150SAPE  H17Y16686  -0.074   1.609   8.796 -1.5207  0.1169 -0.9185
  150SAPE  C31816687  -0.102   1.507   8.613 -0.4262 -0.1249  0.1069
  150SAPE  H18X16688  -0.117   1.403   8.577 -0.8874 -0.2645  0.6867
  150SAPE  H18Y16689  -0.003   1.540   8.577 -0.3176 -1.8085 -1.2835
  150SAPE  H18Z16690  -0.166   1.576   8.554  1.2661 -2.5797 -5.2977
  151SAPE     N16691   4.184   4.628  10.693 -0.7936 -0.3287  0.2389
  151SAPE   HN116692   4.181   4.666  10.790 -2.9943 -0.0871  0.1246
  151SAPE   HN216693   4.139   4.699  10.632 -2.4374 -1.8274 -0.3773
  151SAPE   HN316694   4.126   4.542  10.692 -1.7608  0.3001  0.5123
  151SAPE   C1216695   4.328   4.610  10.648 -0.0058  0.5481  0.7277
  151SAPE  H12A16696   4.355   4.502  10.652  0.8568  0.7195 -0.0773
  151SAPE  H12B16697   4.397   4.656  10.722  2.1523 -1.4578  0.0713
  151SAPE   C1116698   4.350   4.667  10.507 -0.2377 -0.1080 -0.5436
  151SAPE  H11A16699   4.322   4.597  10.426  1.7793 -0.2286 -1.1912
  151SAPE  H11B16700   4.459   4.666  10.485  0.2251 -1.6161  1.4678
  151SAPE     P16701   4.365   4.924  10.435 -0.6227 -0.0403 -0.4007
  151SAPE   O1316702   4.289   5.040  10.488  0.1602 -0.4173 -0.6530
  151SAPE   O1416703   4.510   4.908  10.474  0.4531 -0.5880 -0.7179
  151SAPE   O1216704   4.289   4.796  10.493  0.1469 -0.0434  0.3615
  151SAPE   O1116705   4.345   4.900  10.285 -0.0134 -0.0663  0.7960
  151SAPE    C116706   4.225   4.943  10.217 -0.3971  0.2613 -0.7737
  151SAPE    HA16707   4.183   5.035  10.263  0.0810  0.0483  0.1104
  151SAPE    HB16708   4.252   4.981  10.116 -0.9425  1.5523 -0.4541
  151SAPE    C216709   4.110   4.840  10.207 -0.2898 -0.2335 -0.6584
  151SAPE    HS16710   4.061   4.837  10.307 -0.1044  1.3703 -0.5009
  151SAPE   O2116711   4.164   4.720  10.158  0.0777  0.2152  0.8546
  151SAPE   C2116712   4.118   4.610  10.211  0.3341 -0.0984 -0.7654
  151SAPE   O2216713   4.036   4.597  10.306 -0.4366 -0.4642 -0.0590
  151SAPE   C2216714   4.185   4.487  10.141  0.2507  0.0951 -0.3765
  151SAPE   H2R16715   4.116   4.403  10.167  1.1145 -0.1344  1.3462
  151SAPE   H2S16716   4.178   4.503  10.031 -1.3249  1.9786 -0.0425
  151SAPE    C316717   4.001   4.887  10.109  0.0504  0.3523 -0.3246
  151SAPE    HX16718   3.955   4.980  10.149  0.8601  1.7698 -2.5274
  151SAPE    HY16719   3.917   4.814  10.103 -1.0520  1.5300  0.3487
  151SAPE   O3116720   4.064   4.924   9.988  0.9067 -0.4576 -0.4276
  151SAPE   C3116721   4.072   4.844   9.883  0.1617  0.5146 -0.2996
  151SAPE   O3216722   4.028   4.731   9.887  0.0405  0.1573  0.0827
  151SAPE   C3216723   4.134   4.926   9.768 -0.1631  0.1986 -0.1016
  151SAPE   H2X16724   4.244   4.939   9.777  0.5533 -2.7309 -2.7894
  151SAPE   H2Y16725   4.078   5.021   9.761 -0.6470  0.0536  1.4389
  151SAPE   C2316726   4.336   4.468  10.166 -0.2841  0.2963  0.2411
  151SAPE   H3R16727   4.362   4.445  10.272  2.8004 -0.5129 -0.5888
  151SAPE   H3S16728   4.395   4.559  10.147  1.3452 -0.5393  1.0595
  151SAPE   C2416729   4.392   4.341  10.083  0.2601  0.3432 -0.2076
  151SAPE   H4R16730   4.503   4.334  10.087  0.2059 -1.0046 -0.7073
  151SAPE   H4S16731   4.366   4.348   9.976  1.8956  2.3982 -0.5439
  151SAPE   C2516732   4.334   4.219  10.148  0.1047  0.9617  0.2592
  151SAPE   H5R16733   4.328   4.221  10.258  1.3623 -0.2516  0.3780
  151SAPE   C2616734   4.297   4.107  10.084  0.8077 -0.3669  0.5713
  151SAPE   H6R16735   4.244   4.029  10.141 -1.4047  1.0889  0.6120
  151SAPE   C2716736   4.301   4.089   9.935  0.0364  0.7122  0.6760
  151SAPE   H7R16737   4.354   3.993   9.917 -1.8498 -0.3410  0.3959
  151SAPE   H7S16738   4.368   4.156   9.877 -0.9131  0.6605 -0.5187
  151SAPE   C2816739   4.165   4.080   9.861  0.0109  0.4019 -0.4621
  151SAPE   H8R16740   4.101   4.168   9.873  1.3205  1.5251 -1.4096
  151SAPE   C2916741   4.114   3.978   9.794 -0.2974  0.4714 -0.3677
  151SAPE   H9R16742   4.015   3.993   9.747 -1.5130 -0.8907  1.6075
  151SAPE  C21016743   4.179   3.841   9.784  0.1017 -0.5339  0.6656
  151SAPE  H10R16744   4.201   3.804   9.886  1.1021  1.1070  1.0811
  151SAPE  H10S16745   4.275   3.853   9.728  0.3548 -1.9205  0.7729
  151SAPE  C21116746   4.081   3.748   9.715  0.0499 -0.5226  0.6211
  151SAPE  H11R16747   3.993   3.719   9.775 -0.8449  0.1466 -0.3300
  151SAPE  C21216748   4.105   3.689   9.594  0.3654 -0.3104  0.0068
  151SAPE  H12R16749   4.031   3.615   9.560  0.1384  0.2496 -0.7415
  151SAPE  C21316750   4.236   3.715   9.519  0.7381  0.1436 -0.3526
  151SAPE  H13R16751   4.322   3.691   9.585 -0.7763 -2.8797  0.7243
  151SAPE  H13S16752   4.240   3.821   9.487  0.7496 -0.2719 -1.7985
  151SAPE  C21416753   4.261   3.630   9.397 -0.0216  0.0012 -0.5861
  151SAPE  H14R16754   4.267   3.528   9.438  0.4732  0.4591  0.5251
  151SAPE  C21516755   4.266   3.661   9.269 -0.1803 -0.6449 -0.3179
  151SAPE  H15R16756   4.268   3.580   9.195 -2.2732  0.4301 -1.6456
  151SAPE  C21616757   4.252   3.802   9.206  0.6002 -0.7182 -0.7393
  151SAPE  H16R16758   4.250   3.878   9.287  1.6886  0.7369 -2.0299
  151SAPE  H16S16759   4.168   3.808   9.134  1.6458 -1.5898 -2.0833
  151SAPE  C21716760   4.377   3.824   9.113 -0.6792  0.3150  0.1170
  151SAPE  H17R16761   4.376   3.750   9.031 -0.3682  0.9758 -0.4896
  151SAPE  H17S16762   4.477   3.826   9.161  0.1705  0.6002 -1.6199
  151SAPE  C21816763   4.359   3.955   9.022 -0.5082  0.8404 -0.2632
  151SAPE  H18R16764   4.286   4.030   9.061 -1.3907 -1.2109  2.3443
  151SAPE  H18S16765   4.318   3.928   8.923  3.4148 -0.1237 -1.7904
  151SAPE  C21916766   4.498   4.006   8.976  0.1920  0.1873 -0.5700
  151SAPE  H19R16767   4.540   4.051   9.068 -1.0801 -0.7701  0.5273
  151SAPE  H19S16768   4.484   4.084   8.898  3.0797  0.2659 -1.1224
  151SAPE  C22016769   4.602   3.907   8.915 -0.8919 -0.2561 -0.3340
  151SAPE  H20R16770   4.701   3.952   8.938 -0.6872 -1.2181  0.7672
  151SAPE  H20S16771   4.592   3.896   8.805  0.9791 -2.7957 -0.3375
  151SAPE  H20T16772   4.587   3.807   8.962 -1.7496 -0.3721 -0.8292
  151SAPE   C3316773   4.120   4.852   9.631 -0.0497  0.6158 -0.0552
  151SAPE   H3X16774   4.014   4.820   9.622 -0.2316  1.5400 -1.4837
  151SAPE   H3Y16775   4.171   4.753   9.634 -0.5372  0.3778  2.5262
  151SAPE   C3416776   4.149   4.931   9.505  0.1057 -0.7342 -0.7104
  151SAPE   H4X16777   4.258   4.935   9.488  0.7781  1.3466  3.1128
  151SAPE   H4Y16778   4.114   5.033   9.533  3.7353 -0.0451  1.8660
  151SAPE   C3516779   4.082   4.890   9.370  0.2520 -0.8304 -0.1631
  151SAPE   H5X16780   4.044   4.987   9.333  0.4273  0.3648  2.5707
  151SAPE   H5Y16781   3.994   4.826   9.391  1.1366 -2.2602 -0.6515
  151SAPE   C3616782   4.186   4.826   9.278  0.3488  1.1730  0.1710
  151SAPE   H6X16783   4.255   4.753   9.325 -0.1385  1.4129  1.2748
  151SAPE   H6Y16784   4.262   4.901   9.245  1.0147  0.2677 -0.3769
  151SAPE   C3716785   4.131   4.768   9.144 -0.1624 -0.1587  0.3506
  151SAPE   H7X16786   4.051   4.691   9.155  0.0514 -0.4565 -0.1279
  151SAPE   H7Y16787   4.213   4.710   9.098  0.7419 -1.0468  2.9081
  151SAPE   C3816788   4.063   4.870   9.045 -0.7186  0.4686 -0.6643
  151SAPE   H8X16789   3.977   4.926   9.085 -0.7935  0.3389 -0.6431
  151SAPE   H8Y16790   4.029   4.806   8.960 -1.8574  0.2002 -0.0095
  151SAPE   C3916791   4.159   4.989   9.001  0.2420 -0.0627 -0.1828
  151SAPE   H9X16792   4.177   5.055   9.088  1.3665  0.0606 -0.4979
  151SAPE   H9Y16793   4.096   5.047   8.930  0.6544  2.0573  1.1257
  151SAPE  C31016794   4.289   4.941   8.935 -0.1171 -0.0044 -0.0256
  151SAPE  H10X16795   4.340   4.866   9.000  1.6262  1.9527  0.9979
  151SAPE  H10Y16796   4.362   5.024   8.923  2.3591 -2.1375 -0.8394
  151SAPE  C31116797   4.278   4.872   8.799  0.4246 -0.4765  0.0076
  151SAPE  H11X16798   4.260   4.953   8.724  1.9447 -1.7751 -1.8747
  151SAPE  H11Y16799   4.196   4.797   8.798  0.4421 -0.5168 -1.7032
  151SAPE  C31216800   4.403   4.796   8.764 -0.4126 -0.3035  0.2322
  151SAPE  H12X16801   4.414   4.704   8.826  2.2886 -0.6254 -0.5606
  151SAPE  H12Y16802   4.494   4.854   8.791 -0.6785  0.2140  0.0240
  151SAPE  C31316803   4.398   4.745   8.615 -0.5578  0.1973 -0.2241
  151SAPE  H13X16804   4.416   4.839   8.558  0.8345 -0.2268 -0.5053
  151SAPE  H13Y16805   4.307   4.693   8.579 -0.1729 -0.0069 -0.9188
  151SAPE  C31416806   4.521   4.665   8.564  0.2701 -0.5175 -0.6741
  151SAPE  H14X16807   4.615   4.720   8.586  0.8630 -2.2345  1.3588
  151SAPE  H14Y16808   4.503   4.659   8.454  0.6042  0.9884 -0.8332
  151SAPE  C31516809   4.524   4.522   8.631 -0.5008 -0.4793 -0.5292
  151SAPE  H15X16810   4.538   4.531   8.741 -1.3205  0.6131 -0.4973
  151SAPE  H15Y16811   4.623   4.482   8.602 -0.5857  0.8116 -2.9139
  151SAPE  C31616812   4.417   4.425   8.603  0.6401 -0.0160  0.3476
  151SAPE  H16X16813   4.326   4.469   8.649  0.0539 -2.0056  1.1470
  151SAPE  H16Y16814   4.446   4.341   8.669  3.4448 -0.5817 -1.4352
  151SAPE  C31716815   4.390   4.386   8.455 -0.3918  0.5631 -0.0571
  151SAPE  H17X16816   4.472   4.315   8.432 -0.9035  0.0964 -0.4842
  151SAPE  H17Y16817   4.396   4.471   8.384 -1.0965  1.3856  0.8484
  151SAPE  C31816818   4.253   4.319   8.435 -0.3039  0.3713  0.8515
  151SAPE  H18X16819   4.243   4.294   8.328 -0.3671  1.5920  0.5629
  151SAPE  H18Y16820   4.168   4.385   8.464  0.7599  1.0750  2.5448
  151SAPE  H18Z16821   4.249   4.227   8.497  0.8439 -0.2366  0.0456
  152SAPE     N16822   5.422   5.714  10.560  0.8506 -0.2515 -0.3706
  152SAPE   HN116823   5.445   5.614  10.545 -1.2814 -0.7723 -0.3939
  152SAPE   HN216824   5.319   5.728  10.555  0.5699 -1.6842  0.7324
  152SAPE   HN316825   5.471   5.775  10.491  1.3464 -0.1421  0.0697
  152SAPE   C1216826   5.471   5.743  10.698  1.3408 -0.4089  0.1108
  152SAPE  H12A16827   5.421   5.685  10.779  0.3012 -0.4732 -0.5547
  152SAPE  H12B16828   5.455   5.849  10.727  1.8656 -0.1582 -0.5020
  152SAPE   C1116829   5.623   5.719  10.700 -0.2803  0.4500  0.0064
  152SAPE  H11A16830   5.646   5.623  10.649  0.5728  0.3919  0.4686
  152SAPE  H11B16831   5.647   5.734  10.807  0.7449  2.3194 -0.4399
  152SAPE     P16832   5.847   5.808  10.621 -0.0215  0.0454 -0.3135
  152SAPE   O1316833   5.897   5.926  10.698  0.4165 -0.2420  0.2235
  152SAPE   O1416834   5.903   5.670  10.647  0.2572 -0.7865 -0.4241
  152SAPE   O1216835   5.693   5.813  10.620  0.0973 -0.1166 -0.5331
  152SAPE   O1116836   5.884   5.828  10.467  0.0938 -0.3691  0.1272
  152SAPE    C116837   5.869   5.955  10.398  0.1880  0.7305 -0.4025
  152SAPE    HA16838   5.763   5.972  10.370 -0.0323  1.4018  0.8045
  152SAPE    HB16839   5.904   6.037  10.463  1.3942 -0.5345  0.5945
  152SAPE    C216840   5.950   5.956  10.271 -0.3060 -0.5446 -0.2630
  152SAPE    HS16841   5.935   6.052  10.217  0.0750  0.3203  1.1320
  152SAPE   O2116842   5.929   5.839  10.190  0.7738  0.0845 -0.0798
  152SAPE   C2116843   5.820   5.843  10.111  0.5580  0.2625 -0.2466
  152SAPE   O2216844   5.735   5.932  10.109  0.2065  0.0265  0.2705
  152SAPE   C2216845   5.817   5.715  10.014  0.5023 -0.0251 -0.2327
  152SAPE   H2R16846   5.915   5.666  10.032  1.3146  1.3302 -0.7837
  152SAPE   H2S16847   5.736   5.650  10.054  0.6771  1.2048  2.3249
  152SAPE    C316848   6.101   5.965  10.304 -0.0542  0.3850  0.0226
  152SAPE    HX16849   6.123   5.879  10.372  1.8687  0.0360 -0.9777
  152SAPE    HY16850   6.110   6.064  10.354 -0.9788  1.0890 -1.1408
  152SAPE   O3116851   6.178   5.953  10.186 -0.0176 -0.2836 -0.4242
  152SAPE   C3116852   6.264   6.053  10.158  0.0851  0.3918 -0.6522
  152SAPE   O3216853   6.274   6.159  10.215 -0.2546  0.7447 -0.4655
  152SAPE   C3216854   6.341   6.025  10.028 -0.4789  0.3420 -0.1643
  152SAPE   H2X16855   6.273   5.971   9.959 -1.8850 -0.0299  1.4474
  152SAPE   H2Y16856   6.418   5.952  10.062 -0.5817  1.0664  1.7382
  152SAPE   C2316857   5.803   5.759   9.867 -0.4048 -0.3940  1.1525
  152SAPE   H3R16858   5.715   5.826   9.866  0.5011  0.8288  0.2369
  152SAPE   H3S16859   5.786   5.673   9.799 -0.8627  0.9166 -0.4602
  152SAPE   C2416860   5.928   5.841   9.817 -0.0803 -0.0408 -0.2266
  152SAPE   H4R16861   5.970   5.905   9.897  0.3049 -0.9777  0.3362
  152SAPE   H4S16862   5.905   5.905   9.729 -0.8863  0.7152  0.5172
  152SAPE   C2516863   6.034   5.746   9.778  0.1471  0.1281  0.3234
  152SAPE   H5R16864   6.101   5.713   9.859 -0.9535 -0.0718  1.1679
  152SAPE   C2616865   6.050   5.701   9.652 -0.0674 -0.1948 -0.0843
  152SAPE   H6R16866   6.128   5.624   9.636 -0.5752 -0.4951 -1.1637
  152SAPE   C2716867   5.959   5.734   9.538 -0.2586  0.0190  0.0284
  152SAPE   H7R16868   5.973   5.842   9.516 -1.2569  0.1617  0.0361
  152SAPE   H7S16869   5.852   5.742   9.567 -0.6177 -0.2299 -1.1789
  152SAPE   C2816870   5.966   5.650   9.413 -0.2058 -0.1240 -0.3619
  152SAPE   H8R16871   5.952   5.541   9.418 -0.1284 -0.2688 -2.4625
  152SAPE   C2916872   6.010   5.696   9.289 -0.2558  0.0367 -0.3569
  152SAPE   H9R16873   5.989   5.638   9.198  3.3145  0.0056 -1.2970
  152SAPE  C21016874   6.058   5.837   9.263  0.4044 -0.4409 -0.1754
  152SAPE  H10R16875   6.167   5.855   9.272  0.3869 -0.8340  1.1388
  152SAPE  H10S16876   6.010   5.909   9.334 -0.1945 -1.3087  0.3257
  152SAPE  C21116877   6.016   5.884   9.127 -0.1745 -0.2009 -0.4818
  152SAPE  H11R16878   5.922   5.940   9.125  0.3537  0.7789  0.8410
  152SAPE  C21216879   6.084   5.859   9.010  0.1590 -0.2019  0.1560
  152SAPE  H12R16880   6.054   5.901   8.913  2.0245 -1.4104 -1.0151
  152SAPE  C21316881   6.212   5.779   9.004  0.1574 -0.6038 -0.2406
  152SAPE  H13R16882   6.254   5.766   9.106 -1.2820 -0.0795  0.4423
  152SAPE  H13S16883   6.283   5.844   8.949  1.1038  0.8490  2.4962
  152SAPE  C21416884   6.194   5.640   8.939 -1.3403  0.0642  0.1736
  152SAPE  H14R16885   6.192   5.554   9.008  0.3975 -0.8323 -0.8191
  152SAPE  C21516886   6.176   5.619   8.809 -0.8805  0.6475 -0.1116
  152SAPE  H15R16887   6.167   5.514   8.777  3.1574  0.4548 -1.1209
  152SAPE  C21616888   6.174   5.710   8.688 -0.4882 -0.0904  0.9660
  152SAPE  H16R16889   6.083   5.774   8.689  0.5704  1.4899  0.2889
  152SAPE  H16S16890   6.163   5.648   8.597 -1.1485  0.1375  0.8804
  152SAPE  C21716891   6.302   5.798   8.672 -0.9015 -0.2783  0.0090
  152SAPE  H17R16892   6.373   5.777   8.754 -0.5516 -1.6600 -0.6346
  152SAPE  H17S16893   6.293   5.908   8.685 -0.2485 -0.0721 -1.1393
  152SAPE  C21816894   6.384   5.774   8.546 -0.1589  0.4285  0.4039
  152SAPE  H18R16895   6.326   5.794   8.453  0.5409 -3.9744 -1.2362
  152SAPE  H18S16896   6.399   5.665   8.528 -0.2051  0.3242  0.9787
  152SAPE  C21916897   6.522   5.841   8.534  0.3970 -0.0893 -0.3356
  152SAPE  H19R16898   6.561   5.872   8.633  0.6243  0.0461 -0.4675
  152SAPE  H19S16899   6.509   5.933   8.473 -1.2909  0.0799  0.2382
  152SAPE  C22016900   6.629   5.749   8.467  0.0323  0.2327 -0.1928
  152SAPE  H20R16901   6.642   5.658   8.529  2.3065  1.3107  1.0582
  152SAPE  H20S16902   6.731   5.793   8.467  0.7464 -1.3432  0.7231
  152SAPE  H20T16903   6.588   5.714   8.371 -0.5901 -1.8988  0.7992
  152SAPE   C3316904   6.409   6.149   9.969 -0.2411 -0.4265  0.1426
  152SAPE   H3X16905   6.487   6.173  10.043 -0.2355 -1.5013  0.5122
  152SAPE   H3Y16906   6.331   6.228   9.959 -1.1993 -1.2384  0.8922
  152SAPE   C3416907   6.475   6.131   9.836 -0.4150 -0.1986 -0.0527
  152SAPE   H4X16908   6.538   6.039   9.831  3.4837  2.2950 -2.7463
  152SAPE   H4Y16909   6.546   6.213   9.812 -1.9165  0.5466 -2.3062
  152SAPE   C3516910   6.373   6.116   9.724  0.1907  0.0428  0.4006
  152SAPE   H5X16911   6.330   6.218   9.727  2.8183  1.2088  2.8358
  152SAPE   H5Y16912   6.289   6.045   9.745  2.0077 -2.2187  0.4653
  152SAPE   C3616913   6.429   6.078   9.588  0.3174 -0.0899 -0.0691
  152SAPE   H6X16914   6.461   5.972   9.594  0.4162 -0.0432  0.2721
  152SAPE   H6Y16915   6.517   6.140   9.560  1.0368 -2.3028 -3.2953
  152SAPE   C3716916   6.333   6.082   9.477  0.2166  0.1735 -0.0916
  152SAPE   H7X16917   6.285   6.181   9.462  0.4925  0.4475  0.8127
  152SAPE   H7Y16918   6.251   6.011   9.498  1.4866 -1.4910 -0.5584
  152SAPE   C3816919   6.391   6.042   9.343  0.1253 -0.1371  0.0498
  152SAPE   H8X16920   6.381   5.933   9.320 -2.7998  0.6718 -3.4209
  152SAPE   H8Y16921   6.499   6.067   9.340  0.0486  0.2143 -2.7702
  152SAPE   C3916922   6.331   6.132   9.229 -0.4129 -0.8490  0.2221
  152SAPE   H9X16923   6.333   6.239   9.260  2.0595 -0.7866  0.0089
  152SAPE   H9Y16924   6.228   6.102   9.199 -0.1074 -1.1741 -0.5195
  152SAPE  C31016925   6.422   6.117   9.101 -0.2021 -1.0446  0.4551
  152SAPE  H10X16926   6.419   6.008   9.077  2.1581 -1.2088  0.7057
  152SAPE  H10Y16927   6.525   6.155   9.120 -0.2200  0.0889 -1.4085
  152SAPE  C31116928   6.370   6.197   8.983  0.2615  0.1832  0.2257
  152SAPE  H11X16929   6.361   6.306   9.004  0.6908  0.2578  0.0358
  152SAPE  H11Y16930   6.262   6.169   8.983  0.6359 -1.5089  2.3336
  152SAPE  C31216931   6.435   6.159   8.853 -0.4030  0.5394 -0.2456
  152SAPE  H12X16932   6.450   6.049   8.845  2.3416  0.7157  1.2451
  152SAPE  H12Y16933   6.538   6.200   8.853 -0.1508 -0.0062  1.6407
  152SAPE  C31316934   6.351   6.207   8.736  0.2627  0.1315 -0.0144
  152SAPE  H13X16935   6.305   6.307   8.755  2.1722  0.8569  1.0985
  152SAPE  H13Y16936   6.262   6.142   8.730 -2.2191  3.3721 -1.6552
  152SAPE  C31416937   6.417   6.201   8.599 -1.1067  0.3339 -0.3912
  152SAPE  H14X16938   6.482   6.112   8.585 -0.0208  1.0977 -0.2807
  152SAPE  H14Y16939   6.474   6.292   8.574 -2.0626  0.6980 -1.3563
  152SAPE  C31516940   6.300   6.195   8.498  0.8282  0.1017  0.2942
  152SAPE  H15X16941   6.228   6.280   8.499  1.4306  0.7314 -2.1803
  152SAPE  H15Y16942   6.235   6.113   8.537  1.7534 -0.3047  0.9984
  152SAPE  C31616943   6.343   6.167   8.350  0.2929 -0.5299  0.2834
  152SAPE  H16X16944   6.250   6.193   8.295  0.2392  0.5657  0.8751
  152SAPE  H16Y16945   6.371   6.063   8.322 -0.5372 -0.8024  0.4312
  152SAPE  C31716946   6.449   6.271   8.298 -0.4107 -0.1474 -0.4796
  152SAPE  H17X16947   6.546   6.248   8.347  0.0218  0.6116 -0.9614
  152SAPE  H17Y16948   6.424   6.377   8.322  0.5214  0.4455 -1.9964
  152SAPE  C31816949   6.464   6.253   8.144  0.0343  0.1565 -0.5013
  152SAPE  H18X16950   6.496   6.147   8.131  0.9956  0.4675 -0.7121
  152SAPE  H18Y16951   6.539   6.319   8.096  1.2919 -0.7471  0.1796
  152SAPE  H18Z16952   6.361   6.274   8.107 -0.0228  0.0437 -0.4068
  153SAPE     N16953   5.099   5.992  10.892 -0.0667  0.3440  0.9672
  153SAPE   HN116954   5.027   5.960  10.960  1.1229  0.5937  2.3598
  153SAPE   HN216955   5.052   6.049  10.818 -1.1687 -3.0832 -1.2404
  153SAPE   HN316956   5.133   5.904  10.848 -1.2183 -0.2691  1.2483
  153SAPE   C1216957   5.217   6.053  10.974  0.3368  0.5949  0.2244
  153SAPE  H12A16958   5.254   5.976  11.045 -0.7653  1.4484  1.7863
  153SAPE  H12B16959   5.179   6.144  11.026 -0.5402  0.9884 -1.0626
  153SAPE   C1116960   5.324   6.110  10.880 -0.0663  0.0757  0.0787
  153SAPE  H11A16961   5.377   6.030  10.823  0.6942 -0.1373  1.0649
  153SAPE  H11B16962   5.411   6.153  10.934  0.9001 -1.7285  0.0161
  153SAPE     P16963   5.322   6.253  10.656 -0.3430  0.1200  0.0553
  153SAPE   O1316964   5.210   6.233  10.556 -0.7145 -0.1336 -0.2421
  153SAPE   O1416965   5.384   6.389  10.667 -0.1966  0.3843  0.0667
  153SAPE   O1216966   5.267   6.214  10.794  0.0352 -0.3780 -0.0408
  153SAPE   O1116967   5.436   6.149  10.625  0.2421  0.2258 -0.2417
  153SAPE    C116968   5.569   6.164  10.666  0.8643  0.5058 -0.2072
  153SAPE    HA16969   5.576   6.203  10.770  0.4479 -1.5614  0.6383
  153SAPE    HB16970   5.620   6.068  10.686  0.1675 -0.4157 -2.5040
  153SAPE    C216971   5.650   6.254  10.575 -0.3689 -0.0343 -0.0423
  153SAPE    HS16972   5.611   6.357  10.592  0.3063  0.0790  0.8620
  153SAPE   O2116973   5.633   6.211  10.437  0.3570  0.1704  0.1136
  153SAPE   C2116974   5.570   6.294  10.354 -1.1313 -0.1927 -0.0119
  153SAPE   O2216975   5.562   6.415  10.374  0.0014  0.3586  0.4181
  153SAPE   C2216976   5.555   6.225  10.225 -0.4369 -0.3653  0.4608
  153SAPE   H2R16977   5.643   6.159  10.211 -0.6643 -0.5683 -0.0264
  153SAPE   H2S16978   5.467   6.158  10.237 -0.3795 -0.5796 -0.2696
  153SAPE    C316979   5.801   6.255  10.611 -0.5645  0.7164  0.4054
  153SAPE    HX16980   5.841   6.153  10.629  0.2791  0.8740 -0.4711
  153SAPE    HY16981   5.811   6.305  10.710  0.2377 -0.3195  0.8635
  153SAPE   O3116982   5.890   6.323  10.520 -0.5697  1.0459  0.1561
  153SAPE   C3116983   5.885   6.447  10.500 -0.2299  0.8232  0.4162
  153SAPE   O3216984   5.825   6.532  10.558  0.1117  0.4746  0.5638
  153SAPE   C3216985   5.972   6.468  10.372  0.2097  0.3724 -0.5703
  153SAPE   H2X16986   6.076   6.434  10.392  0.1193 -0.2933 -1.2226
  153SAPE   H2Y16987   5.970   6.578  10.353 -1.5792  0.2867 -1.0707
  153SAPE   C2316988   5.538   6.319  10.099 -0.2369  0.8579  0.4214
  153SAPE   H3R16989   5.635   6.368  10.076  0.1453 -1.0205 -2.5577
  153SAPE   H3S16990   5.456   6.393  10.114  0.6944  2.1933 -0.8095
  153SAPE   C2416991   5.496   6.230   9.978 -0.5355 -0.3251  0.3476
  153SAPE   H4R16992   5.402   6.178  10.006 -0.1273 -1.3369 -0.1150
  153SAPE   H4S16993   5.575   6.153   9.968 -1.7589 -1.8479  1.8490
  153SAPE   C2516994   5.473   6.322   9.861 -0.4048 -0.1653  0.5185
  153SAPE   H5R16995   5.421   6.416   9.883 -0.0602  0.2818 -0.5556
  153SAPE   C2616996   5.529   6.299   9.743  0.0186 -0.5694  0.3590
  153SAPE   H6R16997   5.493   6.350   9.653  1.8350 -1.4172 -0.9177
  153SAPE   C2716998   5.610   6.177   9.720  0.0810 -0.6281 -0.1612
  153SAPE   H7R16999   5.706   6.166   9.775  0.9759  2.5480 -0.8688
  153SAPE   H7S17000   5.648   6.204   9.619 -1.6046  0.5737 -0.5265
  153SAPE   C2817001   5.530   6.052   9.709  0.4534 -0.1961  0.1185
  153SAPE   H8R17002   5.471   6.026   9.798  0.5079 -0.3458  0.1117
  153SAPE   C2917003   5.502   5.985   9.595  0.3883  0.3815  0.5159
  153SAPE   H9R17004   5.464   5.883   9.609 -0.3084  0.3631 -1.2989
  153SAPE  C21017005   5.551   6.014   9.455 -0.1133  1.0341 -0.6653
  153SAPE  H10R17006   5.547   5.927   9.385 -2.7236  0.1895  0.4171
  153SAPE  H10S17007   5.658   6.041   9.470 -0.2283  1.0528  0.1549
  153SAPE  C21117008   5.475   6.125   9.384  0.2422 -0.5337 -0.7205
  153SAPE  H11R17009   5.459   6.214   9.447  0.2100 -0.4839 -0.7998
  153SAPE  C21217010   5.421   6.112   9.265  0.2952 -0.4666  0.0441
  153SAPE  H12R17011   5.361   6.195   9.224  0.4251 -0.8497 -0.9477
  153SAPE  C21317012   5.436   6.001   9.165  0.0980 -0.5915 -0.3421
  153SAPE  H13R17013   5.377   5.911   9.193 -2.6534  0.9075 -0.9480
  153SAPE  H13S17014   5.542   5.969   9.160 -0.0751 -1.3234  0.4705
  153SAPE  C21417015   5.392   6.046   9.021  0.7354  0.8155  0.5487
  153SAPE  H14R17016   5.287   6.027   8.995  0.7655  0.7457  0.4770
  153SAPE  C21517017   5.471   6.110   8.936  0.0422  0.9928 -0.2502
  153SAPE  H15R17018   5.431   6.134   8.836  0.2928  0.3643 -0.5077
  153SAPE  C21617019   5.614   6.152   8.955 -0.4561 -0.4240  0.0556
  153SAPE  H16R17020   5.624   6.203   9.053  1.6552  0.4307 -0.5312
  153SAPE  H16S17021   5.632   6.243   8.892 -2.5160  0.4824  0.7027
  153SAPE  C21717022   5.724   6.045   8.928  0.7838  0.4952 -0.2164
  153SAPE  H17R17023   5.715   5.951   8.986 -1.8987  0.4093 -0.6849
  153SAPE  H17S17024   5.822   6.094   8.950  0.3723  1.3727 -0.3000
  153SAPE  C21817025   5.743   5.997   8.779  0.1313 -0.0309  0.2136
  153SAPE  H18R17026   5.641   5.973   8.741 -0.3839 -0.2196  1.6431
  153SAPE  H18S17027   5.812   5.910   8.776 -0.0750 -0.1877 -0.0329
  153SAPE  C21917028   5.803   6.103   8.684  0.0746 -0.1916  0.4770
  153SAPE  H19R17029   5.752   6.200   8.705  1.1406  0.6239 -0.5697
  153SAPE  H19S17030   5.759   6.072   8.587 -1.4209 -0.1709  1.1127
  153SAPE  C22017031   5.953   6.113   8.681 -0.6097 -0.2888 -0.1257
  153SAPE  H20R17032   5.987   6.014   8.644  0.0662 -0.1796  0.1960
  153SAPE  H20S17033   5.992   6.132   8.783 -0.9588 -1.4677  0.2467
  153SAPE  H20T17034   5.971   6.196   8.609 -2.3564 -0.6711 -1.0646
  153SAPE   C3317035   5.910   6.401  10.256 -0.1543  0.2245  1.2083
  153SAPE   H3X17036   5.815   6.452  10.231 -1.0653 -2.5388 -1.6894
  153SAPE   H3Y17037   5.892   6.292  10.269 -0.3261 -0.1947 -1.8577
  153SAPE   C3417038   5.995   6.422  10.124 -0.1331  0.5605  0.3199
  153SAPE   H4X17039   6.104   6.409  10.141 -0.1301  1.5726  1.2255
  153SAPE   H4Y17040   5.977   6.521  10.075 -3.5552  1.1792  2.4529
  153SAPE   C3517041   5.942   6.323  10.018  0.3429  0.1059  0.0398
  153SAPE   H5X17042   5.831   6.320  10.017  0.2965  1.4148 -0.7900
  153SAPE   H5Y17043   5.978   6.220  10.038  0.9470  0.3419  0.2196
  153SAPE   C3617044   5.998   6.367   9.879  0.0355  0.0676 -0.4608
  153SAPE   H6X17045   6.108   6.354   9.878  0.1065  0.2640  1.7167
  153SAPE   H6Y17046   5.975   6.475   9.872 -0.8894  0.1252  2.3887
  153SAPE   C3717047   5.932   6.283   9.771  0.2264 -0.2169  0.5894
  153SAPE   H7X17048   5.823   6.306   9.771  0.5776  1.5792  0.5928
  153SAPE   H7Y17049   5.946   6.174   9.778  1.0232 -0.2663 -1.2721
  153SAPE   C3817050   5.981   6.326   9.635 -0.0667  0.1604  0.5414
  153SAPE   H8X17051   6.091   6.327   9.626  0.0248 -0.8111  1.4177
  153SAPE   H8Y17052   5.955   6.433   9.628  1.6526  0.5639 -0.0343
  153SAPE   C3917053   5.933   6.252   9.511 -0.1892  0.1033  0.2704
  153SAPE   H9X17054   5.824   6.232   9.517 -1.1401  3.0386 -3.2845
  153SAPE   H9Y17055   5.987   6.156   9.493  0.8275  1.0429 -2.0515
  153SAPE  C31017056   5.952   6.339   9.381  0.4625  0.6943 -0.7442
  153SAPE  H10X17057   6.048   6.392   9.390  0.2205  1.0603 -0.3007
  153SAPE  H10Y17058   5.874   6.418   9.382 -2.2229 -1.6755  2.5974
  153SAPE  C31117059   5.961   6.255   9.253  0.4344  0.5951  0.2174
  153SAPE  H11X17060   5.869   6.199   9.228  2.2300 -2.1458 -0.6484
  153SAPE  H11Y17061   6.035   6.174   9.273  0.8537  0.9665  0.2006
  153SAPE  C31217062   6.008   6.332   9.128  0.1294  0.3546 -0.2826
  153SAPE  H12X17063   6.039   6.246   9.065 -0.5222  1.3709 -2.0406
  153SAPE  H12Y17064   6.100   6.387   9.157  0.0626  0.6878 -0.7022
  153SAPE  C31317065   5.902   6.410   9.060 -0.1778  0.1852 -0.0038
  153SAPE  H13X17066   5.865   6.488   9.130 -0.6459  1.9422 -2.0803
  153SAPE  H13Y17067   5.820   6.343   9.025  1.8350 -1.7307 -1.2709
  153SAPE  C31417068   5.970   6.485   8.950 -0.0718 -0.6074 -0.1259
  153SAPE  H14X17069   6.010   6.419   8.871 -0.7791  1.6831 -2.5300
  153SAPE  H14Y17070   6.053   6.543   8.996  1.9551 -2.0513 -1.7971
  153SAPE  C31517071   5.874   6.584   8.874  0.2988  0.4661  0.1447
  153SAPE  H15X17072   5.830   6.660   8.941  0.1346 -1.2365  2.0380
  153SAPE  H15Y17073   5.790   6.522   8.836  0.9410 -0.7845  0.7103
  153SAPE  C31617074   5.943   6.648   8.750 -0.1995 -0.2197 -0.3094
  153SAPE  H16X17075   5.986   6.569   8.685 -1.6795  0.3565 -2.0808
  153SAPE  H16Y17076   6.028   6.709   8.787 -0.5836  1.2324 -1.6994
  153SAPE  C31717077   5.851   6.734   8.667 -0.1691 -0.2864 -0.4096
  153SAPE  H17X17078   5.820   6.819   8.731 -0.9087  0.3274 -1.5468
  153SAPE  H17Y17079   5.767   6.671   8.630  1.1546 -1.6959 -1.1342
  153SAPE  C31817080   5.903   6.787   8.534 -0.0268 -0.5080  0.1812
  153SAPE  H18X17081   5.943   6.700   8.478  2.3114  0.6894 -0.1540
  153SAPE  H18Y17082   5.991   6.853   8.554 -1.0063  0.1798  2.6373
  153SAPE  H18Z17083   5.840   6.843   8.461 -1.0511 -0.9887  0.6737
  154SAPE     N17084   6.386   0.416  10.996  0.2434  0.5271 -0.0116
  154SAPE   HN117085   6.334   0.332  11.028 -0.2302  1.1195  0.8122
  154SAPE   HN217086   6.373   0.481  11.076 -2.3792 -1.7882  1.6093
  154SAPE   HN317087   6.336   0.455  10.913  1.5897 -1.1631 -1.7361
  154SAPE   C1217088   6.530   0.383  10.962 -0.5663 -0.8512 -0.2745
  154SAPE  H12A17089   6.583   0.371  11.058  0.8909  1.5101 -0.7165
  154SAPE  H12B17090   6.570   0.458  10.890 -0.5230 -1.5812 -1.0403
  154SAPE   C1117091   6.541   0.254  10.882 -0.4115  0.6416 -0.1801
  154SAPE  H11A17092   6.644   0.248  10.842 -1.2277 -0.9080 -2.1742
  154SAPE  H11B17093   6.483   0.266  10.788 -0.3276  0.7974 -0.2135
  154SAPE     P17094   6.521  -0.002  10.901 -0.0279 -0.1828 -0.1424
  154SAPE   O1317095   6.666  -0.023  10.866 -0.5587  0.3688  0.3049
  154SAPE   O1417096   6.457  -0.108  10.983 -0.3035 -0.4408 -0.4185
  154SAPE   O1217097   6.502   0.140  10.965 -0.2271 -0.4082 -0.4079
  154SAPE   O1117098   6.446   0.023  10.769  0.2127 -0.2890  0.6332
  154SAPE    C117099   6.439  -0.075  10.672  0.2455  0.6663  0.6880
  154SAPE    HA17100   6.514  -0.155  10.685 -1.7783 -1.9149 -2.1024
  154SAPE    HB17101   6.344  -0.129  10.691 -0.3881  0.7557 -1.8724
  154SAPE    C217102   6.441  -0.011  10.532 -0.1614 -0.6015  0.2713
  154SAPE    HS17103   6.362   0.067  10.530 -0.3756 -0.8187  0.3041
  154SAPE   O2117104   6.424  -0.101  10.430 -0.0484 -0.7352 -0.0405
  154SAPE   C2117105   6.307  -0.105  10.379  0.0418 -0.0305  0.4031
  154SAPE   O2217106   6.201  -0.057  10.420 -0.0037 -0.3077  0.5482
  154SAPE   C2217107   6.309  -0.193  10.255 -0.7382 -0.0333  0.7062
  154SAPE   H2R17108   6.414  -0.209  10.223 -1.0087  0.5007 -0.4927
  154SAPE   H2S17109   6.269  -0.295  10.272 -0.7209 -0.4320 -1.3722
  154SAPE    C317110   6.572   0.070  10.500  0.5568 -0.0842  0.3259
  154SAPE    HX17111   6.654  -0.003  10.482 -0.4295 -0.8581 -1.3353
  154SAPE    HY17112   6.600   0.138  10.583  0.1320  2.2744 -1.3542
  154SAPE   O3117113   6.548   0.158  10.388  0.4572  0.2647  0.9027
  154SAPE   C3117114   6.603   0.121  10.276  0.5483  0.3111  0.5599
  154SAPE   O3217115   6.664   0.017  10.254 -0.0978  0.8684  0.5012
  154SAPE   C3217116   6.571   0.223  10.165 -0.2969  0.5277  0.2903
  154SAPE   H2X17117   6.604   0.324  10.197  1.0827 -0.0836  0.8528
  154SAPE   H2Y17118   6.461   0.237  10.153 -0.0946  1.8204 -0.2737
  154SAPE   C2317119   6.224  -0.126  10.138 -0.2127  0.0010  0.0131
  154SAPE   H3R17120   6.124  -0.094  10.172 -0.1790 -0.4968  0.5996
  154SAPE   H3S17121   6.216  -0.211  10.066 -0.0397 -1.4065  1.6091
  154SAPE   C2417122   6.301  -0.019  10.069 -0.5015  0.1489  0.3819
  154SAPE   H4R17123   6.405  -0.051  10.048 -0.4072  0.7440 -0.0871
  154SAPE   H4S17124   6.315   0.074  10.128  0.2752  1.6119 -1.9584
  154SAPE   C2517125   6.228   0.032   9.944 -0.1733 -0.1007  0.2500
  154SAPE   H5R17126   6.158   0.117   9.955 -0.3648 -0.0142 -1.4250
  154SAPE   C2617127   6.240  -0.023   9.820 -0.4076  0.3792  0.4825
  154SAPE   H6R17128   6.176   0.022   9.742  0.8290  5.1530  1.8420
  154SAPE   C2717129   6.332  -0.133   9.781 -0.6207  0.3992  0.3308
  154SAPE   H7R17130   6.363  -0.194   9.869 -0.2538  1.6516  1.0892
  154SAPE   H7S17131   6.424  -0.097   9.731 -0.2865 -1.8709 -0.8432
  154SAPE   C2817132   6.277  -0.236   9.686 -0.7806  0.0789 -0.1375
  154SAPE   H8R17133   6.254  -0.335   9.729 -1.9688  0.2594 -0.3427
  154SAPE   C2917134   6.245  -0.211   9.557  0.4751 -0.0511  0.7550
  154SAPE   H9R17135   6.197  -0.295   9.505  0.7634 -1.8488  3.1985
  154SAPE  C21017136   6.257  -0.077   9.483 -0.6496 -0.0261  0.0897
  154SAPE  H10R17137   6.330  -0.075   9.399  0.1529 -0.2671  0.7610
  154SAPE  H10S17138   6.288   0.008   9.547  0.8325 -0.9251  0.6255
  154SAPE  C21117139   6.119  -0.036   9.432 -0.3633 -0.1218 -0.6653
  154SAPE  H11R17140   6.049   0.007   9.505  0.5123  0.5527 -0.1928
  154SAPE  C21217141   6.087  -0.014   9.312 -0.4678  0.3602  0.7963
  154SAPE  H12R17142   5.988   0.031   9.293 -1.0529 -0.2504  2.2285
  154SAPE  C21317143   6.176  -0.018   9.189  0.4178  0.3178 -0.3066
  154SAPE  H13R17144   6.248   0.066   9.189  0.1474  0.5524 -1.1876
  154SAPE  H13S17145   6.125   0.002   9.092  3.0429  1.1591 -1.5942
  154SAPE  C21417146   6.248  -0.153   9.170  0.1943  0.8803 -0.0382
  154SAPE  H14R17147   6.251  -0.221   9.256  0.5251 -0.4318 -1.0544
  154SAPE  C21517148   6.316  -0.190   9.059  0.0574  0.3169  0.0271
  154SAPE  H15R17149   6.362  -0.289   9.055 -0.5392 -0.0437  1.4398
  154SAPE  C21617150   6.329  -0.107   8.935  0.1725  0.2780 -0.6241
  154SAPE  H16R17151   6.421  -0.045   8.929  0.3829  0.0802  0.3599
  154SAPE  H16S17152   6.240  -0.041   8.931 -0.0690 -0.0873 -1.4436
  154SAPE  C21717153   6.317  -0.187   8.808 -0.1042 -0.8998 -0.2934
  154SAPE  H17R17154   6.226  -0.249   8.820 -1.3203  1.0918  1.4482
  154SAPE  H17S17155   6.407  -0.253   8.805  0.8665  0.1312  2.7799
  154SAPE  C21817156   6.326  -0.104   8.677 -0.3532 -0.4401  0.4610
  154SAPE  H18R17157   6.425  -0.057   8.659 -0.5952 -0.1465 -0.1482
  154SAPE  H18S17158   6.257  -0.018   8.688  1.7003  1.1601  1.3638
  154SAPE  C21917159   6.278  -0.189   8.559  0.7461 -0.1431 -0.1699
  154SAPE  H19R17160   6.190  -0.253   8.580 -0.3323  0.8401 -1.5121
  154SAPE  H19S17161   6.343  -0.274   8.530 -0.1801 -1.0258  0.2683
  154SAPE  C22017162   6.260  -0.101   8.436 -0.1948  0.3894 -0.0103
  154SAPE  H20R17163   6.178  -0.027   8.441 -2.1327 -1.4130 -2.4239
  154SAPE  H20S17164   6.219  -0.164   8.354 -0.8233  0.7685  0.0087
  154SAPE  H20T17165   6.348  -0.038   8.409 -1.2365  2.3297  0.8814
  154SAPE   C3317166   6.645   0.193  10.037 -0.1832  0.2898 -0.2444
  154SAPE   H3X17167   6.640   0.086  10.011 -1.0193  0.0420  0.8658
  154SAPE   H3Y17168   6.751   0.222  10.050 -0.2922 -0.2508  2.3780
  154SAPE   C3417169   6.593   0.266   9.916  0.0238 -0.1808  0.3815
  154SAPE   H4X17170   6.586   0.375   9.936 -3.2215 -0.8807  4.5023
  154SAPE   H4Y17171   6.487   0.231   9.912  0.6002 -1.9369 -1.5420
  154SAPE   C3517172   6.657   0.233   9.783 -0.1320  0.2372 -0.7224
  154SAPE   H5X17173   6.680   0.124   9.773  0.7028 -0.0244  2.6141
  154SAPE   H5Y17174   6.759   0.274   9.771 -0.8150  2.5340  0.6513
  154SAPE   C3617175   6.582   0.303   9.665 -0.2841  0.0441  0.5134
  154SAPE   H6X17176   6.598   0.412   9.681 -1.9506  0.4721 -0.4828
  154SAPE   H6Y17177   6.472   0.298   9.681 -0.6499  0.4047 -1.5738
  154SAPE   C3717178   6.634   0.283   9.520 -0.0851 -0.4279  0.0957
  154SAPE   H7X17179   6.625   0.173   9.507 -1.1707 -0.5296  1.4411
  154SAPE   H7Y17180   6.742   0.307   9.529 -0.2954  0.4869  0.2989
  154SAPE   C3817181   6.561   0.367   9.409 -0.4394  0.9626 -0.1907
  154SAPE   H8X17182   6.593   0.471   9.430 -1.6373  1.1326  0.8540
  154SAPE   H8Y17183   6.451   0.358   9.423 -0.3112  1.0271  0.9884
  154SAPE   C3917184   6.604   0.326   9.266  0.4964 -0.4912  0.1646
  154SAPE   H9X17185   6.711   0.295   9.256  0.1441 -1.8591  0.4481
  154SAPE   H9Y17186   6.578   0.420   9.214  1.2846  1.6625  3.3573
  154SAPE  C31017187   6.515   0.216   9.194 -0.5027 -0.2016  0.4165
  154SAPE  H10X17188   6.412   0.215   9.234 -0.0326  0.4624  1.7100
  154SAPE  H10Y17189   6.570   0.121   9.212  1.4754  0.3576 -2.1403
  154SAPE  C31117190   6.488   0.232   9.038 -0.0511 -0.0699 -0.3221
  154SAPE  H11X17191   6.448   0.141   8.988 -1.0278  0.3682 -0.3516
  154SAPE  H11Y17192   6.583   0.259   8.987  0.0600 -0.1261 -0.1459
  154SAPE  C31217193   6.389   0.344   9.022  0.5052  0.2942  0.7438
  154SAPE  H12X17194   6.406   0.419   9.102  0.8477 -0.4683  1.4077
  154SAPE  H12Y17195   6.290   0.297   9.045  0.6731  0.1321  1.1498
  154SAPE  C31317196   6.398   0.417   8.895 -0.1291  0.5866 -0.1019
  154SAPE  H13X17197   6.499   0.456   8.867 -0.1920  1.6870  1.0864
  154SAPE  H13Y17198   6.345   0.514   8.905 -2.0204 -0.0457 -2.7124
  154SAPE  C31417199   6.323   0.338   8.791  0.3031  0.4539 -0.2768
  154SAPE  H14X17200   6.221   0.309   8.823  0.8734 -1.4479 -0.0979
  154SAPE  H14Y17201   6.382   0.246   8.772  0.2927  0.6453 -1.3062
  154SAPE  C31517202   6.313   0.402   8.649  0.7639  0.0632  0.7713
  154SAPE  H15X17203   6.415   0.419   8.608  0.9531 -0.4056  1.0464
  154SAPE  H15Y17204   6.254   0.496   8.652  0.7508  0.1447 -0.9584
  154SAPE  C31617205   6.235   0.314   8.547  0.1396  0.1390 -0.1240
  154SAPE  H16X17206   6.130   0.297   8.580  0.2286  0.5830  0.4189
  154SAPE  H16Y17207   6.278   0.212   8.557  3.4095  1.4562  0.8801
  154SAPE  C31717208   6.232   0.340   8.397 -0.0994  0.2084  0.4381
  154SAPE  H17X17209   6.208   0.446   8.377 -0.3382  0.3780  1.5699
  154SAPE  H17Y17210   6.156   0.269   8.356 -2.1271  2.0242  0.8740
  154SAPE  C31817211   6.370   0.318   8.332 -0.7304 -0.2941 -0.2425
  154SAPE  H18X17212   6.365   0.351   8.226 -1.7046  1.3638  0.2861
  154SAPE  H18Y17213   6.407   0.213   8.336 -0.9733 -0.4061 -0.8438
  154SAPE  H18Z17214   6.441   0.384   8.385 -0.3342 -1.4773  0.7445
  155SAPE     N17215   5.429   0.995  10.731 -0.1895 -0.2336 -0.1435
  155SAPE   HN117216   5.380   0.905  10.753 -0.6611  0.1402  0.3561
  155SAPE   HN217217   5.350   1.050  10.691  0.0449 -0.0187 -0.3115
  155SAPE   HN317218   5.495   0.979  10.652 -0.4899 -1.5053 -0.1665
  155SAPE   C1217219   5.507   1.045  10.847 -0.1711 -0.3076 -0.2279
  155SAPE  H12A17220   5.586   0.969  10.867  0.2651  0.1940 -0.0142
  155SAPE  H12B17221   5.439   1.054  10.934  2.0092 -3.4968  2.0086
  155SAPE   C1117222   5.558   1.183  10.814 -0.0749  0.3363  0.0966
  155SAPE  H11A17223   5.633   1.173  10.733  0.5229  0.8840  0.5732
  155SAPE  H11B17224   5.604   1.228  10.905  0.0249 -1.5135  0.9966
  155SAPE     P17225   5.471   1.419  10.754 -0.1060  0.3082 -0.0058
  155SAPE   O1317226   5.352   1.475  10.690  0.2277 -0.0617  0.3077
  155SAPE   O1417227   5.521   1.468  10.884 -0.2749  0.0146 -0.0876
  155SAPE   O1217228   5.444   1.266  10.775  0.2569 -0.2768 -0.0215
  155SAPE   O1117229   5.592   1.413  10.652 -0.2338 -0.2529  0.3319
  155SAPE    C117230   5.689   1.509  10.617 -0.2485 -0.3754  0.0417
  155SAPE    HA17231   5.644   1.610  10.606  0.3485 -0.2380 -1.2296
  155SAPE    HB17232   5.767   1.514  10.696  1.2889 -0.5934 -1.4248
  155SAPE    C217233   5.772   1.467  10.493 -0.6339  1.2790  0.2432
  155SAPE    HS17234   5.862   1.531  10.489  1.9624 -2.1937 -1.2802
  155SAPE   O2117235   5.688   1.480  10.377 -0.0513  0.1774 -0.1306
  155SAPE   C2117236   5.708   1.583  10.299 -0.2323 -0.4972 -0.0140
  155SAPE   O2217237   5.799   1.663  10.319 -0.0796  0.2566 -0.1092
  155SAPE   C2217238   5.612   1.589  10.181 -0.2562 -0.3653  0.2917
  155SAPE   H2R17239   5.632   1.498  10.120  0.5831  0.5178 -0.8034
  155SAPE   H2S17240   5.505   1.593  10.210 -0.0377 -1.0998  1.2346
  155SAPE    C317241   5.819   1.322  10.500 -0.3741  0.4453  0.4031
  155SAPE    HX17242   5.730   1.266  10.538  0.0853 -0.6798 -0.1276
  155SAPE    HY17243   5.897   1.311  10.579 -0.4862  0.7683  0.5603
  155SAPE   O3117244   5.852   1.269  10.372 -0.8025  0.6809  0.3164
  155SAPE   C3117245   5.986   1.256  10.341 -0.1804  0.3082 -0.1062
  155SAPE   O3217246   6.079   1.271  10.419 -0.0705  0.1122  0.2930
  155SAPE   C3217247   5.997   1.193  10.196 -0.4727  0.7031 -0.4407
  155SAPE   H2X17248   6.018   1.273  10.121  0.9311 -0.0648 -0.8944
  155SAPE   H2Y17249   5.900   1.149  10.165  0.4608 -1.4248 -0.4759
  155SAPE   C2317250   5.627   1.717  10.097  0.5708  0.0117 -0.1801
  155SAPE   H3R17251   5.730   1.724  10.057 -0.2039  0.0346 -2.2573
  155SAPE   H3S17252   5.606   1.816  10.143  2.1747 -0.4409  1.7037
  155SAPE   C2417253   5.535   1.721   9.971  0.5192  0.2639  0.5132
  155SAPE   H4R17254   5.562   1.634   9.907 -0.5824 -0.1008  0.5107
  155SAPE   H4S17255   5.557   1.814   9.913  1.6087 -0.1576  0.2387
  155SAPE   C2517256   5.396   1.714  10.011  0.3312 -0.6195 -1.0914
  155SAPE   H5R17257   5.379   1.747  10.115  0.9670  3.4645 -2.1288
  155SAPE   C2617258   5.299   1.691   9.924  0.3224 -0.7063 -0.1138
  155SAPE   H6R17259   5.196   1.672   9.959  0.5538 -0.4275  0.7637
  155SAPE   C2717260   5.319   1.669   9.777 -0.1505 -0.5395  0.2927
  155SAPE   H7R17261   5.346   1.567   9.744  0.8085 -0.9846  2.2947
  155SAPE   H7S17262   5.397   1.741   9.745  1.1998 -1.3277  1.6755
  155SAPE   C2817263   5.183   1.714   9.720 -1.0296 -0.8649  0.0903
  155SAPE   H8R17264   5.123   1.796   9.762 -0.3670 -0.2276 -0.1658
  155SAPE   C2917265   5.154   1.684   9.591  0.2249  0.6030  0.7527
  155SAPE   H9R17266   5.054   1.708   9.554  0.7122  0.0016 -1.0803
  155SAPE  C21017267   5.247   1.611   9.496  0.2994  0.2879  0.7035
  155SAPE  H10R17268   5.227   1.503   9.511  0.1010  0.5749  2.8365
  155SAPE  H10S17269   5.354   1.632   9.516  0.6722 -0.3801 -0.4620
  155SAPE  C21117270   5.229   1.655   9.358 -0.1587 -0.3401  0.3378
  155SAPE  H11R17271   5.253   1.758   9.326  0.6535 -0.8294 -0.7023
  155SAPE  C21217272   5.193   1.573   9.254  0.5341  0.4767  0.0761
  155SAPE  H12R17273   5.170   1.625   9.160  1.5005 -0.1069 -0.4944
  155SAPE  C21317274   5.166   1.419   9.262 -0.5988 -0.1188  0.0656
  155SAPE  H13R17275   5.241   1.378   9.333 -1.5738  0.6352  1.6065
  155SAPE  H13S17276   5.178   1.370   9.164  1.6655  2.2028 -0.9216
  155SAPE  C21417277   5.034   1.391   9.326 -0.4327  0.1316 -0.6866
  155SAPE  H14R17278   5.030   1.429   9.429  0.5363  0.7550 -0.8649
  155SAPE  C21517279   4.927   1.331   9.272 -0.2076 -0.1780 -1.6563
  155SAPE  H15R17280   4.837   1.314   9.332  1.8235  1.9368  2.3965
  155SAPE  C21617281   4.910   1.290   9.131 -0.6688 -0.2746  0.6441
  155SAPE  H16R17282   4.814   1.236   9.115 -0.8626  0.4549 -0.7765
  155SAPE  H16S17283   5.005   1.239   9.102 -0.4069 -0.2172  1.3833
  155SAPE  C21717284   4.897   1.411   9.040 -0.3234 -0.0152 -0.0711
  155SAPE  H17R17285   4.973   1.486   9.071 -0.1238 -0.5539  0.7815
  155SAPE  H17S17286   4.804   1.469   9.057  0.1083  0.8109 -0.4928
  155SAPE  C21817287   4.897   1.377   8.887 -0.3477 -0.3666 -0.1822
  155SAPE  H18R17288   5.001   1.350   8.857 -0.0984  1.7511 -1.3743
  155SAPE  H18S17289   4.873   1.466   8.826  1.5017 -0.4945 -1.1751
  155SAPE  C21917290   4.811   1.259   8.849  0.1067 -0.5493  0.4559
  155SAPE  H19R17291   4.707   1.287   8.878  0.2915 -0.5455  1.1244
  155SAPE  H19S17292   4.833   1.168   8.909 -0.0519  0.2912  1.8400
  155SAPE  C22017293   4.817   1.233   8.698  0.4337  0.3940  0.4154
  155SAPE  H20R17294   4.776   1.319   8.641 -2.3454 -0.6852  0.6141
  155SAPE  H20S17295   4.748   1.148   8.677  1.3980  0.2202 -2.3923
  155SAPE  H20T17296   4.916   1.204   8.658 -0.1429  0.5848 -1.2026
  155SAPE   C3317297   6.103   1.082  10.198 -0.0617  0.8326 -0.2485
  155SAPE   H3X17298   6.083   1.018  10.287 -2.2493  0.9801 -0.5740
  155SAPE   H3Y17299   6.202   1.133  10.196  0.7683 -0.6885 -2.2938
  155SAPE   C3417300   6.082   0.989  10.082  0.1128  0.1213  0.0401
  155SAPE   H4X17301   5.981   0.943  10.091 -1.4728  2.9334 -1.8283
  155SAPE   H4Y17302   6.158   0.908  10.083  1.8630  1.6984  0.2573
  155SAPE   C3517303   6.082   1.063   9.946  0.0020  0.1124  0.2518
  155SAPE   H5X17304   6.186   1.091   9.920 -0.5300  2.4966  0.5058
  155SAPE   H5Y17305   6.018   1.153   9.944 -0.4481 -0.2129 -1.4991
  155SAPE   C3617306   6.039   0.964   9.830  0.2865  0.1258 -0.5883
  155SAPE   H6X17307   5.935   0.930   9.850  0.7339 -0.2932  1.1835
  155SAPE   H6Y17308   6.094   0.868   9.832 -1.3870 -0.8889  1.9484
  155SAPE   C3717309   6.050   1.044   9.696 -0.0937  0.2407 -0.8825
  155SAPE   H7X17310   6.156   1.073   9.683 -0.1276 -0.2292 -2.4958
  155SAPE   H7Y17311   6.000   1.144   9.696  4.3411  2.8345  2.4010
  155SAPE   C3817312   5.986   0.969   9.587  0.2584  0.7992  1.1850
  155SAPE   H8X17313   5.876   0.985   9.595  0.3938  2.8167 -0.1581
  155SAPE   H8Y17314   6.002   0.860   9.600  0.4255  0.7697  0.7567
  155SAPE   C3917315   6.020   1.008   9.440  0.4776  0.2684  0.4093
  155SAPE   H9X17316   6.127   1.014   9.409 -0.2812  2.3820 -2.2228
  155SAPE   H9Y17317   5.973   1.106   9.418  1.2889  0.3001 -1.3883
  155SAPE  C31017318   5.960   0.902   9.358  0.3250 -0.8114  0.3944
  155SAPE  H10X17319   5.859   0.865   9.384  0.4964 -0.8705  0.9957
  155SAPE  H10Y17320   6.031   0.817   9.374 -0.6167 -1.7361 -0.2575
  155SAPE  C31117321   5.973   0.942   9.211  0.0893  0.5619  0.0282
  155SAPE  H11X17322   6.080   0.943   9.182  0.2822 -1.7536  0.4416
  155SAPE  H11Y17323   5.919   1.039   9.208  0.5189  0.8830  1.7362
  155SAPE  C31217324   5.904   0.845   9.118  0.2950  0.1144  0.2992
  155SAPE  H12X17325   5.807   0.801   9.151  0.9857 -1.5620  0.1492
  155SAPE  H12Y17326   5.972   0.759   9.106  0.1361  0.1260 -0.7069
  155SAPE  C31317327   5.892   0.908   8.976 -0.4774  0.3946 -0.0976
  155SAPE  H13X17328   5.990   0.951   8.946 -0.4750 -0.5219 -1.4719
  155SAPE  H13Y17329   5.817   0.988   8.990 -0.7440 -0.0242  0.9901
  155SAPE  C31417330   5.854   0.803   8.866 -0.8570 -0.6075  0.8542
  155SAPE  H14X17331   5.756   0.770   8.906 -1.3752  2.2275  2.1861
  155SAPE  H14Y17332   5.926   0.719   8.860  0.3875  0.5332 -1.7977
  155SAPE  C31517333   5.845   0.852   8.713  0.0910  0.1466 -0.3520
  155SAPE  H15X17334   5.788   0.778   8.653 -1.2681  0.6736  0.2467
  155SAPE  H15Y17335   5.945   0.853   8.665 -0.4309 -0.2720 -1.4876
  155SAPE  C31617336   5.795   0.992   8.705 -0.3596 -0.0541  0.1932
  155SAPE  H16X17337   5.850   1.067   8.766 -0.6522 -0.3005  0.7654
  155SAPE  H16Y17338   5.698   1.002   8.758 -2.2146  3.2798 -3.2763
  155SAPE  C31717339   5.757   1.035   8.553  0.0075  0.0306 -1.1095
  155SAPE  H17X17340   5.852   1.045   8.498  0.4017 -1.0209 -0.6342
  155SAPE  H17Y17341   5.711   1.137   8.554  0.1255  0.1392  1.6538
  155SAPE  C31817342   5.661   0.941   8.482 -1.0455  0.1880 -0.5334
  155SAPE  H18X17343   5.716   0.856   8.436  1.5821  2.2829 -1.4554
  155SAPE  H18Y17344   5.612   0.992   8.397 -1.5010  0.6259 -0.0209
  155SAPE  H18Z17345   5.583   0.908   8.555 -0.3681  1.0163  0.5986
  156SAPE     N17346   3.799   3.363  10.790  0.9746 -0.3277 -0.0043
  156SAPE   HN117347   3.803   3.427  10.708 -1.4207 -0.4436 -0.2760
  156SAPE   HN217348   3.891   3.313  10.793  0.5931 -1.0564 -0.1730
  156SAPE   HN317349   3.723   3.294  10.774  1.6578 -1.0154 -0.4002
  156SAPE   C1217350   3.776   3.454  10.909 -0.5609  0.4313  1.2418
  156SAPE  H12A17351   3.793   3.385  10.994  1.2479 -1.8130 -0.7962
  156SAPE  H12B17352   3.673   3.496  10.903 -0.0452  1.6870  0.5063
  156SAPE   C1117353   3.889   3.563  10.892 -0.0776  0.4332 -0.3705
  156SAPE  H11A17354   3.988   3.517  10.874  0.6633  1.5757  0.6418
  156SAPE  H11B17355   3.886   3.586  11.001 -1.0285 -0.6635 -0.1492
  156SAPE     P17356   3.880   3.693  10.664  0.3896 -0.4735  0.0388
  156SAPE   O1317357   3.802   3.797  10.599  0.1421 -0.2986  0.1908
  156SAPE   O1417358   4.029   3.711  10.649  0.3225  0.6514 -0.4545
  156SAPE   O1217359   3.850   3.681  10.820 -1.1449  0.4884 -0.1375
  156SAPE   O1117360   3.842   3.550  10.610  0.5831 -0.1334 -0.2506
  156SAPE    C117361   3.782   3.534  10.479  0.6652  0.1041  1.0146
  156SAPE    HA17362   3.685   3.589  10.477  1.9817  2.5554  1.0051
  156SAPE    HB17363   3.842   3.593  10.406  0.8120 -0.8634  0.3485
  156SAPE    C217364   3.777   3.387  10.435  0.2879  0.4305  0.2931
  156SAPE    HS17365   3.726   3.326  10.511  0.9457 -0.5690 -0.0493
  156SAPE   O2117366   3.911   3.336  10.430 -0.2868 -0.0222 -0.0863
  156SAPE   C2117367   3.921   3.205  10.396  0.5610  0.6098 -1.0873
  156SAPE   O2217368   3.828   3.126  10.406 -0.0467  0.6978 -0.7243
  156SAPE   C2217369   4.065   3.172  10.373 -0.3180  0.2591 -0.1424
  156SAPE   H2R17370   4.114   3.263  10.332 -0.2278  0.1851 -0.2010
  156SAPE   H2S17371   4.099   3.137  10.473 -1.2808 -1.9894 -0.5260
  156SAPE    C317372   3.696   3.377  10.299 -0.3172  0.1580  0.1875
  156SAPE    HX17373   3.589   3.351  10.313 -0.0168 -0.9473  0.5410
  156SAPE    HY17374   3.736   3.292  10.241  3.3083 -0.8123  3.6233
  156SAPE   O3117375   3.702   3.499  10.224  0.3526 -0.0617 -0.0321
  156SAPE   C3117376   3.689   3.491  10.090  0.0160  0.7730 -0.2515
  156SAPE   O3217377   3.671   3.387  10.033 -0.3331 -0.0664  1.0240
  156SAPE   C3217378   3.692   3.634  10.036  0.5772 -0.3607 -0.1717
  156SAPE   H2X17379   3.795   3.664  10.066 -0.1040 -1.4725  3.8512
  156SAPE   H2Y17380   3.630   3.705  10.094  2.3945  0.8101  0.4382
  156SAPE   C2317381   4.065   3.064  10.267  0.3001  0.3788 -0.5395
  156SAPE   H3R17382   4.052   3.122  10.174 -1.6474  0.2192 -0.4030
  156SAPE   H3S17383   3.978   2.996  10.279  1.1477 -0.7390 -0.5085
  156SAPE   C2417384   4.191   2.973  10.279  1.1899  0.2041  0.7327
  156SAPE   H4R17385   4.203   2.940  10.385  1.1333  0.4737  0.8225
  156SAPE   H4S17386   4.286   3.023  10.250  0.5922  2.4121  2.3646
  156SAPE   C2517387   4.173   2.855  10.188 -0.6132  0.1152 -0.4715
  156SAPE   H5R17388   4.086   2.793  10.212  1.7833 -2.7858  1.4741
  156SAPE   C2617389   4.265   2.822  10.086  0.2785 -0.1552 -0.3435
  156SAPE   H6R17390   4.243   2.729  10.032 -3.3089  1.0086 -1.1916
  156SAPE   C2717391   4.384   2.903  10.047  0.2318  0.1504  0.4425
  156SAPE   H7R17392   4.453   2.888  10.133 -0.3409  0.6326  0.9920
  156SAPE   H7S17393   4.351   3.009  10.047  2.4181  0.9178  2.4871
  156SAPE   C2817394   4.445   2.861   9.909 -0.1893  0.3865  0.7017
  156SAPE   H8R17395   4.544   2.814   9.908 -0.7489 -0.8291 -0.1891
  156SAPE   C2917396   4.392   2.876   9.789  0.1915 -0.2402  0.0251
  156SAPE   H9R17397   4.454   2.846   9.704  0.9520 -1.9842  1.1297
  156SAPE  C21017398   4.250   2.922   9.753  0.2476  0.7983  0.2630
  156SAPE  H10R17399   4.263   3.032   9.748 -2.3539  1.1542  0.2233
  156SAPE  H10S17400   4.174   2.903   9.832  0.8170 -1.4860  0.3401
  156SAPE  C21117401   4.183   2.887   9.626 -0.4971 -0.4238 -0.0932
  156SAPE  H11R17402   4.093   2.825   9.639 -0.6282  0.1403  2.0310
  156SAPE  C21217403   4.239   2.913   9.497  0.3684 -0.0805  0.0079
  156SAPE  H12R17404   4.183   2.887   9.406 -2.4941  2.1154  1.0007
  156SAPE  C21317405   4.360   2.996   9.472 -0.8319  0.0035 -0.0579
  156SAPE  H13R17406   4.450   2.932   9.461 -0.8980 -0.0765 -0.1342
  156SAPE  H13S17407   4.382   3.075   9.547 -1.9309 -0.7079  1.0673
  156SAPE  C21417408   4.350   3.071   9.340  0.0037  0.2712 -0.5254
  156SAPE  H14R17409   4.310   3.174   9.336 -1.9472 -0.4861 -1.6353
  156SAPE  C21517410   4.393   3.014   9.220 -0.7366  0.8520  0.3992
  156SAPE  H15R17411   4.397   3.078   9.130 -0.9375  0.8734  0.4047
  156SAPE  C21617412   4.452   2.871   9.191  0.0597 -0.7639 -0.7916
  156SAPE  H16R17413   4.415   2.806   9.273  0.1077  1.3700  1.0153
  156SAPE  H16S17414   4.563   2.865   9.198  0.2245 -2.4594 -3.4209
  156SAPE  C21717415   4.420   2.817   9.047 -0.2153 -0.7921  0.4640
  156SAPE  H17R17416   4.436   2.901   8.975 -2.1109  1.0575  2.0520
  156SAPE  H17S17417   4.313   2.789   9.038 -0.6859  0.3352  2.0955
  156SAPE  C21817418   4.509   2.700   9.013  0.0582 -0.3670  0.0000
  156SAPE  H18R17419   4.488   2.630   9.097  0.1477 -0.8948 -0.4150
  156SAPE  H18S17420   4.617   2.724   9.021 -0.1335  0.7989 -0.7294
  156SAPE  C21917421   4.479   2.647   8.877 -0.2306 -0.5779 -0.2566
  156SAPE  H19R17422   4.369   2.638   8.867 -0.2744 -2.5217  1.2800
  156SAPE  H19S17423   4.527   2.547   8.869 -0.8237 -1.0461  1.5130
  156SAPE  C22017424   4.530   2.737   8.772  0.5313 -0.0596  0.9192
  156SAPE  H20R17425   4.512   2.687   8.675  1.6978  1.2527  0.0007
  156SAPE  H20S17426   4.638   2.754   8.786  0.5458 -0.7771  1.7770
  156SAPE  H20T17427   4.480   2.837   8.772  0.2135 -0.1740 -1.0997
  156SAPE   C3317428   3.676   3.630   9.876  0.7564  0.1132  0.1257
  156SAPE   H3X17429   3.582   3.576   9.853 -0.8452  2.2625  1.2652
  156SAPE   H3Y17430   3.762   3.576   9.832  0.6199 -0.3004  0.3611
  156SAPE   C3417431   3.654   3.767   9.820 -0.1365  0.3798  0.7185
  156SAPE   H4X17432   3.745   3.830   9.827  0.3357 -0.1311 -0.4985
  156SAPE   H4Y17433   3.569   3.819   9.869 -0.3881  1.2371 -0.5803
  156SAPE   C3517434   3.623   3.789   9.664 -0.7531  0.1327  0.2120
  156SAPE   H5X17435   3.713   3.766   9.602 -0.6224  1.0437  0.0496
  156SAPE   H5Y17436   3.580   3.891   9.667  0.7204  0.7882  3.0999
  156SAPE   C3617437   3.506   3.705   9.612 -0.4097 -0.5979 -0.6309
  156SAPE   H6X17438   3.421   3.716   9.683 -1.3399 -1.1945 -1.6256
  156SAPE   H6Y17439   3.533   3.598   9.625  1.6811  0.2232  3.2270
  156SAPE   C3717440   3.460   3.737   9.467  0.1476 -0.0466 -0.1677
  156SAPE   H7X17441   3.542   3.728   9.392 -0.6840  4.8901 -2.0615
  156SAPE   H7Y17442   3.427   3.843   9.470 -0.6245 -0.3091  0.6465
  156SAPE   C3817443   3.337   3.648   9.431 -0.3394  0.3017  0.6545
  156SAPE   H8X17444   3.266   3.681   9.510  0.9917  0.0208  2.0276
  156SAPE   H8Y17445   3.367   3.541   9.443 -0.3974  0.4015  1.8515
  156SAPE   C3917446   3.287   3.666   9.288  0.2066  0.5359 -0.5986
  156SAPE   H9X17447   3.244   3.768   9.283 -1.3746 -0.0742  0.0126
  156SAPE   H9Y17448   3.203   3.596   9.274  2.2471 -1.8149 -1.9350
  156SAPE  C31017449   3.397   3.656   9.180 -0.4528  0.7418 -0.2931
  156SAPE  H10X17450   3.451   3.559   9.189  2.0024  2.0942  0.3967
  156SAPE  H10Y17451   3.466   3.741   9.197 -0.8334  0.5191  2.9158
  156SAPE  C31117452   3.341   3.671   9.039 -0.2080 -0.0885 -0.4577
  156SAPE  H11X17453   3.417   3.637   8.965  0.4373 -0.0878  0.1955
  156SAPE  H11Y17454   3.324   3.780   9.022 -0.3834 -0.1351 -0.5753
  156SAPE  C31217455   3.216   3.595   9.004  0.3602  0.0317 -0.1853
  156SAPE  H12X17456   3.128   3.653   9.041  0.4053 -1.2533  2.1026
  156SAPE  H12Y17457   3.213   3.500   9.061  1.4044 -0.7206 -1.3492
  156SAPE  C31317458   3.201   3.578   8.853  0.1659  0.0559  0.4483
  156SAPE  H13X17459   3.297   3.540   8.811 -0.1091  1.5703 -1.7113
  156SAPE  H13Y17460   3.163   3.668   8.801  0.4034 -0.5229 -0.7845
  156SAPE  C31417461   3.089   3.481   8.825 -0.4911  0.2860 -0.6792
  156SAPE  H14X17462   2.997   3.521   8.872 -0.4611 -1.8485  1.3940
  156SAPE  H14Y17463   3.094   3.384   8.878 -0.1486  0.3158 -0.6571
  156SAPE  C31517464   3.063   3.453   8.677 -0.0378  0.4682 -0.0993
  156SAPE  H15X17465   3.037   3.545   8.620 -3.6416  0.6749  1.5818
  156SAPE  H15Y17466   2.968   3.396   8.665 -0.8951  1.9613 -0.6792
  156SAPE  C31617467   3.172   3.377   8.607 -0.4066  0.0492 -0.3175
  156SAPE  H16X17468   3.192   3.286   8.666  1.0051  0.5326 -0.0122
  156SAPE  H16Y17469   3.265   3.436   8.621 -0.9731  0.3706  2.8054
  156SAPE  C31717470   3.152   3.339   8.460 -0.7493 -0.9860 -0.7080
  156SAPE  H17X17471   3.236   3.291   8.406 -0.6242 -0.7257 -0.7455
  156SAPE  H17Y17472   3.125   3.438   8.418 -3.3383 -1.9380 -1.5154
  156SAPE  C31817473   3.023   3.258   8.430  0.4052 -0.3767 -0.1428
  156SAPE  H18X17474   3.016   3.169   8.496  2.4100  0.0809  0.7473
  156SAPE  H18Y17475   3.024   3.233   8.322  1.0372 -0.1001 -0.2068
  156SAPE  H18Z17476   2.931   3.313   8.459  2.4197  3.3618 -0.2385
  157SAPE     N17477   4.632   4.940  10.710 -0.2948  0.2630 -0.3414
  157SAPE   HN117478   4.617   4.908  10.612  2.6781 -2.1063 -0.1526
  157SAPE   HN217479   4.556   4.921  10.778  0.1883 -0.8188 -0.0824
  157SAPE   HN317480   4.658   5.041  10.717 -1.3169  0.6225 -1.2679
  157SAPE   C1217481   4.757   4.859  10.749  0.4011 -0.0640 -0.2271
  157SAPE  H12A17482   4.788   4.913  10.841  1.0699  1.0196 -1.0741
  157SAPE  H12B17483   4.832   4.869  10.668  1.5388 -0.6488  0.7311
  157SAPE   C1117484   4.727   4.715  10.774  0.0235 -0.0002 -0.1119
  157SAPE  H11A17485   4.652   4.723  10.855  1.2548  1.8742  0.9228
  157SAPE  H11B17486   4.822   4.663  10.801  0.4322  1.1144  0.6493
  157SAPE     P17487   4.684   4.497  10.637  0.1866 -0.1968 -0.2581
  157SAPE   O1317488   4.829   4.462  10.656 -0.5683  0.4408  0.3711
  157SAPE   O1417489   4.587   4.436  10.728 -0.1078  0.0092  0.4335
  157SAPE   O1217490   4.679   4.658  10.649 -0.1153 -0.1410  0.0400
  157SAPE   O1117491   4.642   4.481  10.487 -0.1173  0.1827 -0.1638
  157SAPE    C117492   4.673   4.356  10.415  0.0806 -0.1015 -0.6093
  157SAPE    HA17493   4.682   4.270  10.485  0.0074 -1.0186 -1.7060
  157SAPE    HB17494   4.593   4.322  10.346  1.5051  0.0113 -2.3832
  157SAPE    C217495   4.786   4.376  10.312  0.0473 -0.4904  0.2729
  157SAPE    HS17496   4.880   4.406  10.365 -0.1369 -0.4175  0.5638
  157SAPE   O2117497   4.738   4.474  10.212 -0.2015 -0.6963 -0.0633
  157SAPE   C2117498   4.828   4.527  10.136  0.4310 -0.1308 -0.1296
  157SAPE   O2217499   4.950   4.523  10.146  0.3905 -0.1916 -0.0264
  157SAPE   C2217500   4.761   4.617  10.027  0.3764 -0.7781 -0.7707
  157SAPE   H2R17501   4.652   4.614  10.047 -0.4692 -1.2280 -4.7027
  157SAPE   H2S17502   4.800   4.721  10.031 -1.1102  0.0873 -4.3879
  157SAPE    C317503   4.808   4.233  10.242 -0.1508  0.0912 -0.0890
  157SAPE    HX17504   4.715   4.212  10.184  0.0132 -3.7123  0.7718
  157SAPE    HY17505   4.809   4.152  10.318 -3.4638  0.2675  0.3093
  157SAPE   O3117506   4.916   4.237  10.149  0.2611  0.2610  0.1317
  157SAPE   C3117507   5.032   4.170  10.166 -0.3646  0.5152  0.1433
  157SAPE   O3217508   5.061   4.098  10.258  0.0734 -0.9115  0.5810
  157SAPE   C3217509   5.117   4.205  10.047 -0.5849  0.6505 -0.3479
  157SAPE   H2X17510   5.198   4.134  10.020 -1.0753 -0.1897  0.3397
  157SAPE   H2Y17511   5.172   4.296  10.080 -0.1113 -0.3084  1.6461
  157SAPE   C2317512   4.790   4.582   9.876  0.6359  0.0995 -0.3018
  157SAPE   H3R17513   4.739   4.485   9.856 -1.8795  0.8006  2.0165
  157SAPE   H3S17514   4.900   4.570   9.868  0.4845 -1.3706 -0.5954
  157SAPE   C2417515   4.732   4.688   9.782  0.0706  0.0717  0.1377
  157SAPE   H4R17516   4.793   4.779   9.799 -0.8796  0.5963  0.8574
  157SAPE   H4S17517   4.623   4.702   9.799 -0.6066 -0.5076 -3.0998
  157SAPE   C2517518   4.743   4.647   9.642  0.5869  0.4279  0.3351
  157SAPE   H5R17519   4.846   4.618   9.620 -0.1692 -0.4144 -2.6128
  157SAPE   C2617520   4.646   4.642   9.543 -0.1457 -0.0352 -0.0105
  157SAPE   H6R17521   4.679   4.624   9.439  1.6138 -0.6860  0.6267
  157SAPE   C2717522   4.496   4.662   9.561  0.9788 -0.5964  0.3185
  157SAPE   H7R17523   4.446   4.655   9.462  1.1742  0.0950  0.1608
  157SAPE   H7S17524   4.468   4.766   9.589 -1.1701 -1.4352  1.5445
  157SAPE   C2817525   4.423   4.565   9.659 -0.0111 -0.4237  0.2970
  157SAPE   H8R17526   4.428   4.589   9.767  1.0796 -1.2896  0.4541
  157SAPE   C2917527   4.355   4.458   9.616 -0.0878  0.6794  0.0702
  157SAPE   H9R17528   4.320   4.390   9.695 -0.4442  1.4409  0.5812
  157SAPE  C21017529   4.321   4.416   9.474  0.0235  0.1106  0.1236
  157SAPE  H10R17530   4.302   4.307   9.466 -1.4672  0.2585  1.1946
  157SAPE  H10S17531   4.424   4.432   9.434 -0.7629 -0.5913 -2.3372
  157SAPE  C21117532   4.214   4.486   9.398  0.5447  0.6312 -0.3457
  157SAPE  H11R17533   4.191   4.584   9.441  0.0695  0.7333 -0.8219
  157SAPE  C21217534   4.158   4.440   9.285 -0.0985 -0.3900  0.0125
  157SAPE  H12R17535   4.073   4.498   9.245 -0.1675  0.9796  1.9996
  157SAPE  C21317536   4.189   4.310   9.220  0.3339  0.3994 -0.2403
  157SAPE  H13R17537   4.093   4.269   9.182  0.0306 -0.5465  1.4653
  157SAPE  H13S17538   4.224   4.240   9.299 -2.2214 -1.8277 -0.9279
  157SAPE  C21417539   4.292   4.332   9.118  0.1537  0.3169  0.5293
  157SAPE  H14R17540   4.390   4.357   9.162  0.0719  3.8843 -0.9720
  157SAPE  C21517541   4.272   4.336   8.987  0.1859 -0.7531  0.3737
  157SAPE  H15R17542   4.355   4.375   8.926  0.8426 -1.9180  0.4746
  157SAPE  C21617543   4.144   4.328   8.908  0.7664 -1.3974 -0.4033
  157SAPE  H16R17544   4.059   4.306   8.976  0.7388  2.8995  1.2374
  157SAPE  H16S17545   4.160   4.258   8.822  0.2199 -1.6780 -0.2842
  157SAPE  C21717546   4.120   4.477   8.861 -0.6388  0.8577  0.0900
  157SAPE  H17R17547   4.204   4.510   8.795  0.6104  0.4842  1.4387
  157SAPE  H17S17548   4.117   4.538   8.954 -1.8987  1.6099 -0.4225
  157SAPE  C21817549   3.992   4.476   8.773  0.9434  0.2722 -0.1335
  157SAPE  H18R17550   3.904   4.464   8.840  1.5350 -0.5730  0.5229
  157SAPE  H18S17551   3.995   4.394   8.699  0.6569 -0.2705  0.4559
  157SAPE  C21917552   3.993   4.602   8.685 -0.6493 -0.0261 -0.5676
  157SAPE  H19R17553   4.071   4.591   8.607  0.2763 -1.0629  0.4559
  157SAPE  H19S17554   4.028   4.681   8.754 -1.0594 -1.0654  0.8869
  157SAPE  C22017555   3.859   4.655   8.630  0.2406 -0.7675  0.1063
  157SAPE  H20R17556   3.832   4.599   8.537  1.1899 -0.5301 -0.3209
  157SAPE  H20S17557   3.868   4.763   8.605 -0.5195 -0.7647 -0.1789
  157SAPE  H20T17558   3.775   4.654   8.704 -1.8452 -1.5445 -2.1222
  157SAPE   C3317559   5.035   4.236   9.917  0.0634 -0.2191 -0.3926
  157SAPE   H3X17560   4.960   4.315   9.935 -1.7028 -1.3405 -2.3819
  157SAPE   H3Y17561   4.983   4.155   9.860 -1.5909  2.2527 -2.6368
  157SAPE   C3417562   5.128   4.314   9.815 -0.0897 -0.0677 -0.1181
  157SAPE   H4X17563   5.216   4.251   9.791  0.9829  0.8452  1.2767
  157SAPE   H4Y17564   5.171   4.407   9.859 -1.4858  0.9793 -0.8954
  157SAPE   C3517565   5.057   4.331   9.687 -0.3916 -0.5579 -0.4548
  157SAPE   H5X17566   4.951   4.356   9.708 -0.8075 -1.8378 -0.9244
  157SAPE   H5Y17567   5.055   4.233   9.633  1.0626 -0.6954 -0.3019
  157SAPE   C3617568   5.114   4.440   9.591 -0.3879 -0.1997 -0.7693
  157SAPE   H6X17569   5.225   4.437   9.606 -0.3884  1.7551 -0.0837
  157SAPE   H6Y17570   5.079   4.538   9.628  1.3744  0.2473 -0.1607
  157SAPE   C3717571   5.056   4.412   9.450  1.1081 -0.1656  0.0214
  157SAPE   H7X17572   4.947   4.409   9.470  0.7181  2.6759 -1.1495
  157SAPE   H7Y17573   5.093   4.312   9.419  1.1553 -1.1108  2.8284
  157SAPE   C3817574   5.068   4.526   9.339  0.0830  0.1894  0.1753
  157SAPE   H8X17575   5.012   4.489   9.251 -0.1343  2.0142 -0.4912
  157SAPE   H8Y17576   5.178   4.522   9.325  0.0016 -2.1922 -0.1548
  157SAPE   C3917577   5.024   4.671   9.373 -0.4302 -0.3109  0.4790
  157SAPE   H9X17578   5.081   4.716   9.458  1.7982 -0.5966 -0.7795
  157SAPE   H9Y17579   4.917   4.671   9.404 -0.3136 -4.2628  1.4634
  157SAPE  C31017580   5.046   4.761   9.242 -0.0328 -0.1120 -0.6921
  157SAPE  H10X17581   5.016   4.705   9.151 -0.5953  2.4763 -2.1922
  157SAPE  H10Y17582   5.156   4.774   9.228 -0.0095 -1.5704 -2.0559
  157SAPE  C31117583   4.973   4.891   9.240  0.0771 -0.5118  0.4800
  157SAPE  H11X17584   5.031   4.957   9.308  0.5771 -0.4370 -0.0078
  157SAPE  H11Y17585   4.868   4.880   9.273  0.4487 -0.4586  1.7024
  157SAPE  C31217586   4.977   4.963   9.107  0.6050 -0.0067  0.4592
  157SAPE  H12X17587   4.925   5.061   9.111  1.5648  0.7189 -2.3448
  157SAPE  H12Y17588   4.929   4.900   9.029 -0.6142  2.2257 -0.6845
  157SAPE  C31317589   5.117   5.000   9.053 -0.2551  0.7502 -0.2478
  157SAPE  H13X17590   5.162   4.907   9.011 -0.7284  0.6994 -0.6534
  157SAPE  H13Y17591   5.174   5.043   9.138  0.7360 -0.2631 -0.3708
  157SAPE  C31417592   5.106   5.097   8.934  0.3506 -0.0799 -0.1792
  157SAPE  H14X17593   5.062   5.188   8.980  1.0536 -0.9749  2.4048
  157SAPE  H14Y17594   5.034   5.059   8.858 -1.8855 -0.9895  2.2516
  157SAPE  C31517595   5.244   5.137   8.871  0.3417  0.8217 -0.3852
  157SAPE  H15X17596   5.307   5.046   8.882 -2.1343 -1.1657 -1.3733
  157SAPE  H15Y17597   5.282   5.219   8.936  0.0636  0.0246  0.8290
  157SAPE  C31617598   5.209   5.181   8.725 -0.5934 -0.2645 -0.3015
  157SAPE  H16X17599   5.117   5.243   8.727  0.0331  0.8329 -2.5305
  157SAPE  H16Y17600   5.185   5.086   8.673  0.8981 -1.6453  1.3870
  157SAPE  C31717601   5.330   5.241   8.667  0.3876  0.2167  0.2996
  157SAPE  H17X17602   5.396   5.165   8.622 -0.1751  0.4176 -0.9359
  157SAPE  H17Y17603   5.381   5.303   8.743  0.6471  2.4400 -1.5562
  157SAPE  C31817604   5.288   5.345   8.561 -0.3570 -0.0214  0.3902
  157SAPE  H18X17605   5.382   5.402   8.542  0.7963 -1.5907  1.1041
  157SAPE  H18Y17606   5.208   5.414   8.594  0.4201  1.0233  0.1606
  157SAPE  H18Z17607   5.247   5.284   8.479  0.4619 -1.1432  0.7795
  158SAPE     N17608   6.407   3.859  10.868  0.6747  0.0660 -0.0649
  158SAPE   HN117609   6.448   3.798  10.795 -3.2069 -0.8339 -1.7677
  158SAPE   HN217610   6.338   3.918  10.817  1.3529 -0.3268 -1.4623
  158SAPE   HN317611   6.479   3.929  10.894  2.8996 -1.0797 -2.6927
  158SAPE   C1217612   6.355   3.783  10.979 -0.0427  0.8659 -0.2906
  158SAPE  H12A17613   6.330   3.856  11.059 -0.0947 -0.2092  0.7029
  158SAPE  H12B17614   6.443   3.721  11.008  0.2569  0.4617 -1.9248
  158SAPE   C1117615   6.238   3.699  10.935  0.7198  0.7591 -0.1514
  158SAPE  H11A17616   6.153   3.765  10.907  1.6972  1.8260 -0.7090
  158SAPE  H11B17617   6.199   3.640  11.021  0.1671  1.1077 -0.1543
  158SAPE     P17618   6.185   3.597  10.703 -0.1256  0.3301  0.2443
  158SAPE   O1317619   6.254   3.512  10.605  0.0315  0.1436  0.3063
  158SAPE   O1417620   6.049   3.548  10.747 -0.4281 -0.3352  0.2493
  158SAPE   O1217621   6.271   3.604  10.833 -0.1641  0.0255  0.2534
  158SAPE   O1117622   6.176   3.748  10.660  0.2938  0.2409  0.8368
  158SAPE    C117623   6.054   3.804  10.607  0.1113  0.1807 -0.1168
  158SAPE    HA17624   5.973   3.785  10.680 -0.9897  0.8883 -1.1306
  158SAPE    HB17625   6.066   3.913  10.590  2.2200 -0.1980 -1.4657
  158SAPE    C217626   6.023   3.744  10.471  0.4694  0.5231 -0.3556
  158SAPE    HS17627   6.013   3.635  10.483  0.2721  0.5307 -0.4531
  158SAPE   O2117628   6.130   3.782  10.384  0.4864 -0.0483  0.2917
  158SAPE   C2117629   6.138   3.716  10.270  0.6620 -0.5550 -0.2373
  158SAPE   O2217630   6.065   3.621  10.240 -0.0954 -0.2383 -0.9229
  158SAPE   C2217631   6.246   3.780  10.186 -0.6121 -0.2880  0.8199
  158SAPE   H2R17632   6.311   3.847  10.247 -1.8151 -0.6710  2.6050
  158SAPE   H2S17633   6.306   3.693  10.152 -1.8074 -0.4242 -1.0756
  158SAPE    C317634   5.876   3.791  10.440 -0.5691 -0.8436 -0.5115
  158SAPE    HX17635   5.877   3.897  10.470 -1.5203  0.1925 -3.7522
  158SAPE    HY17636   5.802   3.742  10.507  0.2279 -0.0348  1.0207
  158SAPE   O3117637   5.843   3.790  10.304  0.2302  0.0671 -0.1612
  158SAPE   C3117638   5.768   3.688  10.265  0.1455  0.0455 -0.4179
  158SAPE   O3217639   5.730   3.594  10.332  0.3914  0.2913  0.3508
  158SAPE   C3217640   5.720   3.703  10.116  0.1267  0.2990  0.5490
  158SAPE   H2X17641   5.622   3.754  10.114  0.2072  0.4439  0.1031
  158SAPE   H2Y17642   5.698   3.598  10.085 -1.8139  0.9114 -0.3198
  158SAPE   C2317643   6.200   3.854  10.062 -0.6679  0.3080  0.6313
  158SAPE   H3R17644   6.130   3.802   9.993 -0.2092  0.2229  0.2278
  158SAPE   H3S17645   6.292   3.873  10.003 -0.9985 -0.8739 -0.3020
  158SAPE   C2417646   6.138   3.987  10.102 -0.0499 -0.3688  0.1082
  158SAPE   H4R17647   6.222   4.048  10.144 -0.4486  0.5419 -0.3777
  158SAPE   H4S17648   6.063   3.968  10.181 -1.6027 -0.9186 -1.4537
  158SAPE   C2517649   6.087   4.068   9.978  0.0500  0.8542  0.1746
  158SAPE   H5R17650   6.138   4.045   9.883 -1.1916 -0.5075 -0.2029
  158SAPE   C2617651   5.984   4.149   9.979  0.3820  0.0965  0.0612
  158SAPE   H6R17652   5.953   4.198   9.885  1.7785  0.6652 -0.1187
  158SAPE   C2717653   5.900   4.185  10.094  0.2025  0.2800  0.4610
  158SAPE   H7R17654   5.898   4.103  10.168 -0.1825 -1.8253 -1.7756
  158SAPE   H7S17655   5.795   4.198  10.059 -0.5603  0.1742  2.5897
  158SAPE   C2817656   5.962   4.308  10.144 -0.1948  0.1036  0.4083
  158SAPE   H8R17657   6.070   4.311  10.166 -0.8218  1.6566  4.1254
  158SAPE   C2917658   5.900   4.426  10.155 -0.7993  0.2310 -0.0679
  158SAPE   H9R17659   5.971   4.501  10.194 -0.7801 -0.0164  0.3821
  158SAPE  C21017660   5.762   4.462  10.119  0.2209  0.0018  0.4580
  158SAPE  H10R17661   5.699   4.461  10.210 -2.4304  0.2338 -1.2814
  158SAPE  H10S17662   5.708   4.391  10.053 -2.6328  1.2044  1.3719
  158SAPE  C21117663   5.746   4.601  10.056  0.6520  0.5090 -0.1065
  158SAPE  H11R17664   5.831   4.669  10.071  1.9787 -0.4327 -2.6314
  158SAPE  C21217665   5.643   4.648   9.983  0.9108 -0.3114 -0.4536
  158SAPE  H12R17666   5.654   4.752   9.951 -0.0757  0.0265  0.2355
  158SAPE  C21317667   5.516   4.575   9.944  0.3863  0.0757 -0.1465
  158SAPE  H13R17668   5.506   4.483  10.006  0.9027  0.7014  0.8783
  158SAPE  H13S17669   5.528   4.555   9.835  0.9205  1.4577 -0.3543
  158SAPE  C21417670   5.383   4.653   9.964  0.4704 -0.0198  0.5762
  158SAPE  H14R17671   5.305   4.604  10.024  0.1690  1.3905  1.3898
  158SAPE  C21517672   5.358   4.775   9.905  0.3301 -0.9550  0.9971
  158SAPE  H15R17673   5.263   4.830   9.907  1.4156  1.1758 -0.4795
  158SAPE  C21617674   5.447   4.837   9.795 -0.3924 -0.0701  0.3853
  158SAPE  H16R17675   5.551   4.797   9.788 -0.8345 -0.8805 -3.1540
  158SAPE  H16S17676   5.451   4.944   9.827  0.4416  0.0521 -0.1031
  158SAPE  C21717677   5.382   4.833   9.661  0.5224  0.3606 -0.9118
  158SAPE  H17R17678   5.276   4.863   9.675  1.3013  2.5713  1.0104
  158SAPE  H17S17679   5.384   4.727   9.629  0.2078  0.7349 -2.2262
  158SAPE  C21817680   5.452   4.931   9.563  0.5971  0.5176 -0.3198
  158SAPE  H18R17681   5.552   4.890   9.540  0.0849 -0.7871 -0.3323
  158SAPE  H18S17682   5.462   5.028   9.617 -1.8926 -0.4625  2.1512
  158SAPE  C21917683   5.373   4.929   9.427 -0.2739 -0.8436 -0.8918
  158SAPE  H19R17684   5.273   4.958   9.466  0.8650 -0.3137  1.9043
  158SAPE  H19S17685   5.370   4.828   9.383 -0.9768 -1.9056  1.4227
  158SAPE  C22017686   5.429   5.037   9.328 -0.1533  0.7562 -0.3680
  158SAPE  H20R17687   5.398   5.134   9.373 -0.4967 -1.4258  4.7538
  158SAPE  H20S17688   5.380   5.023   9.229  0.2525  0.4207 -0.5241
  158SAPE  H20T17689   5.539   5.034   9.316 -0.1623 -0.0012 -0.3150
  158SAPE   C3317690   5.824   3.763  10.014  0.3727 -0.2247 -0.0629
  158SAPE   H3X17691   5.927   3.726  10.034  0.4870 -0.5387 -1.1977
  158SAPE   H3Y17692   5.815   3.869  10.044 -2.5313  0.0836 -1.7162
  158SAPE   C3417693   5.803   3.733   9.863  0.2060 -0.6766  0.8946
  158SAPE   H4X17694   5.702   3.769   9.836  0.4873  1.0377  1.9797
  158SAPE   H4Y17695   5.815   3.627   9.831 -0.9493 -0.6558  0.3485
  158SAPE   C3517696   5.894   3.820   9.776  0.3224  0.0866 -0.3033
  158SAPE   H5X17697   5.999   3.782   9.776  0.8058  1.2771 -2.2407
  158SAPE   H5Y17698   5.898   3.929   9.801  0.1633 -0.5114  2.6882
  158SAPE   C3617699   5.855   3.811   9.620 -0.1200 -0.0971  0.0198
  158SAPE   H6X17700   5.746   3.826   9.607  0.1179  1.0432 -0.9246
  158SAPE   H6Y17701   5.864   3.705   9.588  0.9029 -0.5025  1.5542
  158SAPE   C3717702   5.916   3.913   9.527  0.3357  0.3333 -0.2631
  158SAPE   H7X17703   6.022   3.880   9.512 -0.1103 -0.6863 -1.3525
  158SAPE   H7Y17704   5.908   4.003   9.591 -2.3809  0.5802 -0.8330
  158SAPE   C3817705   5.840   3.929   9.394 -0.5305 -0.8944  0.0978
  158SAPE   H8X17706   5.740   3.961   9.430 -0.6268 -1.1156  0.0240
  158SAPE   H8Y17707   5.835   3.831   9.344 -1.5910 -1.2676  0.8953
  158SAPE   C3917708   5.909   4.038   9.302 -0.0152 -0.4647  0.0663
  158SAPE   H9X17709   6.018   4.015   9.297 -0.4355 -2.4131 -0.6275
  158SAPE   H9Y17710   5.898   4.135   9.356  0.1513  0.0141 -0.7339
  158SAPE  C31017711   5.829   4.055   9.169  0.3324 -0.3636  0.4684
  158SAPE  H10X17712   5.723   4.083   9.188  0.8180 -0.5274  3.9796
  158SAPE  H10Y17713   5.845   3.962   9.110  0.9553  0.4324 -0.6676
  158SAPE  C31117714   5.896   4.175   9.095  0.3607  0.3591 -0.4456
  158SAPE  H11X17715   6.006   4.176   9.109  0.4058  1.4412 -0.8084
  158SAPE  H11Y17716   5.834   4.264   9.119 -1.8048 -0.9311 -0.9400
  158SAPE  C31217717   5.875   4.151   8.950  0.0830  0.5852 -0.1020
  158SAPE  H12X17718   5.941   4.067   8.917  0.9512  1.5188 -0.7996
  158SAPE  H12Y17719   5.907   4.242   8.895  2.0801 -0.4960 -0.8639
  158SAPE  C31317720   5.733   4.116   8.904 -0.8164 -0.0744 -0.5221
  158SAPE  H13X17721   5.668   4.195   8.948  0.0764  0.2624  0.2290
  158SAPE  H13Y17722   5.699   4.021   8.949 -1.7006 -0.2120 -1.4490
  158SAPE  C31417723   5.737   4.126   8.750  0.5797 -0.6806 -0.0744
  158SAPE  H14X17724   5.808   4.055   8.703 -1.3574 -1.6499 -1.6755
  158SAPE  H14Y17725   5.746   4.231   8.715 -3.4554  0.0627  0.5873
  158SAPE  C31517726   5.591   4.089   8.690  0.4143 -0.0312 -0.4884
  158SAPE  H15X17727   5.593   4.071   8.580  1.2522  0.1761 -0.5138
  158SAPE  H15Y17728   5.533   4.183   8.706  0.0540 -0.7697  3.6496
  158SAPE  C31617729   5.523   3.973   8.763  0.6143 -0.1992 -0.4260
  158SAPE  H16X17730   5.523   4.007   8.869  3.8627  1.3888 -0.8089
  158SAPE  H16Y17731   5.582   3.879   8.764 -0.7756 -1.0936 -0.1683
  158SAPE  C31717732   5.380   3.952   8.723  0.3353 -0.3935 -0.2910
  158SAPE  H17X17733   5.375   3.889   8.632  0.0263 -0.8470  0.0321
  158SAPE  H17Y17734   5.328   4.048   8.700 -1.5166 -1.7474 -2.1125
  158SAPE  C31817735   5.301   3.886   8.831 -0.2576  0.6248 -0.0992
  158SAPE  H18X17736   5.280   3.952   8.918  1.0143  1.0159 -0.0569
  158SAPE  H18Y17737   5.348   3.794   8.870 -1.0089 -0.4997 -1.7500
  158SAPE  H18Z17738   5.201   3.854   8.797 -0.5250  2.1434 -0.8155
  159SAPE     N17739   6.130   3.203   6.420  0.2630  0.2343  0.4414
  159SAPE   HN117740   6.210   3.150   6.379  0.2856  0.7314 -0.1646
  159SAPE   HN217741   6.106   3.270   6.344  0.1605  0.8198  0.9846
  159SAPE   HN317742   6.164   3.244   6.509  0.3178  0.8383  0.1426
  159SAPE   C1217743   6.006   3.115   6.443  0.3010 -0.6775  0.6378
  159SAPE  H12A17744   5.996   3.052   6.352 -1.1922 -2.1765  1.7878
  159SAPE  H12B17745   5.918   3.180   6.462 -0.3122 -1.5740  0.9352
  159SAPE   C1117746   6.043   3.024   6.561  0.0219  0.5036 -0.5384
  159SAPE  H11A17747   5.956   2.958   6.581  0.2129  1.1003  2.6234
  159SAPE  H11B17748   6.030   3.088   6.651  0.2218 -1.2381  0.7806
  159SAPE     P17749   6.185   2.842   6.466  0.2006  0.1998 -0.3362
  159SAPE   O1317750   6.165   2.891   6.333 -0.0506 -0.0469  0.8717
  159SAPE   O1417751   6.313   2.771   6.494 -0.3019  0.4293  0.0786
  159SAPE   O1217752   6.173   2.958   6.564  0.1439 -0.1574 -0.5988
  159SAPE   O1117753   6.070   2.743   6.498 -0.1547 -0.0596 -0.2860
  159SAPE    C117754   6.064   2.658   6.609  0.5551  0.4309 -0.4328
  159SAPE    HA17755   6.002   2.575   6.567 -0.7167  0.0180  2.0751
  159SAPE    HB17756   6.159   2.605   6.633 -0.5816 -2.2336 -1.3994
  159SAPE    C217757   5.997   2.725   6.737  0.6532 -0.0907  0.0264
  159SAPE    HS17758   5.916   2.797   6.713  1.3283  1.7703  2.8539
  159SAPE   O2117759   6.097   2.789   6.819 -0.3615  0.3197  0.0932
  159SAPE   C2117760   6.046   2.900   6.872  0.1139 -0.2283 -0.8203
  159SAPE   O2217761   5.933   2.941   6.853 -0.1755 -0.5415  0.2118
  159SAPE   C2217762   6.146   2.961   6.976  1.0122  0.4078  0.3153
  159SAPE   H2R17763   6.149   2.886   7.058 -1.0640  1.4097  1.3859
  159SAPE   H2S17764   6.244   2.969   6.925 -0.4088 -1.3340 -3.0102
  159SAPE    C317765   5.935   2.610   6.818 -0.2773  0.1029 -0.1408
  159SAPE    HX17766   6.009   2.533   6.847  0.3803  1.4708  2.0344
  159SAPE    HY17767   5.866   2.552   6.754  0.0687 -0.9799  0.4506
  159SAPE   O3117768   5.879   2.656   6.943 -0.5872  0.6955  0.2818
  159SAPE   C3117769   5.747   2.676   6.936 -0.0861  0.2290  0.6579
  159SAPE   O3217770   5.674   2.653   6.841 -0.4379  0.3333  0.2761
  159SAPE   C3217771   5.702   2.751   7.054 -0.0311 -0.8462  0.4399
  159SAPE   H2X17772   5.597   2.716   7.061 -0.0784 -1.0160 -0.9236
  159SAPE   H2Y17773   5.702   2.859   7.027 -0.8983 -1.3288 -1.6016
  159SAPE   C2317774   6.116   3.100   7.024  0.3174 -0.1973 -0.0418
  159SAPE   H3R17775   6.009   3.105   7.053 -0.0481 -1.4484 -1.1091
  159SAPE   H3S17776   6.134   3.171   6.940 -1.1153 -0.0622 -0.2466
  159SAPE   C2417777   6.195   3.152   7.149  0.1987  0.5550 -0.1224
  159SAPE   H4R17778   6.183   3.083   7.235  1.3506 -0.1725 -0.5127
  159SAPE   H4S17779   6.141   3.243   7.181 -1.5543 -0.4325 -0.1869
  159SAPE   C2517780   6.329   3.197   7.104  0.5059 -0.1346  0.0706
  159SAPE   H5R17781   6.314   3.287   7.044  0.8122  0.6558  1.1555
  159SAPE   C2617782   6.449   3.151   7.146  0.6322  0.0419  0.3244
  159SAPE   H6R17783   6.542   3.201   7.113  0.6834 -0.4601 -0.3250
  159SAPE   C2717784   6.470   3.033   7.240 -0.2262 -0.0481  0.4510
  159SAPE   H7R17785   6.376   3.034   7.300  0.8192  0.9796  2.1384
  159SAPE   H7S17786   6.546   3.057   7.318  0.7567 -1.5589  0.0034
  159SAPE   C2817787   6.486   2.898   7.167 -0.4457 -0.4812  0.4419
  159SAPE   H8R17788   6.540   2.906   7.071  2.8682  0.4521  2.2097
  159SAPE   C2917789   6.433   2.782   7.207  0.1465 -0.8819  0.4778
  159SAPE   H9R17790   6.455   2.692   7.148  1.0956 -0.3751  0.0293
  159SAPE  C21017791   6.351   2.766   7.329  0.0731  0.4515  0.3111
  159SAPE  H10R17792   6.243   2.742   7.315 -0.2701  2.5716 -1.2747
  159SAPE  H10S17793   6.357   2.851   7.401  0.7105  0.5865  0.1072
  159SAPE  C21117794   6.405   2.645   7.397  1.1391  0.5147 -0.2810
  159SAPE  H11R17795   6.425   2.564   7.326 -1.3584  0.5877 -1.1493
  159SAPE  C21217796   6.417   2.618   7.528 -0.3910 -0.5134 -0.4798
  159SAPE  H12R17797   6.458   2.523   7.565  1.0008  0.5257  0.7084
  159SAPE  C21317798   6.381   2.715   7.637  0.2031  0.0816 -0.3891
  159SAPE  H13R17799   6.375   2.820   7.601 -2.3092 -0.0053 -0.4010
  159SAPE  H13S17800   6.460   2.726   7.713 -0.5974 -1.6344  0.7586
  159SAPE  C21417801   6.249   2.690   7.706 -0.5882 -0.4393 -0.3301
  159SAPE  H14R17802   6.163   2.685   7.638 -0.2258  2.1141 -1.0888
  159SAPE  C21517803   6.236   2.656   7.836  0.0195 -0.1483  0.2759
  159SAPE  H15R17804   6.136   2.634   7.879 -0.3280  0.2967 -0.3056
  159SAPE  C21617805   6.347   2.637   7.938  0.1735 -0.8707 -0.1232
  159SAPE  H16R17806   6.425   2.714   7.922 -0.8872  0.4023  0.6233
  159SAPE  H16S17807   6.406   2.544   7.926 -0.5049 -1.4796  1.0410
  159SAPE  C21717808   6.295   2.649   8.080 -0.5138 -0.6049  0.1252
  159SAPE  H17R17809   6.382   2.650   8.149 -1.3115 -0.0408  1.1560
  159SAPE  H17S17810   6.234   2.556   8.092 -2.3383  0.6633  1.1522
  159SAPE  C21817811   6.210   2.770   8.113  0.0944 -0.1635 -0.3414
  159SAPE  H18R17812   6.125   2.777   8.041  1.3978  2.4185 -1.7706
  159SAPE  H18S17813   6.274   2.860   8.100  2.1417 -1.4653  0.2426
  159SAPE  C21917814   6.134   2.781   8.241 -0.0545  0.1250  0.4523
  159SAPE  H19R17815   6.198   2.804   8.329 -1.0863  1.6537  0.8429
  159SAPE  H19S17816   6.095   2.679   8.261  1.2516 -0.0998  2.0983
  159SAPE  C22017817   6.015   2.867   8.245  0.7281 -0.3095 -0.2791
  159SAPE  H20R17818   5.970   2.878   8.346 -1.9898  0.3952 -1.4916
  159SAPE  H20S17819   5.941   2.830   8.171 -0.7710 -0.2419  1.1346
  159SAPE  H20T17820   6.040   2.972   8.219  2.6932 -0.1737  1.7598
  159SAPE   C3317821   5.783   2.723   7.182  0.1976  0.6552 -0.2758
  159SAPE   H3X17822   5.889   2.748   7.162  0.6482 -1.5341 -0.8284
  159SAPE   H3Y17823   5.781   2.613   7.198 -1.9153  0.0041 -3.9507
  159SAPE   C3417824   5.744   2.824   7.291  0.1351 -0.8894 -0.5390
  159SAPE   H4X17825   5.633   2.830   7.299  0.1954 -0.1103 -0.1760
  159SAPE   H4Y17826   5.767   2.928   7.259 -0.5119 -1.2926 -2.4701
  159SAPE   C3517827   5.796   2.787   7.428  0.1768  0.1648  0.3339
  159SAPE   H5X17828   5.901   2.750   7.429 -1.1514 -4.2699 -0.7536
  159SAPE   H5Y17829   5.737   2.700   7.463  1.7176 -2.0953 -2.2188
  159SAPE   C3617830   5.786   2.898   7.537 -0.0595 -0.3621 -0.1363
  159SAPE   H6X17831   5.684   2.906   7.579  0.0279  1.0542 -0.1309
  159SAPE   H6Y17832   5.808   2.995   7.488 -0.1338 -0.7142 -0.8805
  159SAPE   C3717833   5.897   2.895   7.642 -0.0952 -0.2463 -0.0398
  159SAPE   H7X17834   5.995   2.890   7.590 -1.1472 -1.6895 -1.9962
  159SAPE   H7Y17835   5.890   2.797   7.695 -0.9798 -0.7008 -0.9745
  159SAPE   C3817836   5.873   2.996   7.751 -0.1584 -0.6318 -0.0003
  159SAPE   H8X17837   5.768   2.980   7.783 -0.0937  0.0848  0.5940
  159SAPE   H8Y17838   5.885   3.101   7.716  1.8098 -0.4434  1.0536
  159SAPE   C3917839   5.967   2.972   7.870  0.3556 -0.4183 -0.0346
  159SAPE   H9X17840   6.060   2.929   7.826  0.1179 -1.9403  0.8999
  159SAPE   H9Y17841   5.930   2.901   7.946 -0.4113 -0.5728 -0.5381
  159SAPE  C31017842   5.989   3.107   7.935  0.4018  0.0121 -0.1555
  159SAPE  H10X17843   5.996   3.185   7.857 -2.2365 -0.5726 -1.0770
  159SAPE  H10Y17844   6.085   3.108   7.991  2.7317 -1.4997 -3.7546
  159SAPE  C31117845   5.875   3.153   8.018  0.1475 -0.7391 -0.6394
  159SAPE  H11X17846   5.864   3.088   8.108  0.1662  1.1949  0.8210
  159SAPE  H11Y17847   5.787   3.125   7.956 -0.5196 -0.7547  0.3020
  159SAPE  C31217848   5.866   3.305   8.043 -0.1566  0.9392 -0.2769
  159SAPE  H12X17849   5.760   3.324   8.072 -1.0139 -3.3066  0.0200
  159SAPE  H12Y17850   5.893   3.359   7.950  1.8469  0.0022 -0.2890
  159SAPE  C31317851   5.961   3.352   8.153  0.1545  0.0559  0.3456
  159SAPE  H13X17852   6.054   3.377   8.097 -0.4025  2.5315  0.3815
  159SAPE  H13Y17853   5.986   3.275   8.229  0.5569 -0.3113 -0.1502
  159SAPE  C31417854   5.909   3.487   8.216 -0.2300  0.1214  0.1426
  159SAPE  H14X17855   5.831   3.457   8.290  1.2705 -0.4897  1.5454
  159SAPE  H14Y17856   5.867   3.556   8.140  2.1016  0.6634 -0.7326
  159SAPE  C31517857   6.024   3.552   8.299 -0.2224  0.3287 -0.3613
  159SAPE  H15X17858   5.984   3.643   8.350  1.9007  0.2733  1.5466
  159SAPE  H15Y17859   6.110   3.573   8.233 -0.3198  1.8889 -0.0334
  159SAPE  C31617860   6.083   3.460   8.409  0.9530 -0.1008  0.3141
  159SAPE  H16X17861   6.099   3.354   8.378  1.2841  0.3549 -1.1699
  159SAPE  H16Y17862   6.018   3.437   8.495  0.9768 -3.7580 -0.4800
  159SAPE  C31717863   6.219   3.501   8.473  0.4790  0.0421 -0.7641
  159SAPE  H17X17864   6.296   3.486   8.395 -0.0734 -0.6227 -1.1941
  159SAPE  H17Y17865   6.244   3.436   8.560 -1.8336 -0.4678 -0.4089
  159SAPE  C31817866   6.236   3.644   8.525 -0.3111 -0.2369 -0.3660
  159SAPE  H18X17867   6.307   3.642   8.611  0.9268 -1.7310 -1.3718
  159SAPE  H18Y17868   6.138   3.693   8.541 -0.7711 -1.3289  0.2191
  159SAPE  H18Z17869   6.283   3.709   8.448 -0.3720  1.6784  1.1249
  160SAPE     N17870   4.405   4.710   6.276 -0.3093  0.2178  0.0240
  160SAPE   HN117871   4.408   4.611   6.243 -0.9797  0.6949 -1.5750
  160SAPE   HN217872   4.405   4.710   6.380  1.2104  0.0459  0.0436
  160SAPE   HN317873   4.317   4.753   6.240 -0.4792 -0.5986 -0.5764
  160SAPE   C1217874   4.534   4.774   6.227  0.3921  0.1827 -0.2943
  160SAPE  H12A17875   4.525   4.882   6.255 -0.3891  0.1025 -0.2071
  160SAPE  H12B17876   4.543   4.752   6.118  0.8920 -0.6457 -0.0898
  160SAPE   C1117877   4.653   4.714   6.307  0.6155 -0.4393  0.3155
  160SAPE  H11A17878   4.642   4.733   6.416  2.0283 -1.3495  0.6442
  160SAPE  H11B17879   4.744   4.770   6.276 -0.8813  0.3701 -3.0314
  160SAPE     P17880   4.716   4.472   6.392  0.0869 -0.0253 -0.0399
  160SAPE   O1317881   4.601   4.449   6.482  0.4015 -0.2767 -0.7154
  160SAPE   O1417882   4.783   4.353   6.332  0.1532  0.6505 -0.4456
  160SAPE   O1217883   4.672   4.568   6.276  0.0596 -0.3766  0.1850
  160SAPE   O1117884   4.833   4.555   6.470 -0.6091  1.0719 -0.0453
  160SAPE    C117885   4.946   4.480   6.526  0.4909 -0.1584  0.3584
  160SAPE    HA17886   4.981   4.397   6.462 -1.9969 -2.4100  1.7320
  160SAPE    HB17887   5.030   4.552   6.538 -0.5772  1.0028  1.2156
  160SAPE    C217888   4.938   4.413   6.663  0.0782  0.2407  0.4316
  160SAPE    HS17889   4.871   4.325   6.662 -0.5499  0.6907  1.2865
  160SAPE   O2117890   4.898   4.514   6.760 -0.3135 -0.1532  0.2101
  160SAPE   C2117891   4.811   4.478   6.860 -0.5051 -0.4983 -0.5131
  160SAPE   O2217892   4.751   4.373   6.875 -0.2447 -0.1531  0.7620
  160SAPE   C2217893   4.781   4.599   6.940 -0.2216 -0.7870  0.0738
  160SAPE   H2R17894   4.810   4.690   6.884  0.5386 -1.3525 -0.4582
  160SAPE   H2S17895   4.672   4.590   6.962 -0.2825  2.1494  1.5039
  160SAPE    C317896   5.077   4.354   6.705  0.1250 -0.3443 -0.3393
  160SAPE    HX17897   5.147   4.440   6.699  0.5644 -0.7870 -2.8412
  160SAPE    HY17898   5.108   4.282   6.627  1.9075  0.1903 -0.1855
  160SAPE   O3117899   5.087   4.291   6.836 -0.0932  0.3337  0.2013
  160SAPE   C3117900   5.039   4.160   6.843 -0.0919  0.1971  0.4575
  160SAPE   O3217901   4.992   4.108   6.745 -0.1227 -0.6462 -0.6308
  160SAPE   C3217902   5.048   4.116   6.988  1.4174  0.2680 -0.3403
  160SAPE   H2X17903   5.027   4.007   6.990 -3.1848  0.9263 -0.8720
  160SAPE   H2Y17904   4.971   4.166   7.051 -1.2281 -0.5296 -2.7167
  160SAPE   C2317905   4.844   4.600   7.082  0.3252 -0.3402 -0.3087
  160SAPE   H3R17906   4.810   4.519   7.150  1.4626  1.7379  2.9616
  160SAPE   H3S17907   4.807   4.694   7.127  0.8115 -1.5795  2.9457
  160SAPE   C2417908   4.997   4.603   7.066  0.7270  0.0303 -0.2825
  160SAPE   H4R17909   5.027   4.661   6.976  1.1615 -1.4623 -1.1373
  160SAPE   H4S17910   5.027   4.496   7.054 -1.5026 -0.6378 -0.4839
  160SAPE   C2517911   5.056   4.670   7.188  0.1800 -0.3026  0.0883
  160SAPE   H5R17912   5.038   4.779   7.178 -2.2329 -0.6044  0.5467
  160SAPE   C2617913   5.132   4.617   7.282  0.0129  0.5451 -0.3897
  160SAPE   H6R17914   5.148   4.688   7.365 -0.3351 -0.1396  0.2760
  160SAPE   C2717915   5.169   4.460   7.303  1.0108 -0.7963  0.8378
  160SAPE   H7R17916   5.270   4.446   7.347  2.8360  0.2833 -2.6305
  160SAPE   H7S17917   5.182   4.414   7.202  1.5702 -0.8944  0.9485
  160SAPE   C2817918   5.062   4.387   7.372 -0.3640  0.1569  0.9299
  160SAPE   H8R17919   4.980   4.362   7.303 -0.2431  2.9674 -0.3785
  160SAPE   C2917920   5.065   4.339   7.496 -0.2806  0.2545  0.3120
  160SAPE   H9R17921   4.984   4.271   7.525 -1.4198  0.7006 -1.6256
  160SAPE  C21017922   5.168   4.362   7.606  0.2132  0.5926  0.2282
  160SAPE  H10R17923   5.241   4.437   7.569 -0.3718  0.7566 -0.5988
  160SAPE  H10S17924   5.234   4.274   7.621 -1.3429 -0.7097 -0.2887
  160SAPE  C21117925   5.101   4.423   7.727 -0.5281 -0.0935  0.1409
  160SAPE  H11R17926   5.060   4.524   7.710 -0.4284  0.0642  0.8128
  160SAPE  C21217927   5.088   4.367   7.853 -0.0062 -0.2313  0.3688
  160SAPE  H12R17928   5.035   4.423   7.932  0.3376 -1.0406  1.1879
  160SAPE  C21317929   5.134   4.228   7.893 -0.8361  0.2494 -0.3600
  160SAPE  H13R17930   5.155   4.163   7.806 -0.0580 -2.0449  1.4509
  160SAPE  H13S17931   5.064   4.174   7.959 -1.1888  0.0523 -0.8838
  160SAPE  C21417932   5.274   4.229   7.951  0.8200 -0.7890  0.4392
  160SAPE  H14R17933   5.345   4.285   7.889  1.2868 -1.1756  0.6201
  160SAPE  C21517934   5.308   4.188   8.073 -0.2064  0.4406 -0.2995
  160SAPE  H15R17935   5.408   4.212   8.112 -0.2237  0.8186 -0.4798
  160SAPE  C21617936   5.242   4.114   8.184  0.3878 -0.5868 -0.5281
  160SAPE  H16R17937   5.288   4.014   8.199  1.0929 -0.1327  0.4635
  160SAPE  H16S17938   5.133   4.103   8.167  0.3369  0.3036 -0.8659
  160SAPE  C21717939   5.269   4.169   8.321  0.0227  0.3124 -0.2991
  160SAPE  H17R17940   5.378   4.166   8.339 -0.0039  1.1379  0.0744
  160SAPE  H17S17941   5.215   4.120   8.405 -0.4223  1.2829 -0.0034
  160SAPE  C21817942   5.230   4.316   8.353 -0.2434 -0.3595  0.5997
  160SAPE  H18R17943   5.121   4.328   8.335 -0.0297 -1.7008 -2.1315
  160SAPE  H18S17944   5.263   4.379   8.267  0.3360 -1.7008 -0.1960
  160SAPE  C21917945   5.253   4.372   8.488 -0.4570  0.9082  0.2723
  160SAPE  H19R17946   5.181   4.318   8.553 -1.2691 -0.6508 -1.8054
  160SAPE  H19S17947   5.226   4.480   8.486 -1.5105  0.6611  0.7183
  160SAPE  C22017948   5.390   4.350   8.551  0.9032  0.3274  0.0202
  160SAPE  H20R17949   5.413   4.241   8.553  1.5278  0.4575  1.3525
  160SAPE  H20S17950   5.388   4.378   8.659  0.9305 -1.9114  0.6470
  160SAPE  H20T17951   5.469   4.410   8.502 -0.7124  1.2120 -1.6234
  160SAPE   C3317952   5.188   4.149   7.045  0.1731  0.3842 -0.2961
  160SAPE   H3X17953   5.191   4.258   7.067 -2.2151  0.6483 -1.0297
  160SAPE   H3Y17954   5.267   4.128   6.970 -0.7839 -1.2102 -0.8994
  160SAPE   C3417955   5.214   4.063   7.170 -0.9810 -0.1380 -0.0226
  160SAPE   H4X17956   5.216   3.956   7.139 -0.8803 -0.1273 -0.0556
  160SAPE   H4Y17957   5.138   4.078   7.249 -0.8385  1.0571 -0.0878
  160SAPE   C3517958   5.354   4.104   7.230  0.1575  0.1249  0.4037
  160SAPE   H5X17959   5.362   4.213   7.250 -1.7584  1.1066 -3.2403
  160SAPE   H5Y17960   5.429   4.080   7.153  0.5435 -0.2288  0.8810
  160SAPE   C3617961   5.380   4.031   7.364  0.1694  0.0711  0.3315
  160SAPE   H6X17962   5.418   3.928   7.346  0.3178  0.2773 -0.5947
  160SAPE   H6Y17963   5.281   4.024   7.414  0.6060 -2.1582  1.0092
  160SAPE   C3717964   5.481   4.112   7.449 -0.5405  0.4721 -0.0232
  160SAPE   H7X17965   5.454   4.219   7.446 -0.7682  0.4193  0.1139
  160SAPE   H7Y17966   5.583   4.107   7.407  1.0150  4.0845  2.7425
  160SAPE   C3817967   5.493   4.064   7.594  0.6765 -0.6106  0.5070
  160SAPE   H8X17968   5.536   3.962   7.586 -2.2374 -1.8492 -0.7428
  160SAPE   H8Y17969   5.394   4.063   7.645 -0.3194  2.8616 -1.0514
  160SAPE   C3917970   5.577   4.161   7.687 -0.1623 -0.5713 -0.2691
  160SAPE   H9X17971   5.527   4.260   7.678 -0.7846 -0.5933  2.3414
  160SAPE   H9Y17972   5.679   4.166   7.644 -0.7631 -0.8278 -1.7908
  160SAPE  C31017973   5.589   4.119   7.832  0.3368 -0.1795  0.1718
  160SAPE  H10X17974   5.650   4.030   7.855 -1.8755 -2.0547 -0.7931
  160SAPE  H10Y17975   5.484   4.099   7.865  0.2135  0.4233  0.1635
  160SAPE  C31117976   5.646   4.234   7.916  0.4061  0.5073  0.3051
  160SAPE  H11X17977   5.644   4.196   8.020 -1.4660 -1.1966 -0.2858
  160SAPE  H11Y17978   5.583   4.324   7.899 -1.5384 -0.6623  0.9190
  160SAPE  C31217979   5.790   4.265   7.880 -0.4589 -0.3936 -0.1713
  160SAPE  H12X17980   5.808   4.254   7.770 -1.7494  1.4667 -0.6055
  160SAPE  H12Y17981   5.849   4.189   7.936 -0.2316 -0.2257 -0.1803
  160SAPE  C31317982   5.835   4.400   7.934  0.8292 -0.1411  1.0758
  160SAPE  H13X17983   5.776   4.482   7.887  0.4674 -1.2009 -0.3717
  160SAPE  H13Y17984   5.944   4.417   7.918  0.5282  0.0088 -1.1196
  160SAPE  C31417985   5.808   4.416   8.090 -0.3407  0.1797 -0.0015
  160SAPE  H14X17986   5.699   4.404   8.109 -0.3365 -0.9557 -0.5736
  160SAPE  H14Y17987   5.847   4.518   8.106  1.0187 -0.0300 -1.5863
  160SAPE  C31517988   5.900   4.316   8.168 -0.2072  0.3575  0.7712
  160SAPE  H15X17989   5.980   4.281   8.098  0.0010  0.0437  1.1614
  160SAPE  H15Y17990   5.828   4.232   8.178 -2.3856  1.9847 -0.3832
  160SAPE  C31617991   5.973   4.373   8.296  0.2822  0.3825 -0.6771
  160SAPE  H16X17992   6.036   4.463   8.276 -0.5301  0.5319 -2.8530
  160SAPE  H16Y17993   6.048   4.303   8.338 -0.0399 -0.2851 -1.1973
  160SAPE  C31717994   5.859   4.397   8.397 -0.3025  0.0774  0.1343
  160SAPE  H17X17995   5.809   4.299   8.414  0.3587 -0.1871  0.5792
  160SAPE  H17Y17996   5.775   4.466   8.374  0.3570  1.4156  1.5517
  160SAPE  C31817997   5.909   4.447   8.533 -0.5917 -0.3828  0.2642
  160SAPE  H18X17998   5.822   4.450   8.602 -0.3819  1.4640  0.4980
  160SAPE  H18Y17999   5.941   4.553   8.528 -0.5541 -0.4528 -2.0505
  160SAPE  H18Z18000   5.993   4.385   8.570  0.1074  0.2308 -0.2464
  161SAPE     N18001   0.521   2.862   6.037 -0.2189 -0.1420  0.3470
  161SAPE   HN118002   0.462   2.936   6.082 -0.2905  0.5883 -0.9244
  161SAPE   HN218003   0.459   2.787   6.000  0.2521 -0.1981 -0.3433
  161SAPE   HN318004   0.577   2.809   6.107 -0.4231 -1.3218 -0.3578
  161SAPE   C1218005   0.584   2.946   5.938 -0.4562 -0.5822  0.6537
  161SAPE  H12A18006   0.519   2.998   5.865  1.3543  0.4490 -0.2914
  161SAPE  H12B18007   0.636   2.870   5.876  1.0371 -0.9216  2.2381
  161SAPE   C1118008   0.690   3.047   5.998  0.1960  0.4884  0.0386
  161SAPE  H11A18009   0.641   3.137   6.040 -1.5055  0.7230 -2.2449
  161SAPE  H11B18010   0.753   3.090   5.917  1.4224 -0.7531  0.2887
  161SAPE     P18011   0.918   2.930   6.064  0.2140  0.1345  0.4195
  161SAPE   O1318012   0.917   2.803   5.989 -0.1095 -0.3708  0.8729
  161SAPE   O1418013   0.987   3.043   5.999 -0.4728  0.1689 -0.1921
  161SAPE   O1218014   0.771   2.984   6.098 -0.1545  0.2068 -0.1968
  161SAPE   O1118015   0.990   2.898   6.200 -0.2996  0.1033 -0.5837
  161SAPE    C118016   0.918   2.821   6.298 -0.5662 -0.3184  0.2710
  161SAPE    HA18017   0.830   2.767   6.258  1.6146 -2.0290 -2.6460
  161SAPE    HB18018   0.993   2.759   6.352 -0.5534 -0.4557  0.0971
  161SAPE    C218019   0.871   2.914   6.419  0.2268 -0.1409 -0.4588
  161SAPE    HS18020   0.803   2.982   6.363 -2.5878 -1.0919  1.5685
  161SAPE   O2118021   0.988   2.977   6.469 -0.1821 -0.1394  0.1172
  161SAPE   C2118022   0.947   3.085   6.539  0.2427  0.0679 -0.3494
  161SAPE   O2218023   0.835   3.131   6.546 -0.2354 -0.1854 -0.1012
  161SAPE   C2218024   1.063   3.151   6.597  0.7133 -0.6072 -0.0482
  161SAPE   H2R18025   1.127   3.074   6.644  0.2595 -0.8869  0.1213
  161SAPE   H2S18026   1.119   3.194   6.512 -2.6125 -1.8141 -3.1213
  161SAPE    C318027   0.783   2.839   6.522  0.5292  0.4084 -0.2434
  161SAPE    HX18028   0.720   2.773   6.458  1.7043 -0.2334 -0.7683
  161SAPE    HY18029   0.710   2.902   6.577 -2.1324 -3.1149  0.6593
  161SAPE   O3118030   0.863   2.753   6.608  0.4337  0.2233  0.2381
  161SAPE   C3118031   0.878   2.793   6.735 -0.3088  0.5762  0.1185
  161SAPE   O3218032   0.840   2.900   6.779  0.3102 -0.3935 -0.1473
  161SAPE   C3218033   0.965   2.698   6.811  0.1295  0.0132 -0.4701
  161SAPE   H2X18034   1.062   2.748   6.830 -0.6995  0.9022  1.6649
  161SAPE   H2Y18035   0.991   2.605   6.755  0.4996 -0.3660  0.3079
  161SAPE   C2318036   1.028   3.259   6.701  0.2225 -0.6773 -0.7054
  161SAPE   H3R18037   0.954   3.334   6.666 -2.2623 -2.1220  1.1265
  161SAPE   H3S18038   1.114   3.327   6.718 -1.5792  1.6670 -0.4105
  161SAPE   C2418039   0.979   3.218   6.839 -0.7870  0.0846 -0.4541
  161SAPE   H4R18040   0.889   3.155   6.853 -0.3529 -0.2404  1.1285
  161SAPE   H4S18041   0.966   3.310   6.900 -0.3197 -0.7191  0.9059
  161SAPE   C2518042   1.086   3.132   6.901  0.1544 -0.2038  0.5436
  161SAPE   H5R18043   1.086   3.027   6.870  1.0603 -0.1261  0.2481
  161SAPE   C2618044   1.171   3.160   7.001  0.3761 -0.6099  0.4694
  161SAPE   H6R18045   1.234   3.079   7.040 -0.2643 -1.2632  0.1646
  161SAPE   C2718046   1.192   3.290   7.076 -0.1529 -0.1072  0.1557
  161SAPE   H7R18047   1.200   3.382   7.014  0.7389 -0.0734  0.2990
  161SAPE   H7S18048   1.291   3.292   7.128  0.4942  0.7152 -1.0468
  161SAPE   C2818049   1.069   3.312   7.166 -0.6720 -0.1247 -0.1709
  161SAPE   H8R18050   0.972   3.321   7.116 -0.2533  1.2743 -0.7650
  161SAPE   C2918051   1.078   3.337   7.298  0.1449  0.2093  0.0796
  161SAPE   H9R18052   0.987   3.379   7.342 -0.4425 -0.6318 -0.3027
  161SAPE  C21018053   1.195   3.347   7.387 -0.2801  0.2705 -0.0514
  161SAPE  H10R18054   1.274   3.273   7.360  1.3397  1.6110  0.8737
  161SAPE  H10S18055   1.176   3.312   7.491 -1.8048 -0.6923 -0.6199
  161SAPE  C21118056   1.256   3.483   7.380  0.3889  0.3004  0.2922
  161SAPE  H11R18057   1.255   3.527   7.279  0.4260 -0.4400 -0.0311
  161SAPE  C21218058   1.288   3.569   7.478  1.1719 -0.0581 -0.1710
  161SAPE  H12R18059   1.336   3.664   7.448  0.3389  0.1763 -0.7899
  161SAPE  C21318060   1.271   3.545   7.628  0.6283  0.3446 -0.8109
  161SAPE  H13R18061   1.363   3.494   7.665 -0.3212  0.7897  2.4166
  161SAPE  H13S18062   1.186   3.475   7.638  0.6946  0.4795  1.0749
  161SAPE  C21418063   1.243   3.673   7.712  0.5471 -0.0930  0.1653
  161SAPE  H14R18064   1.190   3.756   7.664  0.6984  0.9103  1.6535
  161SAPE  C21518065   1.271   3.687   7.844  0.6509  0.6231 -0.0103
  161SAPE  H15R18066   1.228   3.777   7.891 -1.4610 -0.6846  0.6406
  161SAPE  C21618067   1.326   3.583   7.935 -0.0165 -0.1334 -0.0390
  161SAPE  H16R18068   1.435   3.573   7.913 -0.0630  0.6529 -0.6528
  161SAPE  H16S18069   1.276   3.486   7.913  0.7889 -0.7764  0.8750
  161SAPE  C21718070   1.326   3.607   8.089 -0.5126  0.1579  0.5231
  161SAPE  H17R18071   1.338   3.712   8.122 -0.1591  0.6376 -1.0373
  161SAPE  H17S18072   1.413   3.545   8.119  0.3309  0.7973 -0.5485
  161SAPE  C21818073   1.197   3.551   8.153  0.8229  0.1425  0.0117
  161SAPE  H18R18074   1.187   3.448   8.112 -0.3825  0.5519 -0.7643
  161SAPE  H18S18075   1.118   3.620   8.119 -0.7365  0.3575  3.6292
  161SAPE  C21918076   1.201   3.536   8.306 -0.3486 -0.6731  0.4546
  161SAPE  H19R18077   1.229   3.633   8.352 -2.2956  1.1507 -1.8810
  161SAPE  H19S18078   1.276   3.458   8.329  1.4995  1.2122  1.0883
  161SAPE  C22018079   1.065   3.503   8.365 -0.7874 -0.7980  0.7944
  161SAPE  H20R18080   1.066   3.503   8.476 -0.7195 -2.5164  0.8059
  161SAPE  H20S18081   1.032   3.403   8.333 -0.8231 -0.2401 -1.0455
  161SAPE  H20T18082   0.996   3.582   8.329 -1.7616 -1.7605  0.5211
  161SAPE   C3318083   0.908   2.651   6.944  0.2019  0.3738 -0.6907
  161SAPE   H3X18084   0.808   2.607   6.923 -0.0351  0.6507 -0.1946
  161SAPE   H3Y18085   0.894   2.731   7.021 -1.2558  0.2342 -0.7756
  161SAPE   C3418086   0.976   2.534   7.018 -0.0226  0.4234 -0.0395
  161SAPE   H4X18087   1.072   2.572   7.059  0.1264 -0.0296  0.0422
  161SAPE   H4Y18088   0.998   2.452   6.946  0.4036  1.3815 -1.0317
  161SAPE   C3518089   0.889   2.469   7.132  0.1421  0.0065  0.2299
  161SAPE   H5X18090   0.947   2.381   7.167  1.3856  1.3818  1.7766
  161SAPE   H5Y18091   0.797   2.426   7.086  1.5138 -1.2924 -1.4425
  161SAPE   C3618092   0.864   2.564   7.240  0.0750 -0.0170  0.6073
  161SAPE   H6X18093   0.777   2.626   7.212 -0.6664 -1.4277 -0.3017
  161SAPE   H6Y18094   0.947   2.635   7.264 -0.4844  0.6782  0.5186
  161SAPE   C3718095   0.824   2.505   7.366  0.0105 -0.0070 -0.1007
  161SAPE   H7X18096   0.895   2.422   7.386  1.5132  0.7651 -1.9051
  161SAPE   H7Y18097   0.724   2.459   7.350 -0.4216  1.3384 -1.5110
  161SAPE   C3818098   0.809   2.589   7.492  0.1771  0.2208 -0.5144
  161SAPE   H8X18099   0.720   2.657   7.496  1.1084  1.4448  0.0032
  161SAPE   H8Y18100   0.898   2.654   7.506  0.8093 -0.5492 -0.9161
  161SAPE   C3918101   0.813   2.501   7.619  0.5846 -0.3336  0.4973
  161SAPE   H9X18102   0.909   2.445   7.624 -0.3978 -1.9894  2.1566
  161SAPE   H9Y18103   0.733   2.425   7.614 -0.6498  1.0037 -1.3726
  161SAPE  C31018104   0.788   2.595   7.734 -0.6470  0.2444 -0.5906
  161SAPE  H10X18105   0.720   2.679   7.710 -1.4063 -0.6923 -1.8349
  161SAPE  H10Y18106   0.887   2.642   7.752 -1.2389  0.4224  2.8699
  161SAPE  C31118107   0.748   2.528   7.860  0.6300  0.0036 -0.3947
  161SAPE  H11X18108   0.833   2.461   7.884  2.2849  1.9340 -0.5957
  161SAPE  H11Y18109   0.647   2.483   7.846  0.7662 -0.4939  0.1828
  161SAPE  C31218110   0.725   2.634   7.971 -0.5780 -1.1168 -0.0862
  161SAPE  H12X18111   0.635   2.696   7.952 -2.3385 -3.2212  0.9194
  161SAPE  H12Y18112   0.812   2.702   7.968 -0.8543 -0.8009 -1.4615
  161SAPE  C31318113   0.718   2.561   8.106 -0.5330  0.8135 -0.2239
  161SAPE  H13X18114   0.817   2.513   8.121 -1.7570 -2.2664 -1.1171
  161SAPE  H13Y18115   0.632   2.491   8.113 -0.4558  0.8305  1.0905
  161SAPE  C31418116   0.694   2.660   8.221 -0.0664 -0.2388  0.1664
  161SAPE  H14X18117   0.593   2.706   8.217 -0.2085 -0.5547  0.1064
  161SAPE  H14Y18118   0.775   2.736   8.216 -0.0642 -0.2982 -0.7850
  161SAPE  C31518119   0.696   2.593   8.359  0.0929  0.3295 -0.3753
  161SAPE  H15X18120   0.797   2.548   8.369  0.1643 -0.1099 -2.5328
  161SAPE  H15Y18121   0.610   2.523   8.370  0.4569 -0.2240 -0.9459
  161SAPE  C31618122   0.677   2.691   8.481  0.4941  0.0902  0.1399
  161SAPE  H16X18123   0.594   2.757   8.446  0.1710 -0.2999  0.1572
  161SAPE  H16Y18124   0.759   2.764   8.496  1.7328 -1.2586  0.1330
  161SAPE  C31718125   0.650   2.615   8.608 -0.4427  0.5515  0.2305
  161SAPE  H17X18126   0.555   2.561   8.586 -0.1757  0.3851 -0.5635
  161SAPE  H17Y18127   0.623   2.676   8.697  1.0270 -0.1604  1.2085
  161SAPE  C31818128   0.766   2.521   8.649 -0.0262 -0.1363 -0.4103
  161SAPE  H18X18129   0.787   2.450   8.566 -0.4467 -1.2589  0.4144
  161SAPE  H18Y18130   0.733   2.463   8.739  0.2353 -2.7371 -1.8782
  161SAPE  H18Z18131   0.849   2.582   8.691  0.3818  0.0595 -1.4802
  162SAPE     N18132   6.577   4.187   5.917  0.4158  0.0629 -0.4496
  162SAPE   HN118133   6.486   4.237   5.916  0.3059 -0.0318  1.1781
  162SAPE   HN218134   6.638   4.224   5.841  1.6986 -0.1920  0.4171
  162SAPE   HN318135   6.568   4.083   5.914 -0.6789  0.1459 -0.4322
  162SAPE   C1218136   6.631   4.229   6.054  0.4132 -0.7359  0.0035
  162SAPE  H12A18137   6.678   4.328   6.036 -0.1420 -0.6779 -1.2198
  162SAPE  H12B18138   6.716   4.164   6.084  1.5951  0.3516 -0.8541
  162SAPE   C1118139   6.516   4.230   6.154  0.5845 -0.2120 -0.2485
  162SAPE  H11A18140   6.559   4.272   6.248  0.2318  1.7406 -0.9072
  162SAPE  H11B18141   6.481   4.126   6.171  0.8635 -0.6983 -2.2781
  162SAPE     P18142   6.361   4.450   6.143 -0.0637  0.2341 -0.2611
  162SAPE   O1318143   6.472   4.537   6.138 -0.8422  0.2021  0.2878
  162SAPE   O1418144   6.249   4.485   6.061  0.6425 -0.6140  0.3356
  162SAPE   O1218145   6.412   4.309   6.100 -0.2680  0.0783  0.0433
  162SAPE   O1118146   6.316   4.432   6.295 -0.5090 -0.0980 -0.0785
  162SAPE    C118147   6.212   4.354   6.336 -0.0839  0.6278 -0.3607
  162SAPE    HA18148   6.117   4.393   6.294 -0.7247  0.2889  0.7381
  162SAPE    HB18149   6.224   4.259   6.279  1.3578  1.4523 -1.5240
  162SAPE    C218150   6.213   4.330   6.488  0.4859 -0.1235  0.2459
  162SAPE    HS18151   6.123   4.267   6.508 -1.1261  2.4303  1.6328
  162SAPE   O2118152   6.189   4.446   6.570 -0.0101 -0.6689 -0.0136
  162SAPE   C2118153   6.082   4.523   6.537 -0.5915 -0.1556 -0.0004
  162SAPE   O2218154   5.990   4.491   6.460  0.1330  0.9363 -0.5894
  162SAPE   C2218155   6.083   4.646   6.631 -0.4700  0.4743  0.2672
  162SAPE   H2R18156   6.099   4.607   6.734 -1.2557 -2.1793 -0.5235
  162SAPE   H2S18157   6.177   4.698   6.601  2.4476 -3.7267  1.1705
  162SAPE    C318158   6.343   4.272   6.530 -0.3385  0.3281 -0.2785
  162SAPE    HX18159   6.413   4.357   6.541 -0.3819  0.5268 -1.4352
  162SAPE    HY18160   6.386   4.200   6.457 -1.7583 -0.1501 -0.6886
  162SAPE   O3118161   6.332   4.203   6.660  0.2180  0.1705  0.5347
  162SAPE   C3118162   6.449   4.148   6.696  0.1755 -0.4272 -0.3982
  162SAPE   O3218163   6.557   4.166   6.644  0.5670  0.1255 -0.0747
  162SAPE   C3218164   6.427   4.072   6.826  0.7915  0.1362  0.3511
  162SAPE   H2X18165   6.466   3.971   6.802 -0.5966 -0.4857  0.5908
  162SAPE   H2Y18166   6.317   4.064   6.840  1.0424 -1.1457  1.7993
  162SAPE   C2318167   5.953   4.725   6.632 -0.4336  0.1827  0.6463
  162SAPE   H3R18168   5.902   4.735   6.533 -1.9789  1.0327  1.4921
  162SAPE   H3S18169   5.983   4.830   6.652 -0.4329  0.1014  1.0740
  162SAPE   C2418170   5.860   4.680   6.741  0.7346 -0.0524  1.0333
  162SAPE   H4R18171   5.921   4.647   6.828  0.0877  0.2404  1.6073
  162SAPE   H4S18172   5.811   4.589   6.702 -0.0128  0.4567  0.7617
  162SAPE   C2518173   5.751   4.787   6.765  0.1064 -0.2573 -1.0400
  162SAPE   H5R18174   5.684   4.825   6.687 -1.2702 -1.9518 -0.7553
  162SAPE   C2618175   5.735   4.842   6.889 -0.1609 -0.2168 -0.1711
  162SAPE   H6R18176   5.666   4.927   6.897 -0.8919 -0.2920 -4.1377
  162SAPE   C2718177   5.815   4.814   7.016 -0.0249 -0.7668  0.1383
  162SAPE   H7R18178   5.808   4.707   7.044  0.0155 -0.2024  2.5354
  162SAPE   H7S18179   5.760   4.862   7.100 -1.4398 -3.8105  1.0874
  162SAPE   C2818180   5.961   4.850   7.007  0.7251 -0.0301 -0.6634
  162SAPE   H8R18181   6.011   4.868   6.910  2.9040  1.6077  0.6587
  162SAPE   C2918182   6.038   4.878   7.118  0.7870  0.1781  0.0735
  162SAPE   H9R18183   6.139   4.921   7.109  0.0776  1.4824 -2.7587
  162SAPE  C21018184   5.991   4.873   7.263 -0.0773 -0.2536  0.2658
  162SAPE  H10R18185   6.075   4.839   7.328  0.3625 -0.3124 -0.3278
  162SAPE  H10S18186   5.914   4.794   7.277  0.0561 -0.8304 -1.8535
  162SAPE  C21118187   5.951   5.015   7.296  0.0489 -0.2130 -0.6593
  162SAPE  H11R18188   5.922   5.088   7.219  0.2534 -0.5044 -1.0136
  162SAPE  C21218189   5.954   5.055   7.426  0.2579 -0.0200 -0.2145
  162SAPE  H12R18190   5.899   5.146   7.454 -2.1902 -2.4046  3.7485
  162SAPE  C21318191   5.990   4.979   7.552 -0.2390 -0.5076  0.4755
  162SAPE  H13R18192   6.012   5.047   7.637 -2.7661  0.4901  0.4150
  162SAPE  H13S18193   6.083   4.921   7.534  0.1019  0.0108  0.5725
  162SAPE  C21418194   5.886   4.873   7.592  0.4662 -0.2471  0.3908
  162SAPE  H14R18195   5.852   4.816   7.504 -0.5893  1.0564 -0.0896
  162SAPE  C21518196   5.857   4.830   7.718 -0.2634  0.1781  0.0211
  162SAPE  H15R18197   5.781   4.751   7.727 -0.3345 -0.0413 -2.0243
  162SAPE  C21618198   5.924   4.881   7.840  0.1147  0.2662 -0.3189
  162SAPE  H16R18199   5.852   4.952   7.885  0.2368 -0.2460  0.7034
  162SAPE  H16S18200   6.017   4.938   7.824  2.1329 -2.0770  2.1473
  162SAPE  C21718201   5.939   4.765   7.940 -0.4652 -0.1054  0.1724
  162SAPE  H17R18202   6.004   4.693   7.886 -2.4345  0.0424 -2.5811
  162SAPE  H17S18203   5.840   4.717   7.949 -1.0177  0.6443 -1.5659
  162SAPE  C21818204   5.981   4.783   8.085 -0.6668 -0.6215  0.2962
  162SAPE  H18R18205   6.076   4.840   8.088 -0.8342 -0.3607  2.8691
  162SAPE  H18S18206   5.998   4.682   8.129 -0.0016  0.4454  2.6784
  162SAPE  C21918207   5.878   4.861   8.167  0.7597 -0.6712 -0.6743
  162SAPE  H19R18208   5.780   4.815   8.143  0.1526  0.7943 -1.1306
  162SAPE  H19S18209   5.882   4.970   8.145  2.8690 -0.4867  0.2920
  162SAPE  C22018210   5.884   4.844   8.318 -0.1052  0.1158  0.0433
  162SAPE  H20R18211   5.987   4.860   8.356 -0.6618 -0.8610  2.1394
  162SAPE  H20S18212   5.833   4.750   8.349 -1.5624  1.0687  0.6492
  162SAPE  H20T18213   5.825   4.911   8.383 -0.8620 -1.9644  1.6322
  162SAPE   C3318214   6.497   4.142   6.949 -0.0043 -0.1984  0.1037
  162SAPE   H3X18215   6.480   4.252   6.948 -1.1175 -0.2538  3.0377
  162SAPE   H3Y18216   6.608   4.132   6.947  0.1326  1.2017 -0.0042
  162SAPE   C3418217   6.450   4.084   7.087 -0.2616  0.1435  0.2855
  162SAPE   H4X18218   6.443   3.973   7.081  1.6548 -0.1182  1.8829
  162SAPE   H4Y18219   6.349   4.125   7.105  0.3920  0.6349  3.4410
  162SAPE   C3518220   6.539   4.129   7.205 -0.6264  0.8852  1.2484
  162SAPE   H5X18221   6.616   4.204   7.179  0.6159 -0.0850  2.0405
  162SAPE   H5Y18222   6.587   4.038   7.247 -1.7281  0.5514  1.8452
  162SAPE   C3618223   6.458   4.194   7.316  0.2657 -0.2080  0.2107
  162SAPE   H6X18224   6.396   4.119   7.369 -0.4683  0.5756  0.4710
  162SAPE   H6Y18225   6.386   4.266   7.271  2.4406 -0.5905 -4.5171
  162SAPE   C3718226   6.549   4.273   7.419 -0.7937 -0.7268  0.5558
  162SAPE   H7X18227   6.490   4.366   7.426 -0.4791 -0.5469  0.8328
  162SAPE   H7Y18228   6.645   4.306   7.372  0.0223 -0.9430  2.0231
  162SAPE   C3818229   6.567   4.208   7.547  0.6419 -0.3171 -0.3199
  162SAPE   H8X18230   6.630   4.117   7.534 -0.4025 -0.9042 -1.5073
  162SAPE   H8Y18231   6.467   4.176   7.584  1.0000 -1.2902 -0.1599
  162SAPE   C3918232   6.634   4.308   7.636  0.4132  0.0687  0.2855
  162SAPE   H9X18233   6.583   4.403   7.607 -0.5034 -0.8642 -1.3027
  162SAPE   H9Y18234   6.740   4.288   7.611  0.5138  0.9475 -0.0340
  162SAPE  C31018235   6.600   4.276   7.783 -0.3032  0.3668  1.2224
  162SAPE  H10X18236   6.595   4.166   7.790  1.2042  0.2974  1.5774
  162SAPE  H10Y18237   6.492   4.299   7.788 -0.5164 -0.5476  0.8891
  162SAPE  C31118238   6.682   4.353   7.890  0.4182  0.3892  0.5263
  162SAPE  H11X18239   6.680   4.463   7.880 -0.0584  0.2932 -0.6320
  162SAPE  H11Y18240   6.789   4.336   7.861  0.0270 -0.2127 -0.6699
  162SAPE  C31218241   6.656   4.305   8.038 -0.2322  0.9698  0.4695
  162SAPE  H12X18242   6.561   4.357   8.064 -0.5121  0.3146  0.8073
  162SAPE  H12Y18243   6.740   4.351   8.093  0.2221  0.7715 -0.0500
  162SAPE  C31318244   6.652   4.150   8.058 -0.8019 -0.2620  0.2265
  162SAPE  H13X18245   6.728   4.112   7.988  1.1478  0.9432  1.5767
  162SAPE  H13Y18246   6.552   4.114   8.025 -1.6291  2.4164 -0.5103
  162SAPE  C31418247   6.689   4.094   8.199 -0.2929 -0.2489  0.0198
  162SAPE  H14X18248   6.621   4.127   8.280 -0.1501 -2.2581  1.0286
  162SAPE  H14Y18249   6.790   4.136   8.220 -0.2533 -0.1949 -0.2754
  162SAPE  C31518250   6.697   3.945   8.196 -0.0370  0.2419 -0.6309
  162SAPE  H15X18251   6.789   3.911   8.143 -0.4424 -0.6611 -0.7812
  162SAPE  H15Y18252   6.611   3.905   8.138 -0.6695  0.9783 -0.2129
  162SAPE  C31618253   6.704   3.884   8.337 -0.3382 -0.0857 -0.0976
  162SAPE  H16X18254   6.619   3.933   8.391  1.0571  1.1422  1.0884
  162SAPE  H16Y18255   6.800   3.916   8.383 -1.2410  0.7640  1.2841
  162SAPE  C31718256   6.690   3.734   8.341 -0.3995  0.1603  0.1146
  162SAPE  H17X18257   6.784   3.697   8.296 -0.4912  0.6412 -0.4850
  162SAPE  H17Y18258   6.594   3.705   8.294 -0.6425  0.0233  0.6841
  162SAPE  C31818259   6.699   3.695   8.486 -0.0579 -0.0169 -0.7990
  162SAPE  H18X18260   6.803   3.683   8.523  0.7174 -1.8595 -3.2568
  162SAPE  H18Y18261   6.658   3.592   8.498  0.4270 -0.2631 -1.1800
  162SAPE  H18Z18262   6.643   3.757   8.558 -1.5173 -1.9435 -0.1953
  163SAPE     N18263   5.362   3.333   6.386 -0.4041  0.2257  0.1177
  163SAPE   HN118264   5.331   3.432   6.377 -1.0601 -0.0625 -0.9798
  163SAPE   HN218265   5.378   3.289   6.293 -2.1599 -0.2013 -0.0264
  163SAPE   HN318266   5.290   3.276   6.435 -0.6790  0.6049  0.1589
  163SAPE   C1218267   5.482   3.338   6.476  0.1396 -0.4607  0.2952
  163SAPE  H12A18268   5.473   3.438   6.523 -3.7319  0.2098 -1.4254
  163SAPE  H12B18269   5.571   3.324   6.411 -1.4114  0.1249 -2.1277
  163SAPE   C1118270   5.474   3.219   6.581 -0.0225 -0.5618  0.4609
  163SAPE  H11A18271   5.564   3.217   6.645  0.8923 -0.3239 -0.7867
  163SAPE  H11B18272   5.488   3.126   6.521  0.2865  0.0846 -0.4966
  163SAPE     P18273   5.234   3.106   6.627 -0.1765  0.3661  0.2009
  163SAPE   O1318274   5.247   3.072   6.481 -0.7960  0.0394 -0.3806
  163SAPE   O1418275   5.243   2.994   6.721  0.0856  0.3086 -0.5909
  163SAPE   O1218276   5.348   3.218   6.654  0.6194 -0.1614  0.0853
  163SAPE   O1118277   5.097   3.184   6.637  0.3306  0.4046 -0.2015
  163SAPE    C118278   5.079   3.295   6.724  0.3231 -0.0355  0.1334
  163SAPE    HA18279   5.170   3.356   6.744 -0.5418  0.8831  1.4365
  163SAPE    HB18280   5.009   3.366   6.677  0.7137  0.9485  0.9986
  163SAPE    C218281   5.013   3.261   6.860 -0.0189  0.4411 -1.0458
  163SAPE    HS18282   4.980   3.344   6.925  2.0605 -1.1318  2.2629
  163SAPE   O2118283   5.106   3.183   6.939  0.0202  0.2601 -0.1400
  163SAPE   C2118284   5.200   3.253   7.003  0.1437 -0.2101 -0.1970
  163SAPE   O2218285   5.193   3.376   7.016  0.1112  0.0266 -0.0329
  163SAPE   C2218286   5.317   3.160   7.052  0.0148  0.1506  0.1031
  163SAPE   H2R18287   5.307   3.066   6.993 -0.7528  0.1505  0.2322
  163SAPE   H2S18288   5.411   3.220   7.043  0.3959 -0.4331  0.1004
  163SAPE    C318289   4.884   3.164   6.838  0.8901  0.5973 -0.1687
  163SAPE    HX18290   4.910   3.075   6.777 -1.1311  1.0804 -1.8939
  163SAPE    HY18291   4.817   3.220   6.769  1.1656  3.6279  1.8132
  163SAPE   O3118292   4.817   3.137   6.966 -0.3798 -0.2554  0.1682
  163SAPE   C3118293   4.840   3.016   7.021  0.3714 -0.0816 -0.1079
  163SAPE   O3218294   4.898   2.927   6.960  0.3088  0.0864 -0.2159
  163SAPE   C3218295   4.784   3.006   7.158 -0.3953 -0.4946  0.5355
  163SAPE   H2X18296   4.785   2.898   7.184 -0.9957 -0.2094  1.8202
  163SAPE   H2Y18297   4.683   3.047   7.177  0.0459  0.1198  1.6781
  163SAPE   C2318298   5.285   3.133   7.200  0.2803 -0.0987 -0.3790
  163SAPE   H3R18299   5.192   3.074   7.207 -1.1578  2.1904  0.9016
  163SAPE   H3S18300   5.280   3.228   7.257  1.6781 -0.2971  0.1300
  163SAPE   C2418301   5.390   3.039   7.272  0.2749 -0.3645  0.1660
  163SAPE   H4R18302   5.487   3.092   7.283 -1.0536  1.8177  2.2651
  163SAPE   H4S18303   5.403   2.956   7.199 -1.2626 -1.3700  0.9812
  163SAPE   C2518304   5.353   2.979   7.408  0.0158  0.7293  0.4772
  163SAPE   H5R18305   5.320   2.874   7.409 -0.5718  0.8500 -1.3574
  163SAPE   C2618306   5.366   3.041   7.524  0.3264  0.6478  0.6411
  163SAPE   H6R18307   5.371   2.975   7.611  1.1676 -1.3491 -0.8503
  163SAPE   C2718308   5.414   3.182   7.543  0.5442  0.2223  0.2469
  163SAPE   H7R18309   5.349   3.247   7.605  0.4757 -0.3729  0.8121
  163SAPE   H7S18310   5.428   3.246   7.453  0.3861  0.5673  0.4676
  163SAPE   C2818311   5.550   3.176   7.617 -0.3109 -0.0342 -0.0683
  163SAPE   H8R18312   5.630   3.154   7.544  0.0565 -0.6661  0.5212
  163SAPE   C2918313   5.580   3.182   7.751 -1.1331 -0.2225  0.3992
  163SAPE   H9R18314   5.682   3.199   7.788 -1.2954 -0.2674  0.8755
  163SAPE  C21018315   5.481   3.199   7.860 -0.1191  0.3928  0.1795
  163SAPE  H10R18316   5.475   3.109   7.925 -0.8579  0.9250  0.8635
  163SAPE  H10S18317   5.381   3.205   7.812  0.6875  0.1094 -1.6330
  163SAPE  C21118318   5.501   3.316   7.945  0.1562 -0.2854  0.6078
  163SAPE  H11R18319   5.583   3.380   7.909 -1.9281  1.4260 -1.4206
  163SAPE  C21218320   5.439   3.336   8.064  0.1700  0.2709 -0.2893
  163SAPE  H12R18321   5.447   3.432   8.118 -1.5587  0.6714 -0.6891
  163SAPE  C21318322   5.340   3.243   8.125  0.6145  0.8575 -0.3127
  163SAPE  H13R18323   5.264   3.215   8.048 -1.5404  2.7447  0.9715
  163SAPE  H13S18324   5.276   3.300   8.197 -1.7756  1.1314 -2.4833
  163SAPE  C21418325   5.402   3.123   8.198 -0.1782  0.5683 -0.2275
  163SAPE  H14R18326   5.401   3.024   8.152  0.0997  0.4513  0.0133
  163SAPE  C21518327   5.450   3.134   8.327  0.2456  0.2062 -0.3219
  163SAPE  H15R18328   5.504   3.050   8.373  1.2058  0.5244 -0.8424
  163SAPE  C21618329   5.461   3.253   8.420 -0.4420  0.2056 -1.0159
  163SAPE  H16R18330   5.423   3.223   8.520 -0.9908  1.2571 -0.8970
  163SAPE  H16S18331   5.396   3.340   8.395 -0.3929  0.3565 -0.6282
  163SAPE  C21718332   5.607   3.307   8.426  0.3036  0.6077 -0.8077
  163SAPE  H17R18333   5.659   3.305   8.328  0.9765  0.1295 -0.4455
  163SAPE  H17S18334   5.664   3.232   8.484 -1.4530 -0.5908 -0.5462
  163SAPE  C21818335   5.626   3.439   8.503  0.5926 -0.6920 -0.4346
  163SAPE  H18R18336   5.732   3.456   8.533 -0.1109  1.4145  1.0868
  163SAPE  H18S18337   5.565   3.443   8.596 -2.0728 -0.2491 -2.0956
  163SAPE  C21918338   5.586   3.563   8.414  0.1705  0.7562  0.2852
  163SAPE  H19R18339   5.494   3.523   8.365  0.5125 -0.3807  0.5329
  163SAPE  H19S18340   5.658   3.582   8.332  2.2385 -2.0907  1.2865
  163SAPE  C22018341   5.563   3.692   8.499  0.4345  0.0613  0.3121
  163SAPE  H20R18342   5.505   3.763   8.436  0.7462  0.0886  0.0573
  163SAPE  H20S18343   5.658   3.732   8.541  0.2310  0.2405  0.6168
  163SAPE  H20T18344   5.488   3.667   8.578  0.3399  1.9365  0.8668
  163SAPE   C3318345   4.887   3.079   7.244 -0.1196  0.2593 -0.2930
  163SAPE   H3X18346   4.881   3.188   7.220  1.2154 -0.1944 -3.1521
  163SAPE   H3Y18347   4.994   3.051   7.241  0.3450  1.5963  1.7603
  163SAPE   C3418348   4.849   3.061   7.388  0.3804 -0.1258 -0.2248
  163SAPE   H4X18349   4.861   2.955   7.420  1.5084 -0.8933 -2.8956
  163SAPE   H4Y18350   4.745   3.101   7.397  0.4088  0.0516 -0.6716
  163SAPE   C3518351   4.936   3.139   7.490 -0.2911  0.3903  0.1110
  163SAPE   H5X18352   4.901   3.245   7.485 -0.3412  0.3326 -3.4735
  163SAPE   H5Y18353   5.041   3.151   7.454 -0.6153  1.5527 -0.5086
  163SAPE   C3618354   4.925   3.090   7.628 -0.0665 -0.2648 -0.3333
  163SAPE   H6X18355   4.951   2.982   7.634  0.8259 -0.1479 -1.5781
  163SAPE   H6Y18356   4.816   3.100   7.644 -0.0911 -1.0944  0.0500
  163SAPE   C3718357   5.020   3.169   7.726  0.4842  0.6366  0.2465
  163SAPE   H7X18358   4.989   3.275   7.733  3.0222  1.6328 -2.0650
  163SAPE   H7Y18359   5.124   3.171   7.688  0.4229 -0.6503 -0.0420
  163SAPE   C3818360   5.033   3.099   7.864 -0.2803 -0.3231  0.0262
  163SAPE   H8X18361   5.110   3.158   7.919 -1.3849 -0.3830  1.6940
  163SAPE   H8Y18362   5.064   2.994   7.846  0.0671 -0.0606 -0.9557
  163SAPE   C3918363   4.904   3.086   7.939  0.0591  0.6912 -0.4815
  163SAPE   H9X18364   4.842   3.012   7.884  0.1905  2.0544 -2.5336
  163SAPE   H9Y18365   4.851   3.182   7.926 -1.3273  0.0553  0.1987
  163SAPE  C31018366   4.917   3.057   8.090  0.9315 -0.5702 -0.3156
  163SAPE  H10X18367   4.984   3.135   8.131 -2.8126  2.6660  0.1649
  163SAPE  H10Y18368   4.962   2.957   8.108 -2.1573 -2.2717 -1.2756
  163SAPE  C31118369   4.780   3.064   8.164 -0.2035  0.2750 -0.0069
  163SAPE  H11X18370   4.731   2.966   8.144 -1.6638  0.9902 -0.0152
  163SAPE  H11Y18371   4.721   3.144   8.116  0.4652 -0.4217 -2.1443
  163SAPE  C31218372   4.798   3.093   8.314  0.2962  0.3968  0.0495
  163SAPE  H12X18373   4.851   3.190   8.322  2.6152 -0.7459 -0.6506
  163SAPE  H12Y18374   4.873   3.020   8.348  1.3434  0.4627 -1.9798
  163SAPE  C31318375   4.660   3.085   8.402 -0.4251 -0.1436 -0.0476
  163SAPE  H13X18376   4.591   3.171   8.393 -1.0832 -0.2319  3.0922
  163SAPE  H13Y18377   4.694   3.083   8.507  1.5252 -0.9470 -0.6450
  163SAPE  C31418378   4.558   2.975   8.387 -0.2326 -0.0215  0.7150
  163SAPE  H14X18379   4.600   2.880   8.428  0.3528  0.3700  1.0309
  163SAPE  H14Y18380   4.537   2.951   8.280 -1.0471  4.2664 -0.2830
  163SAPE  C31518381   4.420   2.998   8.450  0.5683  0.2807  0.3819
  163SAPE  H15X18382   4.362   3.059   8.377 -0.1630 -0.0238  0.7000
  163SAPE  H15Y18383   4.424   3.054   8.545 -0.7012 -1.0130  1.2429
  163SAPE  C31618384   4.345   2.866   8.480  0.4549 -0.0567  0.5007
  163SAPE  H16X18385   4.404   2.802   8.549  0.1542 -1.7045 -0.7030
  163SAPE  H16Y18386   4.327   2.814   8.383 -0.9862 -1.1841  1.3168
  163SAPE  C31718387   4.211   2.899   8.544 -0.0345  0.1363  0.5953
  163SAPE  H17X18388   4.153   2.959   8.470 -0.5927 -0.5127  0.4935
  163SAPE  H17Y18389   4.224   2.964   8.634  2.9023  0.7989 -0.2074
  163SAPE  C31818390   4.138   2.773   8.588  0.1568 -0.4878  0.1001
  163SAPE  H18X18391   4.111   2.716   8.497 -2.2610 -1.1161  1.1325
  163SAPE  H18Y18392   4.044   2.801   8.639  0.5620 -1.0631  1.1883
  163SAPE  H18Z18393   4.202   2.712   8.655 -0.6523 -0.1858  1.1680
  164SAPE     N18394   2.181   0.159   5.650  0.3915 -0.2311  0.1272
  164SAPE   HN118395   2.282   0.135   5.647 -0.0013 -2.1174  1.0357
  164SAPE   HN218396   2.131   0.111   5.573 -0.2735  2.0410 -0.9419
  164SAPE   HN318397   2.175   0.262   5.632 -0.3578 -0.2384  0.2916
  164SAPE   C1218398   2.124   0.129   5.787  0.3703  0.5332 -0.1536
  164SAPE  H12A18399   2.163   0.030   5.819  0.9137  0.1840 -1.7835
  164SAPE  H12B18400   2.015   0.118   5.771 -0.0829  0.7749  2.3207
  164SAPE   C1118401   2.160   0.245   5.892 -0.2979 -0.0899  0.6252
  164SAPE  H11A18402   2.270   0.242   5.906 -0.3204 -0.7007  0.7184
  164SAPE  H11B18403   2.113   0.229   5.992 -0.3656  2.4055  1.0345
  164SAPE     P18404   1.995   0.454   5.857  0.0928  0.2799  0.0950
  164SAPE   O1318405   2.015   0.592   5.823 -0.4036  0.2182 -0.1155
  164SAPE   O1418406   1.898   0.383   5.771 -0.0754 -0.0020 -0.3613
  164SAPE   O1218407   2.133   0.380   5.848 -0.3197 -0.0400 -0.0659
  164SAPE   O1118408   1.952   0.439   6.011  0.3985  0.1975 -0.4471
  164SAPE    C118409   2.012   0.514   6.114  0.1237 -0.3213  0.2594
  164SAPE    HA18410   2.103   0.568   6.079 -1.1027  0.5845 -1.7022
  164SAPE    HB18411   1.947   0.599   6.147  0.3150  0.1779 -0.6177
  164SAPE    C218412   2.046   0.427   6.237 -0.0062 -0.6496 -0.1254
  164SAPE    HS18413   2.115   0.348   6.199  0.3345 -0.4629  0.0944
  164SAPE   O2118414   1.925   0.361   6.297  0.4162  0.0149  0.2350
  164SAPE   C2118415   1.938   0.233   6.313  0.0113  0.1505  0.0505
  164SAPE   O2218416   2.036   0.163   6.296  0.0736  0.5142  0.0500
  164SAPE   C2218417   1.799   0.177   6.358 -0.1611 -1.1363 -0.5437
  164SAPE   H2R18418   1.781   0.236   6.450  1.2280 -2.9837  0.9740
  164SAPE   H2S18419   1.718   0.199   6.285 -0.2033 -1.2978 -0.5461
  164SAPE    C318420   2.130   0.511   6.338 -1.1162  0.2136  0.3436
  164SAPE    HX18421   2.227   0.535   6.289 -0.1107 -2.9796  0.5344
  164SAPE    HY18422   2.162   0.444   6.421  1.1196 -1.1053 -1.4789
  164SAPE   O3118423   2.063   0.633   6.379  0.1713  0.0209 -0.6508
  164SAPE   C3118424   2.000   0.616   6.500 -0.3108 -0.3557  0.1244
  164SAPE   O3218425   1.986   0.512   6.563  0.7339 -0.0953  0.4237
  164SAPE   C3218426   1.949   0.752   6.540  0.4525  0.3992  0.2620
  164SAPE   H2X18427   1.890   0.788   6.453  2.5914  0.3644 -1.2852
  164SAPE   H2Y18428   2.027   0.829   6.559  2.2469 -1.8865  2.9334
  164SAPE   C2318429   1.780   0.033   6.400 -0.7103  0.5173 -0.3151
  164SAPE   H3R18430   1.850   0.027   6.486 -2.7893  0.2910  1.4560
  164SAPE   H3S18431   1.808  -0.039   6.320  0.7069  0.4777  0.1861
  164SAPE   C2418432   1.639  -0.008   6.451  0.4522 -0.5442  0.4555
  164SAPE   H4R18433   1.644  -0.115   6.481 -1.2237 -0.8533 -0.2489
  164SAPE   H4S18434   1.568  -0.021   6.366 -0.7296 -1.1487  1.4833
  164SAPE   C2518435   1.578   0.094   6.549  0.2517 -0.2056 -0.5727
  164SAPE   H5R18436   1.499   0.159   6.509 -1.0776 -1.2355  0.2850
  164SAPE   C2618437   1.609   0.109   6.680  0.1923  0.1722 -0.6969
  164SAPE   H6R18438   1.554   0.186   6.736  1.2369 -0.1963  0.9124
  164SAPE   C2718439   1.715   0.038   6.759  0.5121 -0.0461  0.2069
  164SAPE   H7R18440   1.771  -0.038   6.700  2.1221 -0.0941  1.7087
  164SAPE   H7S18441   1.663  -0.009   6.845 -1.5100  0.2231 -0.7972
  164SAPE   C2818442   1.823   0.140   6.808  0.4967 -0.5787 -0.0315
  164SAPE   H8R18443   1.815   0.237   6.758 -1.4971 -0.9728 -0.5806
  164SAPE   C2918444   1.919   0.120   6.908 -0.6482  0.4258 -0.0529
  164SAPE   H9R18445   1.984   0.205   6.935  0.3879  0.4521 -2.4039
  164SAPE  C21018446   1.936  -0.013   6.980 -0.1145  1.0073 -0.3436
  164SAPE  H10R18447   1.999  -0.087   6.927  0.3106  0.9477  0.2332
  164SAPE  H10S18448   1.835  -0.059   6.981 -0.1131  1.0168  0.5644
  164SAPE  C21118449   1.968   0.020   7.119 -0.2471 -0.1507 -0.3606
  164SAPE  H11R18450   1.949   0.123   7.152  1.9810  0.0796  0.3529
  164SAPE  C21218451   2.018  -0.064   7.208 -0.1019  0.0231 -0.6813
  164SAPE  H12R18452   2.048  -0.027   7.307 -1.0342  1.0354 -0.7561
  164SAPE  C21318453   2.038  -0.210   7.189  0.1930  0.0248  0.5044
  164SAPE  H13R18454   2.138  -0.236   7.146  0.0146 -3.6181  1.9082
  164SAPE  H13S18455   1.979  -0.251   7.104 -0.6445  0.3813  0.9124
  164SAPE  C21418456   2.027  -0.294   7.318  0.3169  0.1816  0.5962
  164SAPE  H14R18457   1.942  -0.363   7.312  0.2040 -0.2574  4.7143
  164SAPE  C21518458   2.097  -0.283   7.433 -0.7619  0.1464 -0.4425
  164SAPE  H15R18459   2.063  -0.349   7.514  0.5204  2.4541  2.1693
  164SAPE  C21618460   2.206  -0.187   7.469 -0.0013  0.0664  0.4112
  164SAPE  H16R18461   2.214  -0.109   7.389 -0.7679  0.7915  1.0226
  164SAPE  H16S18462   2.304  -0.239   7.470  0.7525  1.4148  0.1714
  164SAPE  C21718463   2.195  -0.108   7.599 -0.3742  0.0262  0.5066
  164SAPE  H17R18464   2.102  -0.047   7.589 -0.7381 -0.5543  0.2889
  164SAPE  H17S18465   2.277  -0.034   7.586 -0.3374 -0.3516 -1.9673
  164SAPE  C21818466   2.194  -0.206   7.717 -0.1227  0.3398  0.1886
  164SAPE  H18R18467   2.280  -0.277   7.716  0.6512  1.2220  1.6316
  164SAPE  H18S18468   2.099  -0.263   7.711  0.9602 -1.4705 -0.7630
  164SAPE  C21918469   2.192  -0.140   7.854 -0.4197  0.4296  0.4895
  164SAPE  H19R18470   2.183  -0.232   7.916  0.9233 -2.7312 -3.5244
  164SAPE  H19S18471   2.098  -0.084   7.870 -0.3215  0.2916  1.6696
  164SAPE  C22018472   2.319  -0.066   7.891  0.1510  0.2274  0.1186
  164SAPE  H20R18473   2.346   0.004   7.809 -1.6989 -0.8743 -1.5468
  164SAPE  H20S18474   2.407  -0.135   7.899 -0.6117 -0.7258  0.4854
  164SAPE  H20T18475   2.303  -0.005   7.982 -0.0008 -0.0072  0.2501
  164SAPE   C3318476   1.851   0.740   6.661  0.9183 -0.5693 -0.2133
  164SAPE   H3X18477   1.917   0.702   6.742  1.2901  1.4707  0.5021
  164SAPE   H3Y18478   1.767   0.670   6.646 -0.0219  0.3677  0.5010
  164SAPE   C3418479   1.788   0.875   6.700 -0.2847 -0.2685 -0.5305
  164SAPE   H4X18480   1.729   0.922   6.619  1.0812  2.5801 -0.0076
  164SAPE   H4Y18481   1.878   0.937   6.722  1.9187 -2.5392 -2.5661
  164SAPE   C3518482   1.699   0.869   6.825 -0.3348 -0.3702  0.6646
  164SAPE   H5X18483   1.604   0.822   6.794 -0.3360  0.5564 -0.8331
  164SAPE   H5Y18484   1.672   0.974   6.853 -2.8339 -0.5379 -0.8487
  164SAPE   C3618485   1.766   0.799   6.950 -0.5327 -0.4342  0.1037
  164SAPE   H6X18486   1.875   0.818   6.964 -0.0908 -3.4787  1.4571
  164SAPE   H6Y18487   1.765   0.695   6.912 -2.9584  0.1288 -1.6017
  164SAPE   C3718488   1.686   0.837   7.073  0.2781 -1.3141  0.5331
  164SAPE   H7X18489   1.578   0.831   7.050  0.3207  0.7558 -0.4189
  164SAPE   H7Y18490   1.698   0.946   7.091 -0.5496 -1.1288  0.0018
  164SAPE   C3818491   1.728   0.756   7.190 -0.8306 -0.3700  0.4730
  164SAPE   H8X18492   1.830   0.795   7.209 -0.9274  0.8269 -1.2652
  164SAPE   H8Y18493   1.732   0.647   7.169 -2.8427 -0.7156  1.6507
  164SAPE   C3918494   1.644   0.768   7.309  0.0161 -0.2043  0.0226
  164SAPE   H9X18495   1.539   0.736   7.293 -0.3793  0.3027  1.4909
  164SAPE   H9Y18496   1.637   0.875   7.340  0.9132 -0.6069  1.7095
  164SAPE  C31018497   1.697   0.700   7.441 -0.8408 -0.0693 -0.2196
  164SAPE  H10X18498   1.789   0.754   7.470 -0.7123 -0.9402  1.0974
  164SAPE  H10Y18499   1.728   0.596   7.417 -2.3932 -0.4065 -0.9055
  164SAPE  C31118500   1.597   0.705   7.560 -0.2160  0.0026  0.0241
  164SAPE  H11X18501   1.494   0.666   7.550 -1.3410  2.3790  1.5748
  164SAPE  H11Y18502   1.588   0.810   7.595  1.8607 -0.3108  1.7570
  164SAPE  C31218503   1.657   0.615   7.677  0.3012 -0.0280  0.1507
  164SAPE  H12X18504   1.767   0.625   7.669  0.6253 -2.7622  0.0744
  164SAPE  H12Y18505   1.631   0.510   7.650 -0.7399  0.3260 -0.2640
  164SAPE  C31318506   1.599   0.644   7.812 -0.4127 -0.6986  0.9044
  164SAPE  H13X18507   1.490   0.627   7.800 -0.8070  1.4465  1.0979
  164SAPE  H13Y18508   1.619   0.749   7.843  1.5445 -0.1841 -1.6613
  164SAPE  C31418509   1.651   0.570   7.930  0.2707  0.6048 -0.5378
  164SAPE  H14X18510   1.658   0.461   7.908  0.4162  0.4383  0.3200
  164SAPE  H14Y18511   1.569   0.563   8.005 -0.1538  0.7833 -0.9744
  164SAPE  C31518512   1.765   0.627   8.012 -0.4841  0.9636  0.0841
  164SAPE  H15X18513   1.802   0.721   7.966  2.4330 -0.3297 -0.4839
  164SAPE  H15Y18514   1.860   0.569   8.012  0.2410  2.1102 -0.5833
  164SAPE  C31618515   1.719   0.661   8.158  0.4908 -0.4660 -0.4736
  164SAPE  H16X18516   1.658   0.582   8.206 -0.3639  0.4012 -0.0901
  164SAPE  H16Y18517   1.637   0.732   8.135 -1.3736 -2.2365  0.4243
  164SAPE  C31718518   1.827   0.714   8.245 -0.3500  0.2224 -0.0097
  164SAPE  H17X18519   1.881   0.794   8.190  1.9648 -1.0500  0.2697
  164SAPE  H17Y18520   1.891   0.632   8.282 -1.4873 -0.0845  1.3515
  164SAPE  C31818521   1.772   0.774   8.380 -0.5930  0.0158  0.3290
  164SAPE  H18X18522   1.704   0.698   8.424 -0.2145  0.7928  2.3584
  164SAPE  H18Y18523   1.722   0.872   8.365  1.2882  0.8737 -0.6823
  164SAPE  H18Z18524   1.864   0.785   8.442  1.0095 -1.6367 -1.6054
  165SAPE     N18525   2.500   2.660   5.907  0.2838  0.2245  0.8694
  165SAPE   HN118526   2.510   2.647   5.804 -0.0543  1.2754  0.6972
  165SAPE   HN218527   2.547   2.749   5.932  1.3224 -0.9877  3.7093
  165SAPE   HN318528   2.562   2.588   5.949  0.6821  1.9894  3.5358
  165SAPE   C1218529   2.355   2.653   5.960  0.1268 -0.1463  0.5067
  165SAPE  H12A18530   2.331   2.546   5.980  0.5063 -0.3722 -0.1953
  165SAPE  H12B18531   2.295   2.686   5.873  0.5926 -0.0456  0.2187
  165SAPE   C1118532   2.325   2.753   6.077  0.4078 -0.7461  0.0713
  165SAPE  H11A18533   2.216   2.761   6.096  0.5515 -0.1436  0.6736
  165SAPE  H11B18534   2.360   2.856   6.054  0.0075 -0.6051  0.0965
  165SAPE     P18535   2.441   2.779   6.312  0.0217 -0.2222 -0.4292
  165SAPE   O1318536   2.454   2.700   6.442  0.4814 -0.1887  0.0665
  165SAPE   O1418537   2.560   2.858   6.275  0.3612  0.5534  0.3734
  165SAPE   O1218538   2.390   2.691   6.191 -0.4978  0.6226  0.2300
  165SAPE   O1118539   2.321   2.874   6.323  0.7125  0.8280 -0.2316
  165SAPE    C118540   2.200   2.824   6.381 -0.1452  0.1958 -0.6406
  165SAPE    HA18541   2.117   2.857   6.315  0.7164  1.8028 -0.9595
  165SAPE    HB18542   2.201   2.713   6.387  0.7309  0.2598  2.7869
  165SAPE    C218543   2.164   2.883   6.523  1.3560  0.3495 -0.6093
  165SAPE    HS18544   2.137   2.990   6.508  2.4227  0.6805 -0.2600
  165SAPE   O2118545   2.281   2.863   6.611  0.3794 -0.0348  0.6983
  165SAPE   C2118546   2.319   2.974   6.679 -0.2456  0.3584 -0.3961
  165SAPE   O2218547   2.271   3.083   6.668 -0.4361 -0.4106 -0.7290
  165SAPE   C2218548   2.444   2.931   6.765  0.1900  0.8491 -0.2583
  165SAPE   H2R18549   2.427   2.825   6.791  1.8373  0.4887 -0.5434
  165SAPE   H2S18550   2.530   2.937   6.695  0.9597  1.3418  0.7028
  165SAPE    C318551   2.045   2.796   6.570 -0.4004 -0.1890  0.7177
  165SAPE    HX18552   2.072   2.688   6.570  0.0393 -0.0849 -0.0976
  165SAPE    HY18553   1.959   2.814   6.502 -0.3384 -0.2708  0.6185
  165SAPE   O3118554   2.008   2.834   6.704 -0.3650  0.2207  0.4945
  165SAPE   C3118555   2.059   2.785   6.814  0.4682  0.2079 -0.5886
  165SAPE   O3218556   2.147   2.699   6.819 -0.0363 -0.4951 -0.3090
  165SAPE   C3218557   1.985   2.845   6.937  0.4255 -0.2779 -0.0957
  165SAPE   H2X18558   1.882   2.804   6.928  0.8286 -0.8555 -2.7171
  165SAPE   H2Y18559   1.993   2.956   6.940  2.1836 -0.3743 -0.4092
  165SAPE   C2318560   2.471   3.023   6.883 -0.2310 -0.3593  0.7465
  165SAPE   H3R18561   2.442   3.127   6.857 -0.1894 -0.5753 -0.2208
  165SAPE   H3S18562   2.577   3.013   6.915 -0.2589 -2.2653  0.3823
  165SAPE   C2418563   2.380   2.980   6.998  0.4404 -0.1190  0.0664
  165SAPE   H4R18564   2.288   2.942   6.949 -0.8418  2.0777  0.6466
  165SAPE   H4S18565   2.341   3.071   7.049 -1.1077 -0.5268 -0.3400
  165SAPE   C2518566   2.433   2.876   7.087  0.4716  0.1634  0.2889
  165SAPE   H5R18567   2.426   2.776   7.043  1.9267 -0.9836  2.4921
  165SAPE   C2618568   2.468   2.895   7.215  0.5697  0.4288 -0.4414
  165SAPE   H6R18569   2.513   2.812   7.271  0.9253 -0.4094 -1.9404
  165SAPE   C2718570   2.469   3.028   7.284 -0.0055 -0.5475 -0.1095
  165SAPE   H7R18571   2.374   3.057   7.333 -0.4288  0.2657 -1.3623
  165SAPE   H7S18572   2.478   3.115   7.215  1.2578  0.4392  1.2168
  165SAPE   C2818573   2.566   3.044   7.393 -0.5355 -0.0220 -0.4081
  165SAPE   H8R18574   2.658   3.098   7.365  0.6899  0.3269  3.6091
  165SAPE   C2918575   2.552   3.003   7.520  0.4056  0.2196  0.6980
  165SAPE   H9R18576   2.633   3.019   7.593 -0.0407 -1.8645  1.7177
  165SAPE  C21018577   2.439   2.923   7.581  0.0835  0.2412  0.1328
  165SAPE  H10R18578   2.477   2.829   7.626  0.1710  0.0097 -0.4286
  165SAPE  H10S18579   2.359   2.885   7.514  1.4526  0.8953 -1.9457
  165SAPE  C21118580   2.364   3.009   7.683  0.1762 -0.1914 -1.1247
  165SAPE  H11R18581   2.295   3.085   7.643  0.3058  0.2191 -0.5762
  165SAPE  C21218582   2.375   3.000   7.815 -0.3672  0.8812 -0.4623
  165SAPE  H12R18583   2.323   3.073   7.878 -2.4185 -0.8165 -0.0829
  165SAPE  C21318584   2.465   2.907   7.893  0.1829 -0.2888 -0.1881
  165SAPE  H13R18585   2.505   2.963   7.980  2.2571  0.2945 -1.4277
  165SAPE  H13S18586   2.553   2.863   7.840  0.6504  1.2673 -0.7475
  165SAPE  C21418587   2.376   2.789   7.933 -0.2235 -0.8618 -0.5264
  165SAPE  H14R18588   2.298   2.764   7.860 -1.0602  1.8972 -0.7053
  165SAPE  C21518589   2.390   2.723   8.049  0.2836  0.1014  0.2293
  165SAPE  H15R18590   2.309   2.654   8.076 -0.3646  1.1788  1.1544
  165SAPE  C21618591   2.491   2.753   8.160  0.7752  0.1908 -0.4662
  165SAPE  H16R18592   2.431   2.782   8.249  2.3006  0.7896  0.4102
  165SAPE  H16S18593   2.551   2.845   8.146 -0.3822  1.0799  0.2743
  165SAPE  C21718594   2.581   2.636   8.190 -0.1716  0.1208 -0.3326
  165SAPE  H17R18595   2.638   2.617   8.097  2.4381  3.2649  0.4665
  165SAPE  H17S18596   2.518   2.545   8.203  0.1746  0.0551  1.0594
  165SAPE  C21818597   2.683   2.658   8.301 -0.3533  0.6264  0.4808
  165SAPE  H18R18598   2.626   2.687   8.392 -1.7647 -3.7417  1.2032
  165SAPE  H18S18599   2.741   2.743   8.259 -0.8898  1.0157  0.5215
  165SAPE  C21918600   2.797   2.551   8.297 -0.1322  0.4332  1.0702
  165SAPE  H19R18601   2.831   2.531   8.193  0.2190 -3.4510  1.8048
  165SAPE  H19S18602   2.771   2.451   8.337  1.1044 -0.7391 -0.8728
  165SAPE  C22018603   2.909   2.580   8.393  0.0299 -0.0562  0.3054
  165SAPE  H20R18604   2.872   2.592   8.497 -0.1833 -2.6301  0.5805
  165SAPE  H20S18605   2.975   2.664   8.362  1.0459 -0.2908  1.7418
  165SAPE  H20T18606   2.977   2.493   8.404 -1.1627 -1.1771 -0.8558
  165SAPE   C3318607   2.055   2.801   7.069  0.2181 -0.5700  0.1728
  165SAPE   H3X18608   2.154   2.853   7.074 -1.9530  3.9953  1.5711
  165SAPE   H3Y18609   2.084   2.694   7.071  2.2021 -0.0663  0.1484
  165SAPE   C3418610   1.976   2.829   7.194 -0.4881  0.1330  0.5749
  165SAPE   H4X18611   1.906   2.743   7.187  2.5028 -2.3497 -2.1701
  165SAPE   H4Y18612   1.917   2.921   7.175  1.4812  1.4591  0.5586
  165SAPE   C3518613   2.059   2.835   7.319  0.0239  0.0440 -0.0312
  165SAPE   H5X18614   2.137   2.913   7.308  0.4097 -0.3266  0.0278
  165SAPE   H5Y18615   2.109   2.738   7.340 -1.8428 -0.7659  0.8911
  165SAPE   C3618616   1.974   2.831   7.449  0.1644 -0.0211  0.6124
  165SAPE   H6X18617   1.947   2.727   7.474  1.7644 -0.6834 -0.2366
  165SAPE   H6Y18618   1.886   2.894   7.427  0.8609  0.4288 -1.0378
  165SAPE   C3718619   2.051   2.903   7.559 -0.2152 -0.8888  0.8486
  165SAPE   H7X18620   2.085   3.002   7.522  2.3350 -2.0808 -0.2623
  165SAPE   H7Y18621   2.137   2.843   7.595 -0.3146  0.4416  3.5191
  165SAPE   C3818622   1.954   2.922   7.677  0.0058  0.0767  0.0780
  165SAPE   H8X18623   1.914   2.824   7.710 -0.2439 -0.6376 -2.1470
  165SAPE   H8Y18624   1.864   2.975   7.639  0.5452 -0.8728 -2.7990
  165SAPE   C3918625   2.009   2.995   7.804  0.0319 -0.1154  0.9208
  165SAPE   H9X18626   2.022   3.099   7.765  2.3534  0.2478  2.4885
  165SAPE   H9Y18627   2.106   2.955   7.840  0.6873 -0.0385 -0.6806
  165SAPE  C31018628   1.903   2.999   7.915 -0.4145 -0.4134 -0.4428
  165SAPE  H10X18629   1.800   3.028   7.886 -0.3902  0.6774  0.4823
  165SAPE  H10Y18630   1.939   3.080   7.981  2.2523 -1.8559  0.0361
  165SAPE  C31118631   1.903   2.872   7.994 -0.4849 -0.2822  0.8751
  165SAPE  H11X18632   1.912   2.786   7.924  1.0848  0.8056 -0.3283
  165SAPE  H11Y18633   1.808   2.863   8.050 -0.4329  0.5189  1.1086
  165SAPE  C31218634   2.017   2.863   8.100 -0.1079 -0.1223  1.2114
  165SAPE  H12X18635   1.989   2.934   8.181  0.4443  0.4782  0.8822
  165SAPE  H12Y18636   2.109   2.896   8.049 -0.8122  2.8085  1.6789
  165SAPE  C31318637   2.043   2.719   8.155  0.2737 -0.3790  0.3108
  165SAPE  H13X18638   2.094   2.660   8.076  1.1253  0.6451  0.0802
  165SAPE  H13Y18639   1.949   2.663   8.173 -1.0873  1.2527 -1.3073
  165SAPE  C31418640   2.120   2.718   8.290  0.1027  0.0491  0.7028
  165SAPE  H14X18641   2.071   2.790   8.359 -0.8624  1.7583 -1.6586
  165SAPE  H14Y18642   2.222   2.756   8.267  0.4747 -0.4683  1.4624
  165SAPE  C31518643   2.121   2.579   8.353 -1.0933 -0.3813  0.0056
  165SAPE  H15X18644   2.165   2.506   8.282 -1.0212  0.6427 -1.0404
  165SAPE  H15Y18645   2.019   2.545   8.377 -0.5109 -1.4611  1.0245
  165SAPE  C31618646   2.202   2.589   8.477  0.1458 -0.1925  0.0049
  165SAPE  H16X18647   2.161   2.667   8.545  0.4976  0.2359 -0.2667
  165SAPE  H16Y18648   2.310   2.611   8.461  0.5016 -3.0839 -2.6225
  165SAPE  C31718649   2.189   2.464   8.559  0.4362  0.3665 -0.0398
  165SAPE  H17X18650   2.080   2.446   8.561  0.3198  0.7742 -1.3896
  165SAPE  H17Y18651   2.209   2.488   8.665 -0.3881 -1.9686  0.7070
  165SAPE  C31818652   2.279   2.351   8.520 -0.0173  0.2210 -0.0634
  165SAPE  H18X18653   2.262   2.320   8.415  2.4224  2.3169 -1.1961
  165SAPE  H18Y18654   2.273   2.263   8.588  2.7677  0.1969  0.2969
  165SAPE  H18Z18655   2.386   2.383   8.522 -0.6773  2.6170  0.6581
  166SAPE     N18656   6.491   6.546   5.961  0.7188 -0.8240  0.0433
  166SAPE   HN118657   6.549   6.479   6.016  1.3166  1.4500  2.3594
  166SAPE   HN218658   6.474   6.626   6.025  0.2157 -1.3899  0.6214
  166SAPE   HN318659   6.407   6.493   5.931 -1.2048  2.0423  0.0503
  166SAPE   C1218660   6.560   6.583   5.835  0.0589 -0.2774 -0.9631
  166SAPE  H12A18661   6.488   6.633   5.766 -1.5024 -1.6368 -0.3894
  166SAPE  H12B18662   6.587   6.489   5.782  0.1861 -0.1922 -1.0511
  166SAPE   C1118663   6.684   6.665   5.856  0.8367  0.0596 -0.1865
  166SAPE  H11A18664   6.646   6.768   5.875 -0.2753 -0.1494 -1.2083
  166SAPE  H11B18665   6.735   6.659   5.758 -0.5874  1.2606 -1.0366
  166SAPE     P18666   6.921   6.635   5.972 -0.1518  0.4753 -0.3336
  166SAPE   O1318667   6.993   6.508   5.936 -0.4350  0.0135  0.0942
  166SAPE   O1418668   6.946   6.756   5.890  0.1455 -0.7314  0.4399
  166SAPE   O1218669   6.766   6.616   5.969  0.0880  0.1576 -0.2487
  166SAPE   O1118670   6.948   6.672   6.120  0.3566 -1.1917  0.3200
  166SAPE    C118671   6.877   6.785   6.187 -0.5091 -0.1164  0.4637
  166SAPE    HA18672   6.928   6.884   6.177  0.6356 -0.7309  0.0825
  166SAPE    HB18673   6.774   6.805   6.147 -0.4615 -1.1927 -0.2429
  166SAPE    C218674   6.854   6.743   6.336 -0.3088  0.2522  1.1760
  166SAPE    HS18675   6.771   6.806   6.374 -1.1193  0.8402 -1.4032
  166SAPE   O2118676   6.976   6.742   6.417  0.2280  0.4929 -0.5094
  166SAPE   C2118677   6.990   6.860   6.495 -0.1653 -0.0622  1.1035
  166SAPE   O2218678   6.905   6.945   6.504 -0.2379 -0.6121  0.8508
  166SAPE   C2218679   7.124   6.866   6.564  0.1198 -0.4784  0.0379
  166SAPE   H2R18680   7.206   6.838   6.494  1.3019 -2.0993  1.9397
  166SAPE   H2S18681   7.142   6.969   6.600 -1.2326 -0.5629  1.0329
  166SAPE    C318682   6.800   6.599   6.329  0.5524 -0.7100 -0.2829
  166SAPE    HX18683   6.885   6.542   6.286  0.8285 -1.6084  1.3626
  166SAPE    HY18684   6.714   6.589   6.259  0.3819  2.1126 -0.5931
  166SAPE   O3118685   6.760   6.552   6.459  0.7177  0.0070  0.4560
  166SAPE   C3118686   6.824   6.456   6.522 -0.2124 -0.0941 -0.7220
  166SAPE   O3218687   6.909   6.387   6.477 -0.0109 -0.3890  0.1025
  166SAPE   C3218688   6.762   6.448   6.669 -0.0244 -0.6151  0.4965
  166SAPE   H2X18689   6.677   6.519   6.673  2.8834  3.1900  0.0756
  166SAPE   H2Y18690   6.843   6.492   6.731 -1.9557  0.9106  2.0670
  166SAPE   C2318691   7.110   6.776   6.685 -0.0641  0.2420  0.4644
  166SAPE   H3R18692   7.099   6.667   6.666  4.1226 -0.4246  0.9541
  166SAPE   H3S18693   7.018   6.807   6.740 -0.4824 -0.4024  0.1321
  166SAPE   C2418694   7.234   6.805   6.780  0.0017  0.2626 -0.0367
  166SAPE   H4R18695   7.202   6.781   6.884 -1.6323 -0.3973 -0.6665
  166SAPE   H4S18696   7.252   6.914   6.768  2.9729 -0.3953 -2.8557
  166SAPE   C2518697   7.355   6.727   6.732 -0.1741  0.6938 -0.2638
  166SAPE   H5R18698   7.334   6.624   6.700  0.1080  0.4755  0.2386
  166SAPE   C2618699   7.484   6.775   6.710 -0.2352 -0.7114 -0.0776
  166SAPE   H6R18700   7.558   6.705   6.669  1.0153  1.2091 -1.2824
  166SAPE   C2718701   7.529   6.916   6.727  0.3228 -0.2465  0.0368
  166SAPE   H7R18702   7.444   6.986   6.741 -1.0526 -2.1973  2.1194
  166SAPE   H7S18703   7.560   6.948   6.625  0.2118 -0.1784  0.0248
  166SAPE   C2818704   7.648   6.956   6.814 -0.0599  0.7438  0.2553
  166SAPE   H8R18705   7.741   6.970   6.758 -1.0952 -0.2026 -1.8273
  166SAPE   C2918706   7.645   6.972   6.949  0.0642  0.1094  0.0866
  166SAPE   H9R18707   7.739   7.010   6.991  1.1062 -2.5822  0.4187
  166SAPE  C21018708   7.519   6.958   7.029 -0.1959  0.7348 -0.3423
  166SAPE  H10R18709   7.430   6.932   6.967 -0.2221 -0.8699  0.3195
  166SAPE  H10S18710   7.511   7.053   7.086 -0.8241  0.2411  0.4146
  166SAPE  C21118711   7.515   6.842   7.125 -0.1682 -0.2689  0.0718
  166SAPE  H11R18712   7.552   6.746   7.087  0.1566 -0.5523  1.0718
  166SAPE  C21218713   7.475   6.862   7.254 -0.5327  0.6249 -0.4382
  166SAPE  H12R18714   7.482   6.781   7.328  3.7137  0.1691 -1.1094
  166SAPE  C21318715   7.440   6.992   7.328  0.5640  0.6870  0.2412
  166SAPE  H13R18716   7.377   7.057   7.263 -0.7915 -0.9595 -0.1592
  166SAPE  H13S18717   7.532   7.039   7.367 -1.1609  2.3849  2.5539
  166SAPE  C21418718   7.344   6.956   7.446 -0.7681 -0.2788  0.3568
  166SAPE  H14R18719   7.241   6.943   7.410  0.0196  0.4770 -2.3671
  166SAPE  C21518720   7.373   6.924   7.572 -0.4443  0.6542 -0.3453
  166SAPE  H15R18721   7.289   6.902   7.639 -1.4423 -1.2024 -2.0972
  166SAPE  C21618722   7.507   6.909   7.637  0.3127  0.0896  0.2573
  166SAPE  H16R18723   7.573   6.993   7.606 -0.6950  1.0047  0.5185
  166SAPE  H16S18724   7.553   6.821   7.588 -1.0764  0.4098 -1.7588
  166SAPE  C21718725   7.493   6.899   7.787  0.2732  0.1524  0.0524
  166SAPE  H17R18726   7.480   7.003   7.825 -2.6760 -0.2253  0.3282
  166SAPE  H17S18727   7.589   6.866   7.831  0.4180 -1.9545 -1.6890
  166SAPE  C21818728   7.391   6.803   7.860 -0.1848 -0.9655  0.2012
  166SAPE  H18R18729   7.447   6.732   7.924  1.0746 -1.0792 -0.9862
  166SAPE  H18S18730   7.350   6.746   7.774  1.6158 -0.9094 -0.7527
  166SAPE  C21918731   7.270   6.876   7.918 -0.0047  0.3634  0.3330
  166SAPE  H19R18732   7.204   6.795   7.955  0.9859 -1.3111 -1.4141
  166SAPE  H19S18733   7.218   6.938   7.842 -1.5921  2.5522  2.9875
  166SAPE  C22018734   7.305   6.973   8.033  0.3704 -0.0974 -0.2800
  166SAPE  H20R18735   7.348   6.926   8.124 -0.9037 -0.4947  0.1404
  166SAPE  H20S18736   7.219   7.037   8.064  1.9417  1.5236  0.9178
  166SAPE  H20T18737   7.381   7.044   7.996 -0.4467  0.2659 -1.3218
  166SAPE   C3318738   6.739   6.303   6.718 -0.6703  0.3376  0.0689
  166SAPE   H3X18739   6.834   6.248   6.707 -0.0240  0.8745  2.3679
  166SAPE   H3Y18740   6.659   6.266   6.651 -1.4662 -0.4001  1.3830
  166SAPE   C3418741   6.680   6.309   6.860  0.8356  0.1228 -0.0679
  166SAPE   H4X18742   6.627   6.212   6.873  0.9039  0.1437  0.3887
  166SAPE   H4Y18743   6.610   6.395   6.864 -0.0321 -0.6060  1.0241
  166SAPE   C3518744   6.781   6.320   6.969 -0.9949 -0.3081  0.1334
  166SAPE   H5X18745   6.832   6.417   6.951  1.0424 -0.6666  3.2372
  166SAPE   H5Y18746   6.857   6.239   6.960 -0.3008  0.3864 -0.4125
  166SAPE   C3618747   6.713   6.309   7.108 -0.6257 -0.4424 -0.2381
  166SAPE   H6X18748   6.657   6.213   7.105 -0.7850 -0.3441 -0.4612
  166SAPE   H6Y18749   6.644   6.394   7.129  1.4287  0.7524  2.1291
  166SAPE   C3718750   6.815   6.290   7.227 -0.2631 -0.7131 -0.4915
  166SAPE   H7X18751   6.867   6.386   7.249 -0.3211 -1.0033  1.0216
  166SAPE   H7Y18752   6.883   6.208   7.198 -1.8310 -2.5197  0.6602
  166SAPE   C3818753   6.752   6.243   7.361  0.9557  0.4028 -0.3613
  166SAPE   H8X18754   6.831   6.185   7.414  0.1977 -1.7506 -1.4483
  166SAPE   H8Y18755   6.667   6.175   7.337  0.2855  0.0589  2.6493
  166SAPE   C3918756   6.714   6.354   7.456  0.7639  0.1291 -0.7110
  166SAPE   H9X18757   6.665   6.435   7.398  0.8682  1.6434  1.2272
  166SAPE   H9Y18758   6.812   6.400   7.483 -0.5082  2.4173  0.2778
  166SAPE  C31018759   6.643   6.320   7.585  0.7013  0.2391 -0.2953
  166SAPE  H10X18760   6.705   6.241   7.632 -0.1905 -1.7672 -2.2886
  166SAPE  H10Y18761   6.546   6.272   7.560  1.9468 -2.5266 -0.1447
  166SAPE  C31118762   6.635   6.447   7.669  0.4936  0.4236  0.5904
  166SAPE  H11X18763   6.578   6.522   7.609 -1.3049 -0.8116  0.6516
  166SAPE  H11Y18764   6.733   6.499   7.675  0.9903  0.3083 -3.3435
  166SAPE  C31218765   6.572   6.434   7.814 -0.1351 -0.1595  0.9826
  166SAPE  H12X18766   6.633   6.369   7.881 -1.5607 -1.5275  1.0195
  166SAPE  H12Y18767   6.470   6.392   7.800 -0.2165  1.0184 -3.1382
  166SAPE  C31318768   6.539   6.570   7.892 -0.4764 -0.2285  0.3622
  166SAPE  H13X18769   6.505   6.556   7.997  2.5204  2.0283  1.7931
  166SAPE  H13Y18770   6.453   6.617   7.840  1.1480  0.6493 -1.6978
  166SAPE  C31418771   6.662   6.652   7.896 -0.4706  0.3677 -0.4055
  166SAPE  H14X18772   6.685   6.663   7.787 -1.8615  1.7652 -0.5914
  166SAPE  H14Y18773   6.747   6.595   7.939 -0.9118  1.6516  2.3834
  166SAPE  C31518774   6.658   6.795   7.949  0.3633 -0.0710  0.8941
  166SAPE  H15X18775   6.591   6.856   7.886 -1.0025 -2.0658  0.3163
  166SAPE  H15Y18776   6.760   6.840   7.943  0.4724 -0.3109  0.9325
  166SAPE  C31618777   6.625   6.809   8.092 -0.1163  0.2396 -1.0063
  166SAPE  H16X18778   6.534   6.748   8.113  0.8320 -0.4903  1.2573
  166SAPE  H16Y18779   6.607   6.917   8.109 -1.6906 -0.3820  1.9959
  166SAPE  C31718780   6.733   6.766   8.200  0.0426 -1.0378  0.1129
  166SAPE  H17X18781   6.816   6.840   8.203 -0.2167 -0.7754  1.1440
  166SAPE  H17Y18782   6.772   6.669   8.164  0.5363 -0.1100 -1.9791
  166SAPE  C31818783   6.682   6.755   8.343 -0.2634  0.0281 -0.5410
  166SAPE  H18X18784   6.632   6.845   8.385  0.5526  0.0054  0.5181
  166SAPE  H18Y18785   6.764   6.736   8.416 -1.2357 -1.3636  0.2447
  166SAPE  H18Z18786   6.608   6.673   8.355 -0.9598  0.7594  0.3717
  167SAPE     N18787   1.842   5.675   6.082 -0.5455 -0.0932  0.1694
  167SAPE   HN118788   1.865   5.766   6.127 -2.5910  1.1781 -1.1631
  167SAPE   HN218789   1.929   5.621   6.063  0.2165  0.8544  0.8529
  167SAPE   HN318790   1.786   5.691   5.996 -2.1483  1.7373  1.4456
  167SAPE   C1218791   1.767   5.592   6.177 -0.5175 -0.1730 -0.2665
  167SAPE  H12A18792   1.794   5.614   6.283  0.1201  0.5061 -0.5599
  167SAPE  H12B18793   1.781   5.485   6.150  0.0143  0.2439 -1.7067
  167SAPE   C1118794   1.615   5.610   6.152  0.1136  0.0564  1.0937
  167SAPE  H11A18795   1.567   5.539   6.223  0.5905  0.6603  2.0583
  167SAPE  H11B18796   1.604   5.578   6.047 -1.3125 -1.8209  1.7619
  167SAPE     P18797   1.430   5.786   6.211  0.0078  0.1804 -0.1267
  167SAPE   O1318798   1.414   5.935   6.203 -0.2498 -0.0503  0.0130
  167SAPE   O1418799   1.344   5.712   6.125  0.0132 -0.1604  1.0179
  167SAPE   O1218800   1.579   5.749   6.170  0.6902 -0.8025 -0.7881
  167SAPE   O1118801   1.419   5.744   6.365  0.0848  0.1542 -0.2584
  167SAPE    C118802   1.291   5.775   6.426 -0.2808  0.0377 -0.3622
  167SAPE    HA18803   1.306   5.879   6.462  2.2623  0.0197 -1.1380
  167SAPE    HB18804   1.203   5.788   6.359 -1.2750 -0.0075  0.8911
  167SAPE    C218805   1.257   5.693   6.547 -0.3983  0.2526  0.6622
  167SAPE    HS18806   1.161   5.731   6.589 -0.6748  1.0768 -0.6524
  167SAPE   O2118807   1.362   5.700   6.650  0.6474  0.0510  0.2658
  167SAPE   C2118808   1.364   5.819   6.710  0.2414 -0.0482 -0.0966
  167SAPE   O2218809   1.283   5.910   6.704  0.5903  0.7660  0.1913
  167SAPE   C2218810   1.498   5.814   6.798 -0.3347  0.0483  0.7263
  167SAPE   H2R18811   1.483   5.727   6.864  2.6948 -3.9058 -3.1872
  167SAPE   H2S18812   1.584   5.782   6.734  0.0659  0.7577  0.8941
  167SAPE    C318813   1.230   5.552   6.490 -0.7391 -0.3886 -0.8653
  167SAPE    HX18814   1.320   5.524   6.431 -0.4621  1.3220 -1.3120
  167SAPE    HY18815   1.139   5.569   6.429 -2.7671 -1.2048  1.7921
  167SAPE   O3118816   1.206   5.456   6.593 -0.1315  0.5598 -0.0150
  167SAPE   C3118817   1.319   5.396   6.656  0.3749 -0.0640  0.2291
  167SAPE   O3218818   1.433   5.423   6.632  0.1468 -0.2355  0.2152
  167SAPE   C3218819   1.253   5.287   6.749 -0.2897 -0.8733  0.6770
  167SAPE   H2X18820   1.298   5.191   6.717  3.3286  0.2524  1.9193
  167SAPE   H2Y18821   1.145   5.278   6.725 -1.1162  1.5589  3.0228
  167SAPE   C2318822   1.522   5.945   6.874  0.1502 -0.1248  0.0645
  167SAPE   H3R18823   1.514   6.023   6.795 -1.0710 -0.2441  0.0427
  167SAPE   H3S18824   1.623   5.961   6.917 -1.2877  3.0509  2.6530
  167SAPE   C2418825   1.417   5.961   6.994 -0.0159  0.2453  0.4884
  167SAPE   H4R18826   1.430   5.868   7.054  2.1467 -0.1108 -0.4376
  167SAPE   H4S18827   1.315   5.971   6.952 -0.5542 -0.8479  1.4725
  167SAPE   C2518828   1.446   6.085   7.072 -0.2559  0.1385  0.3838
  167SAPE   H5R18829   1.431   6.180   7.019 -0.3909  1.2675  2.3574
  167SAPE   C2618830   1.474   6.087   7.204  0.6907  0.5032 -0.5252
  167SAPE   H6R18831   1.496   6.183   7.251  2.1354 -0.6701  1.3220
  167SAPE   C2718832   1.481   5.972   7.310  0.6532  0.0970 -0.2609
  167SAPE   H7R18833   1.571   5.973   7.375  1.1459 -0.6338 -0.9187
  167SAPE   H7S18834   1.488   5.879   7.250  1.5447 -0.1257  0.1706
  167SAPE   C2818835   1.347   5.978   7.387  0.0384  0.1715  0.8918
  167SAPE   H8R18836   1.249   5.974   7.337  0.0264  2.4480  0.5970
  167SAPE   C2918837   1.342   5.991   7.521 -0.0358 -0.0535 -0.4727
  167SAPE   H9R18838   1.243   5.992   7.569 -0.2343 -1.4298 -0.8115
  167SAPE  C21018839   1.453   5.989   7.621  0.5963 -0.3907 -0.1283
  167SAPE  H10R18840   1.551   5.971   7.573  0.2130 -1.6102 -0.4938
  167SAPE  H10S18841   1.427   5.903   7.686 -0.6771  0.6281  0.7708
  167SAPE  C21118842   1.472   6.110   7.712  0.4574 -0.2535 -0.5540
  167SAPE  H11R18843   1.440   6.204   7.665  2.8872  0.2576 -1.3356
  167SAPE  C21218844   1.540   6.111   7.831  0.8038 -0.2873  0.3026
  167SAPE  H12R18845   1.547   6.197   7.898  2.7729 -0.8181  0.8265
  167SAPE  C21318846   1.604   5.984   7.885 -0.1348 -0.2941  0.5959
  167SAPE  H13R18847   1.643   5.937   7.792 -1.0941  1.7619 -0.9408
  167SAPE  H13S18848   1.532   5.917   7.936 -0.9826 -0.7116 -1.0668
  167SAPE  C21418849   1.726   6.015   7.988  0.3952  0.7622  1.2803
  167SAPE  H14R18850   1.800   6.085   7.945  1.3126 -0.9416 -0.0432
  167SAPE  C21518851   1.758   5.952   8.100  0.0180  0.0095 -0.0811
  167SAPE  H15R18852   1.840   5.989   8.165  0.3210  1.6879 -1.3309
  167SAPE  C21618853   1.680   5.837   8.168 -0.2185 -0.2925  0.3352
  167SAPE  H16R18854   1.741   5.763   8.224  2.2160 -0.2095 -2.0026
  167SAPE  H16S18855   1.628   5.768   8.098  3.5195 -3.0204 -0.0544
  167SAPE  C21718856   1.579   5.896   8.268 -0.0586 -0.5929 -0.3941
  167SAPE  H17R18857   1.511   5.815   8.302 -0.8137  0.0508 -0.3376
  167SAPE  H17S18858   1.507   5.963   8.216 -0.2739  1.0889  1.9250
  167SAPE  C21818859   1.636   5.947   8.408 -0.4640  0.3529 -0.3441
  167SAPE  H18R18860   1.686   6.044   8.386 -0.0589  0.1533 -0.3254
  167SAPE  H18S18861   1.712   5.877   8.449 -0.5935 -0.3084 -1.1911
  167SAPE  C21918862   1.532   5.967   8.517 -0.7434 -0.1191 -0.0623
  167SAPE  H19R18863   1.486   5.867   8.534 -1.7061 -0.3159 -3.2092
  167SAPE  H19S18864   1.452   6.034   8.479  0.2953  0.4917 -1.1995
  167SAPE  C22018865   1.589   6.024   8.644 -0.2243 -0.2223 -0.3091
  167SAPE  H20R18866   1.692   5.989   8.664 -0.3975 -1.8282 -2.0146
  167SAPE  H20S18867   1.527   6.006   8.734  1.7845  0.3421  1.2477
  167SAPE  H20T18868   1.604   6.133   8.630  0.1643 -0.1728  0.4422
  167SAPE   C3318869   1.275   5.313   6.898 -0.9291 -0.4973  0.1706
  167SAPE   H3X18870   1.384   5.302   6.921 -1.1875 -3.4713  0.3150
  167SAPE   H3Y18871   1.219   5.235   6.953 -0.1760 -1.0639  0.1578
  167SAPE   C3418872   1.211   5.446   6.941  0.0495 -0.1330  0.2097
  167SAPE   H4X18873   1.193   5.510   6.852 -2.1041  1.2174  1.5054
  167SAPE   H4Y18874   1.273   5.500   7.016  1.7308  0.2271 -1.3642
  167SAPE   C3518875   1.075   5.423   7.005  0.5231 -0.4397 -0.2785
  167SAPE   H5X18876   1.019   5.336   6.965  1.0052 -0.7167 -0.3618
  167SAPE   H5Y18877   1.011   5.512   6.987  1.4838 -0.1719 -2.6623
  167SAPE   C3618878   1.082   5.404   7.151 -0.1264  0.3572 -0.1180
  167SAPE   H6X18879   1.170   5.342   7.180 -0.4563 -0.2240 -0.3273
  167SAPE   H6Y18880   0.990   5.360   7.197  0.6028  0.5559  1.6251
  167SAPE   C3718881   1.083   5.535   7.236  0.2167 -0.0463 -0.1841
  167SAPE   H7X18882   0.996   5.591   7.196  0.3090 -0.1643 -0.5526
  167SAPE   H7Y18883   1.167   5.606   7.220  0.8884 -0.5066  1.1408
  167SAPE   C3818884   1.058   5.511   7.378 -0.0466 -0.4389  0.1830
  167SAPE   H8X18885   1.144   5.451   7.413 -2.0831 -2.6847  1.6407
  167SAPE   H8Y18886   0.962   5.461   7.405  0.4235 -1.1536  0.5489
  167SAPE   C3918887   1.072   5.650   7.447  0.5048 -0.3043 -0.4603
  167SAPE   H9X18888   0.988   5.707   7.401  0.6421 -0.8564 -1.4243
  167SAPE   H9Y18889   1.167   5.704   7.427  0.5862 -0.9472 -1.9635
  167SAPE  C31018890   1.063   5.641   7.604  0.0182  0.4688 -0.1964
  167SAPE  H10X18891   1.151   5.579   7.633 -0.7893 -0.8276 -0.4677
  167SAPE  H10Y18892   0.973   5.586   7.637 -0.2182  1.4984  0.9687
  167SAPE  C31118893   1.066   5.786   7.667 -0.0358 -0.0535 -0.2588
  167SAPE  H11X18894   0.981   5.845   7.628 -0.1287  1.2475  1.7876
  167SAPE  H11Y18895   1.169   5.817   7.639  0.5542 -1.7040  0.0021
  167SAPE  C31218896   1.058   5.786   7.819  0.4650 -0.2352  0.2533
  167SAPE  H12X18897   1.136   5.714   7.850 -0.0073 -1.2054 -0.7371
  167SAPE  H12Y18898   0.959   5.746   7.851  0.8526  0.0958  1.9591
  167SAPE  C31318899   1.080   5.918   7.886 -0.9317 -0.5385 -0.6930
  167SAPE  H13X18900   0.996   5.983   7.855 -0.6735  0.3894  0.4815
  167SAPE  H13Y18901   1.167   5.960   7.831  0.8808 -1.4305  1.3514
  167SAPE  C31418902   1.106   5.900   8.036  0.0618  0.2000 -0.1510
  167SAPE  H14X18903   1.199   5.840   8.046  0.4689  0.9813  0.8844
  167SAPE  H14Y18904   1.024   5.839   8.080  0.6208 -0.0342  0.5726
  167SAPE  C31518905   1.127   6.030   8.119  0.1714  0.9459  0.5161
  167SAPE  H15X18906   1.039   6.096   8.101  0.5105  1.0349 -0.9556
  167SAPE  H15Y18907   1.216   6.082   8.078  1.7487  0.8119  3.4756
  167SAPE  C31618908   1.147   6.004   8.269 -0.3649  0.0295  0.0616
  167SAPE  H16X18909   1.247   5.956   8.268  1.2816  3.1537 -2.2578
  167SAPE  H16Y18910   1.071   5.931   8.306 -0.0085 -0.9417 -1.0596
  167SAPE  C31718911   1.160   6.125   8.366  0.6362 -0.2849 -0.0411
  167SAPE  H17X18912   1.257   6.174   8.346 -0.2569  1.4298 -0.3568
  167SAPE  H17Y18913   1.161   6.078   8.467 -1.2836 -1.4564 -0.5003
  167SAPE  C31818914   1.049   6.233   8.348  0.0198 -0.2578  0.1750
  167SAPE  H18X18915   1.078   6.294   8.260  0.4104  0.7734  1.0051
  167SAPE  H18Y18916   1.048   6.302   8.435 -0.5193 -2.0825  1.6822
  167SAPE  H18Z18917   0.946   6.199   8.322  0.2487  0.7444 -2.3791
  168SAPE     N18918   2.717   1.137   6.125  0.2195 -0.2220  0.1051
  168SAPE   HN118919   2.725   1.241   6.126  2.5125 -0.3336  1.6349
  168SAPE   HN218920   2.796   1.115   6.190  1.3787  2.7095 -0.1137
  168SAPE   HN318921   2.744   1.103   6.031 -1.3506 -1.2531  0.0011
  168SAPE   C1218922   2.590   1.080   6.180  0.4184 -0.3351 -0.1142
  168SAPE  H12A18923   2.526   1.071   6.090  0.8620  1.4483 -0.6461
  168SAPE  H12B18924   2.538   1.149   6.249  0.6860 -1.6097  1.4196
  168SAPE   C1118925   2.617   0.951   6.247  0.1898  0.3459 -0.0317
  168SAPE  H11A18926   2.650   0.874   6.174  0.0539  2.5628 -2.5844
  168SAPE  H11B18927   2.518   0.926   6.289 -0.5677  3.5797  0.3966
  168SAPE     P18928   2.765   0.849   6.449 -0.0498  0.0689  0.0770
  168SAPE   O1318929   2.665   0.741   6.422 -0.1035 -0.4515 -0.2370
  168SAPE   O1418930   2.913   0.833   6.431 -0.3883 -0.7240 -0.5120
  168SAPE   O1218931   2.718   0.971   6.359  0.1473 -0.0145  0.1395
  168SAPE   O1118932   2.732   0.892   6.598 -0.6632  0.4185  0.4597
  168SAPE    C118933   2.627   0.988   6.626  0.1338  0.7351  0.0026
  168SAPE    HA18934   2.668   1.090   6.638  0.6770  0.7900 -1.8599
  168SAPE    HB18935   2.560   1.003   6.538  1.3431 -0.2303 -1.1381
  168SAPE    C218936   2.542   0.942   6.746  0.2355 -0.3631 -0.1949
  168SAPE    HS18937   2.451   1.007   6.748 -0.1562 -0.8894 -0.5106
  168SAPE   O2118938   2.611   0.955   6.871 -0.4415 -0.0162  0.2970
  168SAPE   C2118939   2.607   1.076   6.922  0.3593 -0.4069  0.0547
  168SAPE   O2218940   2.550   1.173   6.880 -0.6172  0.4130  0.0280
  168SAPE   C2218941   2.666   1.058   7.066  0.1950 -0.1547  0.8878
  168SAPE   H2R18942   2.633   0.956   7.095  1.6416 -1.1182 -0.6453
  168SAPE   H2S18943   2.776   1.060   7.076  0.1361  3.6460  2.2022
  168SAPE    C318944   2.494   0.797   6.720  0.0087 -0.0702 -0.6615
  168SAPE    HX18945   2.588   0.738   6.722 -0.6933 -1.2338  0.4997
  168SAPE    HY18946   2.448   0.779   6.621 -1.5249 -2.3999  0.3718
  168SAPE   O3118947   2.403   0.744   6.821 -0.3454  0.2834 -0.0536
  168SAPE   C3118948   2.282   0.793   6.823 -0.3284 -0.3239 -0.1766
  168SAPE   O3218949   2.221   0.871   6.754  0.3797 -0.0445  0.7877
  168SAPE   C3218950   2.222   0.738   6.958 -0.1401 -0.2497  0.0727
  168SAPE   H2X18951   2.226   0.627   6.961 -0.7668 -0.2566  1.2957
  168SAPE   H2Y18952   2.113   0.758   6.962 -0.3867 -1.6279  0.8113
  168SAPE   C2318953   2.590   1.140   7.177  0.3721 -0.5461  0.0573
  168SAPE   H3R18954   2.481   1.118   7.170  0.6714 -1.6090 -1.7667
  168SAPE   H3S18955   2.597   1.250   7.165  0.1568 -0.4753  0.5508
  168SAPE   C2418956   2.622   1.110   7.326 -0.0381 -0.2442  0.1313
  168SAPE   H4R18957   2.731   1.130   7.331  0.3618 -2.2898  0.7912
  168SAPE   H4S18958   2.615   1.001   7.349  2.6332 -0.3776  0.6387
  168SAPE   C2518959   2.549   1.190   7.425  0.5572  0.5192  0.1740
  168SAPE   H5R18960   2.488   1.270   7.379 -2.3577 -2.6333 -1.8828
  168SAPE   C2618961   2.545   1.155   7.556  0.3228 -0.4858  0.2358
  168SAPE   H6R18962   2.474   1.211   7.619 -0.7014 -1.3487 -0.1061
  168SAPE   C2718963   2.620   1.039   7.615 -0.0216 -0.2852 -0.1307
  168SAPE   H7R18964   2.671   0.971   7.544  2.0935  1.7838 -0.7120
  168SAPE   H7S18965   2.549   0.993   7.687  1.1521  0.3694  1.5105
  168SAPE   C2818966   2.738   1.086   7.688 -0.2024 -0.2080 -0.2436
  168SAPE   H8R18967   2.803   1.140   7.617  0.0711 -0.9708 -0.5851
  168SAPE   C2918968   2.768   1.068   7.818 -0.0401  0.1905  0.0868
  168SAPE   H9R18969   2.862   1.104   7.863 -0.7034 -0.2778  1.9301
  168SAPE  C21018970   2.687   0.990   7.922 -0.4774 -0.1892  0.0439
  168SAPE  H10R18971   2.766   0.936   7.978  0.3429  1.2068  0.2988
  168SAPE  H10S18972   2.627   0.913   7.869 -0.4498  0.6179 -1.1972
  168SAPE  C21118973   2.594   1.067   8.012  0.3445 -0.3570 -0.6081
  168SAPE  H11R18974   2.535   1.149   7.968 -0.3078  0.4318  1.5972
  168SAPE  C21218975   2.582   1.049   8.142 -0.3805  0.5142 -0.3113
  168SAPE  H12R18976   2.494   1.095   8.189 -0.4730  0.9294 -0.8803
  168SAPE  C21318977   2.665   0.949   8.220  0.5712 -0.2296 -0.1309
  168SAPE  H13R18978   2.757   0.994   8.263  1.3103 -0.6974 -1.1837
  168SAPE  H13S18979   2.686   0.860   8.157  0.1290  0.0457 -0.6785
  168SAPE  C21418980   2.583   0.887   8.328 -0.7056 -0.1965 -0.8320
  168SAPE  H14R18981   2.533   0.791   8.308 -2.2583  0.4587 -0.2469
  168SAPE  C21518982   2.571   0.943   8.450 -0.1921 -0.3187  0.1300
  168SAPE  H15R18983   2.506   0.893   8.523  0.3191 -1.4019 -0.1362
  168SAPE  C21618984   2.641   1.073   8.485  0.0943  0.3961 -0.1385
  168SAPE  H16R18985   2.593   1.162   8.438 -0.0759  0.9493  1.0387
  168SAPE  H16S18986   2.746   1.071   8.450  0.3501 -0.6558  0.6713
  168SAPE  C21718987   2.650   1.092   8.639 -0.1356  0.1710 -0.6724
  168SAPE  H17R18988   2.696   1.001   8.683 -0.7163 -0.9076 -2.2179
  168SAPE  H17S18989   2.552   1.109   8.689  1.0862  1.7776  1.3438
  168SAPE  C21818990   2.725   1.211   8.687 -0.2288 -0.2689  0.6852
  168SAPE  H18R18991   2.677   1.305   8.652  2.5476  0.8476 -0.3634
  168SAPE  H18S18992   2.822   1.212   8.634 -0.9310 -0.2065 -0.6443
  168SAPE  C21918993   2.766   1.218   8.839  0.5028  0.8323 -0.2300
  168SAPE  H19R18994   2.823   1.128   8.869 -0.6387  0.0637 -0.3095
  168SAPE  H19S18995   2.682   1.217   8.912  1.8503  0.0040  1.3680
  168SAPE  C22018996   2.847   1.342   8.870 -0.3685 -0.3069 -0.0112
  168SAPE  H20R18997   2.839   1.363   8.979 -1.0373 -0.8319  0.0497
  168SAPE  H20S18998   2.809   1.434   8.821 -0.2737 -0.6410 -0.7258
  168SAPE  H20T18999   2.956   1.343   8.846 -0.1032 -1.7841  0.9796
  168SAPE   C3319000   2.298   0.798   7.079 -0.3073  0.2243 -0.9145
  168SAPE   H3X19001   2.327   0.904   7.061  1.4441  0.2217  1.4031
  168SAPE   H3Y19002   2.397   0.749   7.088 -1.2231 -1.6795 -0.8332
  168SAPE   C3419003   2.221   0.798   7.209  0.5234 -0.2424  0.1921
  168SAPE   H4X19004   2.179   0.695   7.215 -1.2417  0.1869 -2.7755
  168SAPE   H4Y19005   2.131   0.863   7.207  0.8779  0.2538  0.0967
  168SAPE   C3519006   2.312   0.825   7.330 -0.4760  0.0661 -0.2116
  168SAPE   H5X19007   2.368   0.920   7.316  1.6232 -1.1675 -0.4431
  168SAPE   H5Y19008   2.386   0.744   7.344  0.3341  0.7555 -0.4464
  168SAPE   C3619009   2.237   0.826   7.459  0.6981 -0.2415 -1.1776
  168SAPE   H6X19010   2.142   0.768   7.459  0.6030 -0.0916 -0.6696
  168SAPE   H6Y19011   2.204   0.932   7.470  0.1901 -0.5584  0.7137
  168SAPE   C3719012   2.317   0.776   7.590  0.3801  0.0890 -0.1130
  168SAPE   H7X19013   2.403   0.845   7.607 -0.3449  0.8955  0.4038
  168SAPE   H7Y19014   2.355   0.673   7.578  1.4702  0.2584  1.4692
  168SAPE   C3819015   2.232   0.767   7.716  0.2030 -0.4868 -0.4979
  168SAPE   H8X19016   2.150   0.695   7.702  0.1769 -0.7017  0.6394
  168SAPE   H8Y19017   2.179   0.862   7.737  0.3796 -0.1145 -1.6640
  168SAPE   C3919018   2.315   0.741   7.840 -0.2291  0.1270 -0.4784
  168SAPE   H9X19019   2.369   0.837   7.850 -1.7701  1.3602 -3.0466
  168SAPE   H9Y19020   2.379   0.654   7.813  0.8029  0.5349  0.6080
  168SAPE  C31019021   2.242   0.719   7.974  0.4149 -0.6173  0.0767
  168SAPE  H10X19022   2.178   0.628   7.971 -0.0950 -0.2708  0.3186
  168SAPE  H10Y19023   2.175   0.808   7.970  2.8761  1.3161 -0.7915
  168SAPE  C31119024   2.336   0.710   8.088 -0.6689 -0.0026  0.7782
  168SAPE  H11X19025   2.412   0.788   8.065 -0.4364 -0.3445  0.3725
  168SAPE  H11Y19026   2.393   0.616   8.070 -1.1004  0.1519 -1.7892
  168SAPE  C31219027   2.266   0.718   8.229  0.5616  0.2289 -0.0630
  168SAPE  H12X19028   2.341   0.683   8.303  0.9518 -2.2943 -1.5413
  168SAPE  H12Y19029   2.198   0.630   8.233  1.9175 -1.0164 -2.2426
  168SAPE  C31319030   2.194   0.854   8.248  0.9494 -0.2075  0.4673
  168SAPE  H13X19031   2.091   0.851   8.205  0.0753  0.8711  2.3556
  168SAPE  H13Y19032   2.256   0.933   8.201  0.9253 -0.1791  0.4837
  168SAPE  C31419033   2.196   0.881   8.403  0.1504  0.1160  0.5895
  168SAPE  H14X19034   2.295   0.873   8.452 -0.1842 -1.2095  1.0855
  168SAPE  H14Y19035   2.127   0.798   8.427  1.0652 -1.4238 -1.7592
  168SAPE  C31519036   2.123   1.012   8.445 -0.1060 -0.8394 -0.1154
  168SAPE  H15X19037   2.030   1.006   8.384 -0.0628 -0.6830 -0.1974
  168SAPE  H15Y19038   2.187   1.101   8.429 -0.7511 -0.2711  0.4362
  168SAPE  C31619039   2.075   1.034   8.590 -0.3283  0.0935  0.6787
  168SAPE  H16X19040   1.993   0.963   8.612 -0.0418 -0.6919 -0.6908
  168SAPE  H16Y19041   2.022   1.132   8.598 -1.4866 -0.2081 -2.0673
  168SAPE  C31719042   2.183   1.006   8.697  0.4963  0.7322  0.4419
  168SAPE  H17X19043   2.259   1.085   8.677 -0.2461  1.2686 -0.3611
  168SAPE  H17Y19044   2.229   0.906   8.679 -2.4883 -0.4379 -1.4133
  168SAPE  C31819045   2.144   1.012   8.844 -0.0406  0.3098  0.0197
  168SAPE  H18X19046   2.074   0.936   8.884 -2.4384  2.6428  0.5521
  168SAPE  H18Y19047   2.084   1.104   8.860 -0.5089  0.5516 -2.6247
  168SAPE  H18Z19048   2.236   1.021   8.906 -0.2966  0.1582  0.4214
  169SAPE     N19049   2.907   3.314   6.126  0.3442 -0.2854  0.1268
  169SAPE   HN119050   2.838   3.273   6.060  0.3998  1.7974 -1.3480
  169SAPE   HN219051   3.004   3.279   6.113 -0.3599 -2.3476  0.1323
  169SAPE   HN319052   2.879   3.292   6.224  1.4729  0.4369  0.6392
  169SAPE   C1219053   2.911   3.464   6.117 -0.1756  0.1753 -0.2063
  169SAPE  H12A19054   2.921   3.500   6.012  0.7851  0.0081 -0.1843
  169SAPE  H12B19055   3.005   3.496   6.167  0.6017  1.0188 -2.0846
  169SAPE   C1119056   2.800   3.534   6.198  0.4202  0.3034  0.3478
  169SAPE  H11A19057   2.808   3.641   6.169  0.7453 -0.4931 -3.0125
  169SAPE  H11B19058   2.798   3.529   6.309 -2.7502  4.1273  0.6973
  169SAPE     P19059   2.566   3.540   6.074  0.6013 -0.7553 -0.0434
  169SAPE   O1319060   2.620   3.641   5.977  0.2217  0.5417  0.1556
  169SAPE   O1419061   2.481   3.432   6.018 -0.1946 -0.2605  0.0337
  169SAPE   O1219062   2.682   3.466   6.155  0.1828 -0.7045  0.3764
  169SAPE   O1119063   2.490   3.619   6.186 -0.4064 -0.0780 -0.7458
  169SAPE    C119064   2.439   3.562   6.302 -0.1958  0.2981  0.5363
  169SAPE    HA19065   2.330   3.584   6.307 -0.1061  0.6682  0.9304
  169SAPE    HB19066   2.447   3.451   6.303 -0.1739  0.2922  1.8339
  169SAPE    C219067   2.523   3.618   6.418  0.3710  0.2058 -0.5759
  169SAPE    HS19068   2.631   3.612   6.392  1.0633  3.3740  1.0387
  169SAPE   O2119069   2.495   3.548   6.545 -0.2951 -0.0876 -0.1960
  169SAPE   C2119070   2.541   3.424   6.550  0.0628 -0.3237 -0.0101
  169SAPE   O2219071   2.622   3.375   6.469 -0.3953 -0.3048  0.1017
  169SAPE   C2219072   2.503   3.353   6.679 -0.9626 -0.0433 -0.8860
  169SAPE   H2R19073   2.407   3.398   6.712 -0.6848  0.8169 -1.2229
  169SAPE   H2S19074   2.467   3.252   6.650 -0.4232  0.2486 -2.6856
  169SAPE    C319075   2.495   3.773   6.440 -0.2561 -0.7300  0.1080
  169SAPE    HX19076   2.390   3.768   6.477 -0.2530 -0.4738  0.1563
  169SAPE    HY19077   2.500   3.829   6.345 -0.6207 -0.6149  0.1539
  169SAPE   O3119078   2.583   3.817   6.545  0.4381 -0.0628  0.0576
  169SAPE   C3119079   2.704   3.860   6.495  0.1410  0.6543 -0.4877
  169SAPE   O3219080   2.727   3.866   6.378  0.5111  0.0045  0.3028
  169SAPE   C3219081   2.802   3.901   6.599  0.6580  0.9745 -0.1359
  169SAPE   H2X19082   2.764   3.981   6.665  0.4641  0.4858  0.3478
  169SAPE   H2Y19083   2.889   3.939   6.541 -0.4605  1.2550 -1.6941
  169SAPE   C2319084   2.593   3.367   6.807 -0.2784  0.9127 -0.2690
  169SAPE   H3R19085   2.547   3.308   6.890 -1.0129  2.6352  0.5913
  169SAPE   H3S19086   2.602   3.472   6.842 -0.3331  0.5718  0.8244
  169SAPE   C2419087   2.740   3.321   6.793  0.0025  0.0207 -0.0358
  169SAPE   H4R19088   2.784   3.335   6.894 -0.0499 -1.1474  0.1621
  169SAPE   H4S19089   2.783   3.402   6.730  2.5564 -2.3604 -1.5477
  169SAPE   C2519090   2.760   3.183   6.737 -0.3519  0.0042 -0.3587
  169SAPE   H5R19091   2.702   3.164   6.646 -0.7753 -1.3996  0.1809
  169SAPE   C2619092   2.825   3.077   6.794  0.3331 -0.0905  0.5876
  169SAPE   H6R19093   2.835   2.987   6.732  3.5270  0.5804 -0.0740
  169SAPE   C2719094   2.893   3.070   6.927  0.1184  0.2507  0.0246
  169SAPE   H7R19095   2.930   2.966   6.931 -0.9851 -0.1884 -0.7587
  169SAPE   H7S19096   2.819   3.071   7.011 -0.9769 -0.7171 -0.8980
  169SAPE   C2819097   3.014   3.163   6.941  0.4971  0.1448  0.0790
  169SAPE   H8R19098   3.041   3.218   6.850 -1.2192  2.2528  0.7479
  169SAPE   C2919099   3.095   3.178   7.051  0.5980 -0.5586  0.4608
  169SAPE   H9R19100   3.175   3.253   7.058 -1.4057  1.7546 -0.1656
  169SAPE  C21019101   3.073   3.116   7.186  0.3765  0.3979  0.1619
  169SAPE  H10R19102   2.971   3.139   7.223  0.8253  0.3185  1.5144
  169SAPE  H10S19103   3.131   3.162   7.269 -2.6517  2.5051  1.2726
  169SAPE  C21119104   3.100   2.962   7.182  0.6593 -0.1307 -0.0113
  169SAPE  H11R19105   3.148   2.916   7.095 -1.7692 -0.7456 -1.1127
  169SAPE  C21219106   3.076   2.887   7.292  0.2179 -0.1429  0.8697
  169SAPE  H12R19107   3.099   2.780   7.283  0.4227 -0.1064  0.9518
  169SAPE  C21319108   3.023   2.929   7.425  0.4598  0.1648  0.1983
  169SAPE  H13R19109   2.993   3.035   7.434 -0.1727 -0.1971  3.7820
  169SAPE  H13S19110   3.106   2.935   7.498  0.4592  1.1302  0.1243
  169SAPE  C21419111   2.908   2.842   7.475 -0.4654 -0.0049 -0.2534
  169SAPE  H14R19112   2.842   2.807   7.395 -1.5121 -0.5768  0.8296
  169SAPE  C21519113   2.881   2.803   7.604 -0.1754 -0.3015 -0.4796
  169SAPE  H15R19114   2.790   2.742   7.609  0.2174 -0.9156 -0.7313
  169SAPE  C21619115   2.941   2.827   7.741 -0.9049 -0.3424  0.6908
  169SAPE  H16R19116   3.039   2.878   7.735 -0.5815 -1.0710 -0.4891
  169SAPE  H16S19117   2.961   2.721   7.769  0.1432 -1.2994 -3.1363
  169SAPE  C21719118   2.842   2.906   7.827 -0.6008  1.0494 -0.5816
  169SAPE  H17R19119   2.744   2.857   7.846 -1.1280  2.1535 -0.3818
  169SAPE  H17S19120   2.841   3.010   7.788  0.9293  1.5537  0.6008
  169SAPE  C21819121   2.892   2.935   7.970 -0.0685 -0.4381 -0.1070
  169SAPE  H18R19122   2.986   2.994   7.971 -1.2232  1.4728 -0.1231
  169SAPE  H18S19123   2.907   2.839   8.023 -0.5641  1.1587  3.2030
  169SAPE  C21919124   2.791   3.016   8.058 -0.3542 -0.3173  0.5513
  169SAPE  H19R19125   2.696   2.959   8.057  0.1685 -1.2578  1.6906
  169SAPE  H19S19126   2.777   3.116   8.012  3.0854  0.4598  0.8852
  169SAPE  C22019127   2.830   3.025   8.206  0.1290  0.0190  0.1036
  169SAPE  H20R19128   2.759   3.083   8.269 -0.5300 -1.5099  0.8214
  169SAPE  H20S19129   2.929   3.076   8.217 -0.2884  1.8036 -3.1488
  169SAPE  H20T19130   2.846   2.929   8.260  1.1207  1.8235  3.2724
  169SAPE   C3319131   2.840   3.785   6.689  0.1186 -0.4054  0.0188
  169SAPE   H3X19132   2.838   3.689   6.633  2.5446  0.5152 -1.7915
  169SAPE   H3Y19133   2.769   3.772   6.774  0.9588 -3.1560  0.4004
  169SAPE   C3419134   2.977   3.812   6.752  0.1152  1.5520  0.0778
  169SAPE   H4X19135   2.981   3.903   6.816  1.4011  0.0218  2.3093
  169SAPE   H4Y19136   3.053   3.831   6.674 -2.2624 -0.7586 -3.0987
  169SAPE   C3519137   3.025   3.694   6.833 -0.0491 -0.6611 -0.3734
  169SAPE   H5X19138   3.135   3.698   6.851 -0.3072  2.3088  1.0669
  169SAPE   H5Y19139   3.003   3.603   6.773  0.9835 -0.7774 -0.6035
  169SAPE   C3619140   2.958   3.696   6.965 -0.8917 -0.0783  0.5185
  169SAPE   H6X19141   2.849   3.720   6.965 -1.3866 -2.1550 -0.0789
  169SAPE   H6Y19142   3.016   3.763   7.033  0.5890 -1.2319  0.4369
  169SAPE   C3719143   2.971   3.555   7.027 -0.0855 -0.7238 -0.0006
  169SAPE   H7X19144   3.079   3.534   7.016  0.0482  0.3303 -0.8484
  169SAPE   H7Y19145   2.910   3.474   6.981 -0.6546  0.5952 -1.6503
  169SAPE   C3819146   2.943   3.561   7.177 -0.4445 -0.0678 -0.3683
  169SAPE   H8X19147   2.838   3.596   7.185 -0.1761  0.7478 -0.2457
  169SAPE   H8Y19148   2.999   3.640   7.232 -0.5589 -0.8788  0.9624
  169SAPE   C3919149   2.951   3.434   7.254  0.7408  0.0595 -0.1034
  169SAPE   H9X19150   3.056   3.399   7.242  0.3403 -1.6885  1.0773
  169SAPE   H9Y19151   2.892   3.360   7.196 -0.1677 -0.1710  1.0888
  169SAPE  C31019152   2.904   3.437   7.393  0.5089 -0.1185  0.1755
  169SAPE  H10X19153   2.794   3.446   7.386  0.6446  0.8034 -1.1157
  169SAPE  H10Y19154   2.931   3.526   7.454  1.6070 -0.5635  0.3760
  169SAPE  C31119155   2.941   3.306   7.484 -0.5656 -0.9204 -0.5697
  169SAPE  H11X19156   3.050   3.296   7.470 -0.3391  0.1370  0.2458
  169SAPE  H11Y19157   2.894   3.224   7.426  0.9200 -0.6729 -2.1947
  169SAPE  C31219158   2.895   3.337   7.632  0.3998  0.4419  0.1598
  169SAPE  H12X19159   2.921   3.441   7.662 -0.9799  1.0121 -0.5504
  169SAPE  H12Y19160   2.964   3.276   7.694 -0.3087  0.7251  1.2459
  169SAPE  C31319161   2.748   3.298   7.664 -0.7464 -0.6451 -0.5267
  169SAPE  H13X19162   2.750   3.192   7.631 -1.8609 -0.1947 -2.1474
  169SAPE  H13Y19163   2.681   3.357   7.598  0.9309  2.3092  0.1998
  169SAPE  C31419164   2.699   3.316   7.805  0.2947  0.4886 -0.9697
  169SAPE  H14X19165   2.771   3.254   7.862  0.1294 -0.4370 -1.7288
  169SAPE  H14Y19166   2.596   3.280   7.828  0.7889 -1.3009 -1.3799
  169SAPE  C31519167   2.710   3.459   7.855 -0.4255  0.4973  0.0001
  169SAPE  H15X19168   2.673   3.534   7.782  2.5387  0.7142 -1.3943
  169SAPE  H15Y19169   2.815   3.473   7.888 -1.2747 -0.3023  3.4513
  169SAPE  C31619170   2.634   3.491   7.987  0.6481  0.5150 -0.1252
  169SAPE  H16X19171   2.535   3.446   7.964  0.8064  1.3013 -2.6996
  169SAPE  H16Y19172   2.626   3.601   7.992  0.4659  0.5891 -1.5292
  169SAPE  C31719173   2.701   3.422   8.112  0.3687  0.1091 -0.5871
  169SAPE  H17X19174   2.776   3.490   8.158 -0.1967  0.5100 -0.2432
  169SAPE  H17Y19175   2.764   3.336   8.080  1.0673  0.5576 -0.4442
  169SAPE  C31819176   2.603   3.381   8.221  0.1513  0.0368  0.0218
  169SAPE  H18X19177   2.541   3.306   8.166 -1.8145  2.0518 -0.6426
  169SAPE  H18Y19178   2.542   3.467   8.253  0.7338 -0.3158  2.2233
  169SAPE  H18Z19179   2.662   3.342   8.307  1.4500  3.2478  0.7148
  170SAPE     N19180   3.415   0.741   5.824  0.1504  0.2850 -0.9261
  170SAPE   HN119181   3.440   0.656   5.879 -1.7526  0.6537  0.6306
  170SAPE   HN219182   3.358   0.802   5.886  0.8533  0.5864 -0.5630
  170SAPE   HN319183   3.336   0.722   5.759 -1.2015  0.2204  0.6509
  170SAPE   C1219184   3.538   0.809   5.776 -0.9707  0.8544 -0.1575
  170SAPE  H12A19185   3.506   0.889   5.706 -1.6519  0.8484  0.1404
  170SAPE  H12B19186   3.577   0.725   5.713 -1.8861  1.2381 -1.2811
  170SAPE   C1119187   3.642   0.850   5.875 -0.0983  0.1901  0.5308
  170SAPE  H11A19188   3.625   0.946   5.927 -2.3496 -1.2212  2.5832
  170SAPE  H11B19189   3.740   0.862   5.824 -0.8388 -0.0221 -1.0137
  170SAPE     P19190   3.732   0.792   6.112  0.4294  0.2673 -0.0749
  170SAPE   O1319191   3.877   0.789   6.097  0.0294 -0.5661 -0.4691
  170SAPE   O1419192   3.678   0.924   6.150 -0.4551  0.1326 -0.4514
  170SAPE   O1219193   3.661   0.748   5.973  0.2088 -0.1977  0.3324
  170SAPE   O1119194   3.689   0.679   6.216  0.5597 -0.3156  0.3114
  170SAPE    C119195   3.559   0.671   6.267  0.4015 -0.0415 -0.2110
  170SAPE    HA19196   3.486   0.745   6.227 -1.4391 -0.5852  1.9824
  170SAPE    HB19197   3.514   0.577   6.228 -0.8384  0.1378  0.7210
  170SAPE    C219198   3.547   0.667   6.427  0.1708 -0.6675  0.0890
  170SAPE    HS19199   3.608   0.752   6.466 -1.3949 -0.1959  1.6428
  170SAPE   O2119200   3.584   0.538   6.474  0.2997 -0.6097 -0.0359
  170SAPE   C2119201   3.677   0.541   6.564  0.3193  0.5844  0.1367
  170SAPE   O2219202   3.725   0.636   6.626  0.2424 -0.0693  0.1449
  170SAPE   C2219203   3.734   0.398   6.579  0.2882  0.7668  0.0234
  170SAPE   H2R19204   3.768   0.358   6.481 -3.2094  1.7143 -1.7493
  170SAPE   H2S19205   3.821   0.406   6.647 -0.4905 -0.9081  1.2992
  170SAPE    C319206   3.405   0.701   6.478  0.3582  0.1849 -0.3446
  170SAPE    HX19207   3.326   0.641   6.429  1.4340 -0.1328 -1.7652
  170SAPE    HY19208   3.377   0.807   6.456 -0.0802  0.1023 -0.1805
  170SAPE   O3119209   3.394   0.683   6.620 -0.0114  0.2108  0.1372
  170SAPE   C3119210   3.416   0.779   6.705  1.0554 -0.5182  0.4060
  170SAPE   O3219211   3.456   0.892   6.678 -0.4021  0.5254  0.5465
  170SAPE   C3219212   3.393   0.733   6.849  0.0034 -0.4289  0.4614
  170SAPE   H2X19213   3.403   0.623   6.856 -0.0813 -0.3914  1.2855
  170SAPE   H2Y19214   3.283   0.746   6.855 -0.0089 -0.4488  0.2781
  170SAPE   C2319215   3.638   0.277   6.640  0.0014  0.9129 -0.2539
  170SAPE   H3R19216   3.684   0.183   6.602  1.0879  1.3385 -0.0152
  170SAPE   H3S19217   3.534   0.287   6.601  0.1929 -0.8252 -1.3588
  170SAPE   C2419218   3.638   0.271   6.786 -0.8345 -0.1167  0.0855
  170SAPE   H4R19219   3.632   0.371   6.833 -2.4453  0.7709 -1.8801
  170SAPE   H4S19220   3.733   0.231   6.828  0.2626  2.2624  0.0163
  170SAPE   C2519221   3.517   0.187   6.825  0.1793 -0.1944 -0.1681
  170SAPE   H5R19222   3.508   0.097   6.763 -3.0889  0.5000 -0.9090
  170SAPE   C2619223   3.415   0.223   6.919 -0.4289  0.0076 -0.4681
  170SAPE   H6R19224   3.346   0.148   6.960 -0.6557  1.5125  2.1324
  170SAPE   C2719225   3.435   0.340   7.011 -0.5088 -0.2763  0.2179
  170SAPE   H7R19226   3.448   0.435   6.955 -1.8536 -0.7096 -0.8817
  170SAPE   H7S19227   3.532   0.338   7.064  0.5223 -0.8461 -1.5976
  170SAPE   C2819228   3.321   0.352   7.109  0.4714 -0.0299  0.2291
  170SAPE   H8R19229   3.229   0.302   7.078 -0.1477  1.7186 -0.9363
  170SAPE   C2919230   3.321   0.407   7.232 -0.4243 -0.6571  0.0109
  170SAPE   H9R19231   3.237   0.387   7.300  0.4261  0.6342  1.5238
  170SAPE  C21019232   3.439   0.476   7.309  0.8818  0.6257  0.0486
  170SAPE  H10R19233   3.533   0.464   7.252 -0.2044  0.2188 -1.7183
  170SAPE  H10S19234   3.454   0.430   7.409 -2.2652 -0.1038  0.2944
  170SAPE  C21119235   3.394   0.623   7.321  0.1985  0.5603 -0.1117
  170SAPE  H11R19236   3.414   0.686   7.233 -2.2367  1.4090 -0.1326
  170SAPE  C21219237   3.332   0.685   7.421 -0.3099 -0.2437  0.0860
  170SAPE  H12R19238   3.316   0.793   7.410 -0.8498 -0.4182 -0.8944
  170SAPE  C21319239   3.295   0.626   7.559 -0.3566 -1.0717 -0.0390
  170SAPE  H13R19240   3.269   0.520   7.535 -0.5591 -0.8980 -0.6048
  170SAPE  H13S19241   3.216   0.682   7.613  0.8565  0.3915  0.2801
  170SAPE  C21419242   3.417   0.621   7.645  0.1148 -0.5556  0.2916
  170SAPE  H14R19243   3.514   0.631   7.592  0.4386  0.7403  1.0915
  170SAPE  C21519244   3.423   0.615   7.779  0.2190  0.8997 -0.2728
  170SAPE  H15R19245   3.525   0.617   7.820  0.7390  1.2878 -1.5200
  170SAPE  C21619246   3.305   0.598   7.872  0.3304 -0.6185 -1.5138
  170SAPE  H16R19247   3.266   0.495   7.882  0.7585 -0.7008 -0.4993
  170SAPE  H16S19248   3.224   0.669   7.847 -1.0629 -1.0443  1.3761
  170SAPE  C21719249   3.346   0.625   8.018 -0.7188  0.5896  0.2572
  170SAPE  H17R19250   3.408   0.717   8.012 -0.9001  0.6616 -0.8462
  170SAPE  H17S19251   3.422   0.548   8.044 -0.0915  0.6636 -1.2472
  170SAPE  C21819252   3.235   0.608   8.125 -0.1985 -0.8137  0.4296
  170SAPE  H18R19253   3.190   0.507   8.113  0.3815 -1.3771  2.6401
  170SAPE  H18S19254   3.155   0.684   8.120 -0.5046 -1.0282  1.7746
  170SAPE  C21919255   3.272   0.617   8.271 -0.3197 -0.1591 -0.0536
  170SAPE  H19R19256   3.349   0.538   8.284 -0.0750 -0.1963 -1.5789
  170SAPE  H19S19257   3.187   0.601   8.341  0.1663  1.0060  0.8385
  170SAPE  C22019258   3.328   0.749   8.304 -0.1420 -0.6129  0.0774
  170SAPE  H20R19259   3.418   0.762   8.240 -2.0046 -0.2630 -2.6751
  170SAPE  H20S19260   3.350   0.759   8.412 -0.2880 -3.6589  0.4786
  170SAPE  H20T19261   3.257   0.829   8.274  0.6869 -0.5866 -2.0527
  170SAPE   C3319262   3.467   0.811   6.949  0.6096  0.1048 -0.4117
  170SAPE   H3X19263   3.419   0.803   7.049  1.1628  1.6411  0.0120
  170SAPE   H3Y19264   3.476   0.919   6.924  0.0582 -0.0535 -1.3601
  170SAPE   C3419265   3.604   0.755   6.970  0.2863 -0.2118 -0.3531
  170SAPE   H4X19266   3.666   0.783   6.882  0.6630  1.5647  0.4172
  170SAPE   H4Y19267   3.606   0.644   6.975  1.7438 -0.1836  0.3135
  170SAPE   C3519268   3.660   0.807   7.104 -0.0279  0.0483 -0.3001
  170SAPE   H5X19269   3.614   0.751   7.188 -1.6301  0.4496 -0.8715
  170SAPE   H5Y19270   3.629   0.914   7.113  2.1731  0.6269  0.9541
  170SAPE   C3619271   3.810   0.795   7.124  0.3825  0.6795 -0.1251
  170SAPE   H6X19272   3.856   0.866   7.051  0.9245 -0.5418 -1.0075
  170SAPE   H6Y19273   3.848   0.692   7.107 -1.7160  0.1830 -2.3697
  170SAPE   C3719274   3.854   0.839   7.273 -0.0457 -0.3735  0.2285
  170SAPE   H7X19275   3.793   0.931   7.290  1.0100  0.4935 -0.4913
  170SAPE   H7Y19276   3.964   0.850   7.278 -0.1073  0.4729 -0.1278
  170SAPE   C3819277   3.821   0.735   7.375 -0.2832 -0.1691  0.1378
  170SAPE   H8X19278   3.861   0.635   7.349  0.2942  0.0790  0.0596
  170SAPE   H8Y19279   3.711   0.729   7.389 -0.0600 -0.6179  1.9880
  170SAPE   C3919280   3.886   0.762   7.511 -0.4275  0.2876 -0.2397
  170SAPE   H9X19281   3.885   0.870   7.535  2.7735  0.6021 -1.0723
  170SAPE   H9Y19282   3.992   0.731   7.514 -0.6385 -0.5617 -0.9694
  170SAPE  C31019283   3.820   0.672   7.624  0.6854 -0.0707  0.1902
  170SAPE  H10X19284   3.805   0.570   7.582 -0.2933  0.1889 -0.1177
  170SAPE  H10Y19285   3.716   0.708   7.637 -0.4502 -2.8283 -0.5307
  170SAPE  C31119286   3.906   0.673   7.754  0.3769  0.0813  0.5212
  170SAPE  H11X19287   3.938   0.775   7.783 -0.5858  0.3898  0.5206
  170SAPE  H11Y19288   3.996   0.608   7.742 -0.3985 -0.8533 -0.3825
  170SAPE  C31219289   3.844   0.608   7.882  0.3102 -0.2609 -0.2637
  170SAPE  H12X19290   3.769   0.530   7.858 -0.5709  0.2723  0.6472
  170SAPE  H12Y19291   3.787   0.694   7.924  0.8166 -0.5577  1.0962
  170SAPE  C31319292   3.939   0.569   7.996  0.1635  0.0357  0.8242
  170SAPE  H13X19293   4.010   0.654   8.006  1.6180 -1.2149  1.5286
  170SAPE  H13Y19294   4.005   0.483   7.970 -2.3864 -1.7780 -0.0899
  170SAPE  C31419295   3.861   0.550   8.122  0.2782 -0.2870 -0.4971
  170SAPE  H14X19296   3.819   0.448   8.128  3.0328 -1.4712  0.3930
  170SAPE  H14Y19297   3.784   0.629   8.133  1.9647  1.3789 -0.0560
  170SAPE  C31519298   3.960   0.567   8.237 -0.2134 -0.6094 -0.2471
  170SAPE  H15X19299   4.046   0.511   8.193 -0.2718 -0.3145 -0.7374
  170SAPE  H15Y19300   3.915   0.524   8.329 -1.0880  1.5496  0.3828
  170SAPE  C31619301   3.996   0.712   8.271 -0.3275 -0.1573 -0.5923
  170SAPE  H16X19302   3.909   0.776   8.295  0.4748  0.6409  0.2585
  170SAPE  H16Y19303   4.030   0.762   8.179 -0.1811  0.5786 -0.1476
  170SAPE  C31719304   4.102   0.735   8.374 -0.2075 -0.4391  0.0788
  170SAPE  H17X19305   4.190   0.694   8.321 -0.5916 -1.4996  0.2280
  170SAPE  H17Y19306   4.096   0.681   8.471  0.5278  0.7678  0.8131
  170SAPE  C31819307   4.130   0.889   8.396 -0.3802 -0.3893  0.6301
  170SAPE  H18X19308   4.149   0.945   8.301  0.7508  1.0766  1.6761
  170SAPE  H18Y19309   4.216   0.901   8.465 -1.1434  0.8586  1.3923
  170SAPE  H18Z19310   4.044   0.938   8.445  0.2980  1.5872 -0.0450
  171SAPE     N19311   5.864   0.725   6.214 -0.2695  0.5923 -0.3481
  171SAPE   HN119312   5.853   0.659   6.135 -1.3954  0.7014 -0.3025
  171SAPE   HN219313   5.883   0.816   6.167 -3.4397  2.1142  1.0242
  171SAPE   HN319314   5.946   0.696   6.271 -2.0064 -2.8271  0.6654
  171SAPE   C1219315   5.736   0.713   6.296 -0.2033 -0.6393  0.0553
  171SAPE  H12A19316   5.646   0.750   6.243  0.7441  1.9676  0.1307
  171SAPE  H12B19317   5.751   0.773   6.388  1.8212 -1.7621  0.5154
  171SAPE   C1119318   5.695   0.569   6.344 -0.3682  0.2846 -0.0552
  171SAPE  H11A19319   5.639   0.563   6.439  0.9042  0.6044  0.7498
  171SAPE  H11B19320   5.792   0.517   6.355 -0.6484 -0.1244  0.4623
  171SAPE     P19321   5.466   0.475   6.253  0.0642 -0.3960 -0.2214
  171SAPE   O1319322   5.398   0.598   6.306 -0.3698  0.3771  0.2828
  171SAPE   O1419323   5.409   0.425   6.127 -0.8255  0.2082 -0.3267
  171SAPE   O1219324   5.629   0.493   6.246 -0.2857 -0.6787  0.6980
  171SAPE   O1119325   5.445   0.362   6.361 -0.1468 -0.3184  0.8417
  171SAPE    C119326   5.536   0.252   6.379  0.1763 -0.7841  0.3114
  171SAPE    HA19327   5.494   0.183   6.303 -0.6015  0.0787 -0.0613
  171SAPE    HB19328   5.642   0.277   6.361 -0.2290 -0.8626 -2.8052
  171SAPE    C219329   5.533   0.188   6.520 -0.5109 -0.2584 -0.0674
  171SAPE    HS19330   5.634   0.146   6.537  0.0608  0.8965 -0.4962
  171SAPE   O2119331   5.434   0.079   6.530  0.2982  0.3587  0.0614
  171SAPE   C2119332   5.456  -0.027   6.609  0.2319 -0.5586  0.3837
  171SAPE   O2219333   5.552  -0.033   6.682  0.6211 -0.2418 -0.5323
  171SAPE   C2219334   5.351  -0.131   6.576 -0.1934  0.2996 -0.2631
  171SAPE   H2R19335   5.264  -0.112   6.642 -0.0322 -0.1050  0.0721
  171SAPE   H2S19336   5.306  -0.115   6.476 -0.4027 -0.7635 -0.3465
  171SAPE    C319337   5.507   0.303   6.621 -0.5087  0.1345  0.0501
  171SAPE    HX19338   5.424   0.371   6.591  0.8348  1.1015 -1.6406
  171SAPE    HY19339   5.599   0.363   6.608 -0.4568 -0.1770 -1.2013
  171SAPE   O3119340   5.509   0.265   6.764 -0.1493 -0.2345 -0.2449
  171SAPE   C3119341   5.391   0.220   6.801  0.4783 -0.4034 -0.1647
  171SAPE   O3219342   5.292   0.229   6.730 -0.0070 -0.5808 -0.5013
  171SAPE   C3219343   5.399   0.149   6.935 -0.7863 -0.7105  0.0779
  171SAPE   H2X19344   5.435   0.046   6.911 -1.1307 -0.6389 -0.7653
  171SAPE   H2Y19345   5.298   0.137   6.979 -1.2612  0.6402 -0.5951
  171SAPE   C2319346   5.406  -0.275   6.605 -0.3795 -0.2637 -0.0266
  171SAPE   H3R19347   5.515  -0.281   6.583 -0.5160 -2.3050 -0.4097
  171SAPE   H3S19348   5.371  -0.354   6.536  0.7983 -1.9892  1.2448
  171SAPE   C2419349   5.385  -0.337   6.747  0.1512  0.1281  0.1605
  171SAPE   H4R19350   5.455  -0.285   6.816  1.4026 -1.0608 -0.1586
  171SAPE   H4S19351   5.434  -0.437   6.741 -0.0237  0.0256  0.4595
  171SAPE   C2519352   5.236  -0.349   6.785 -0.6030 -0.2560  0.2160
  171SAPE   H5R19353   5.169  -0.406   6.719 -2.3280  2.2140 -0.3291
  171SAPE   C2619354   5.182  -0.295   6.895  0.3114 -0.7647 -0.4593
  171SAPE   H6R19355   5.075  -0.299   6.919  0.9555  2.0307  4.1735
  171SAPE   C2719356   5.241  -0.214   7.011 -0.4115  0.3801 -0.3677
  171SAPE   H7R19357   5.161  -0.183   7.082 -1.4643 -0.1920 -1.2770
  171SAPE   H7S19358   5.281  -0.128   6.954  1.3360  1.0777  1.7746
  171SAPE   C2819359   5.353  -0.281   7.087 -0.4226  0.0953 -0.5310
  171SAPE   H8R19360   5.427  -0.336   7.026  1.6112  1.0672  0.9468
  171SAPE   C2919361   5.372  -0.267   7.223  0.3442 -0.6281 -0.4317
  171SAPE   H9R19362   5.454  -0.329   7.263  0.2264  0.5502  1.7681
  171SAPE  C21019363   5.290  -0.186   7.319  0.2710 -0.7970 -0.1272
  171SAPE  H10R19364   5.188  -0.169   7.279  0.6068 -0.2935 -0.7820
  171SAPE  H10S19365   5.323  -0.080   7.318 -1.3007 -0.2638  0.8526
  171SAPE  C21119366   5.284  -0.252   7.460 -0.5511 -0.4112  0.0312
  171SAPE  H11R19367   5.268  -0.361   7.453 -0.1962 -0.3572 -2.0287
  171SAPE  C21219368   5.303  -0.200   7.583  0.2165  0.5070  0.5558
  171SAPE  H12R19369   5.307  -0.271   7.668 -2.6461  1.1232  1.3193
  171SAPE  C21319370   5.321  -0.052   7.596  0.1811 -0.8274 -0.7754
  171SAPE  H13R19371   5.272   0.017   7.524  2.7911  1.0543 -0.9202
  171SAPE  H13S19372   5.426  -0.029   7.567  0.2439  1.6059  1.0576
  171SAPE  C21419373   5.304   0.010   7.732  0.5017  0.2582  0.3377
  171SAPE  H14R19374   5.217   0.077   7.734 -0.0784 -0.4508 -0.3157
  171SAPE  C21519375   5.381   0.006   7.841 -0.4124  0.3258 -0.4662
  171SAPE  H15R19376   5.342   0.077   7.917 -1.5139 -0.7857  0.0482
  171SAPE  C21619377   5.511  -0.061   7.851  0.0024 -0.1408 -0.3876
  171SAPE  H16R19378   5.584   0.016   7.884 -0.5644  0.6172 -0.8570
  171SAPE  H16S19379   5.546  -0.096   7.751  1.5588 -0.3162  0.1903
  171SAPE  C21719380   5.515  -0.179   7.950 -0.2786  0.3314 -0.1748
  171SAPE  H17R19381   5.622  -0.207   7.964 -1.2177 -3.8288 -0.0802
  171SAPE  H17S19382   5.462  -0.270   7.914  1.2763 -0.2217 -1.2296
  171SAPE  C21819383   5.474  -0.144   8.093  0.1284 -0.2135  0.3427
  171SAPE  H18R19384   5.434  -0.237   8.140  0.4514  0.3792  1.8477
  171SAPE  H18S19385   5.383  -0.081   8.103 -0.9934 -1.3655 -1.7421
  171SAPE  C21919386   5.586  -0.082   8.169  0.5509  0.6660 -0.3324
  171SAPE  H19R19387   5.639  -0.009   8.104 -0.4545 -0.1780 -2.1592
  171SAPE  H19S19388   5.663  -0.161   8.183  1.1544  1.0878 -1.1819
  171SAPE  C22019389   5.544  -0.019   8.310 -0.3078 -0.6761  0.2504
  171SAPE  H20R19390   5.638   0.009   8.362 -1.4132  2.8582  0.6137
  171SAPE  H20S19391   5.489  -0.105   8.356 -2.0274 -0.6312 -1.6082
  171SAPE  H20T19392   5.482   0.073   8.306  0.6051 -0.0859 -0.9139
  171SAPE   C3319393   5.503   0.207   7.032 -0.3913 -0.8143  1.0616
  171SAPE   H3X19394   5.495   0.318   7.030 -0.4888 -0.7937  2.0484
  171SAPE   H3Y19395   5.599   0.173   6.988 -2.2777 -2.6173 -1.9947
  171SAPE   C3419396   5.478   0.149   7.166  0.0648 -0.4767 -0.4482
  171SAPE   H4X19397   5.511   0.043   7.163  0.5761 -0.3159 -0.5690
  171SAPE   H4Y19398   5.369   0.146   7.188  0.1304 -0.4324 -0.1057
  171SAPE   C3519399   5.550   0.231   7.268 -0.6248  0.4558 -0.0825
  171SAPE   H5X19400   5.498   0.328   7.282 -1.3468 -0.0076  0.5089
  171SAPE   H5Y19401   5.656   0.242   7.236  0.0533  0.4980  2.0564
  171SAPE   C3619402   5.556   0.171   7.412 -0.3202  0.0488 -0.5226
  171SAPE   H6X19403   5.559   0.064   7.384 -0.6848 -0.6107  1.7937
  171SAPE   H6Y19404   5.462   0.195   7.465  0.7168  1.4919  0.7423
  171SAPE   C3719405   5.674   0.214   7.500  0.3060 -0.0020  0.0395
  171SAPE   H7X19406   5.767   0.201   7.440  0.7910 -1.0605  0.9826
  171SAPE   H7Y19407   5.676   0.153   7.592  0.8691  0.7207  0.5219
  171SAPE   C3819408   5.647   0.351   7.563 -0.2077  0.4371 -0.2916
  171SAPE   H8X19409   5.549   0.352   7.617 -0.1377 -1.1284 -0.0669
  171SAPE   H8Y19410   5.636   0.430   7.486  0.0477 -1.3419 -2.2547
  171SAPE   C3919411   5.754   0.397   7.659 -0.7337 -0.6633  0.1604
  171SAPE   H9X19412   5.731   0.504   7.681  0.2551 -0.2918 -0.5084
  171SAPE   H9Y19413   5.853   0.379   7.611  0.1816 -0.6040  1.9135
  171SAPE  C31019414   5.750   0.330   7.799  0.1981 -1.1851  0.3133
  171SAPE  H10X19415   5.825   0.247   7.806  0.3266 -1.1201 -0.2484
  171SAPE  H10Y19416   5.645   0.293   7.801 -1.0059  1.9541 -0.0578
  171SAPE  C31119417   5.783   0.425   7.917  0.2189 -0.0082  0.5458
  171SAPE  H11X19418   5.754   0.376   8.012 -1.6831  0.7387  0.3897
  171SAPE  H11Y19419   5.721   0.517   7.921  0.3836  0.0813  1.0586
  171SAPE  C31219420   5.928   0.473   7.912 -0.2959 -0.8973 -0.8248
  171SAPE  H12X19421   5.933   0.516   7.810 -2.8292 -1.7802 -1.4122
  171SAPE  H12Y19422   5.985   0.378   7.912 -3.3963 -2.9341  1.1253
  171SAPE  C31319423   5.956   0.577   8.027  0.0098  0.4424  0.1116
  171SAPE  H13X19424   5.889   0.664   8.010 -0.2982  0.0496 -0.7502
  171SAPE  H13Y19425   6.060   0.618   8.027  0.8239 -1.5114  0.6244
  171SAPE  C31419426   5.920   0.522   8.164 -0.0472  0.3104  0.2756
  171SAPE  H14X19427   5.998   0.550   8.238  0.7407 -1.7562  0.2898
  171SAPE  H14Y19428   5.927   0.411   8.160  1.1097  0.3033  1.4587
  171SAPE  C31519429   5.780   0.572   8.211 -0.2525 -0.2549 -0.3722
  171SAPE  H15X19430   5.696   0.554   8.140  0.3956 -1.0931 -0.9578
  171SAPE  H15Y19431   5.791   0.680   8.235  1.3677 -0.6861  0.9635
  171SAPE  C31619432   5.732   0.502   8.346  0.1083 -0.1090 -0.1055
  171SAPE  H16X19433   5.627   0.539   8.343 -0.4176 -1.5200  0.3030
  171SAPE  H16Y19434   5.781   0.558   8.429  1.5032 -0.5347 -0.6101
  171SAPE  C31719435   5.729   0.350   8.348  0.2667  0.1468 -0.3538
  171SAPE  H17X19436   5.831   0.315   8.320  0.4634  1.4395 -1.3306
  171SAPE  H17Y19437   5.656   0.306   8.277 -0.5357  1.2456 -0.2173
  171SAPE  C31819438   5.701   0.295   8.499  0.1772  0.2063 -0.1923
  171SAPE  H18X19439   5.603   0.329   8.540 -0.5129 -2.9717  1.0296
  171SAPE  H18Y19440   5.784   0.328   8.566  0.5939 -2.2197  0.5616
  171SAPE  H18Z19441   5.694   0.185   8.490 -0.8508  0.1644  0.9083
  172SAPE     N19442   4.115   6.654   5.955 -0.1874 -0.0096  0.3247
  172SAPE   HN119443   4.052   6.572   5.945 -0.9285  0.4069  1.3530
  172SAPE   HN219444   4.086   6.695   6.046  0.8516  0.2748  0.5451
  172SAPE   HN319445   4.080   6.723   5.886 -0.8151 -1.1118 -0.5014
  172SAPE   C1219446   4.259   6.608   5.939 -0.5366  0.3553  0.2570
  172SAPE  H12A19447   4.326   6.697   5.936  2.0441 -1.4419  0.5359
  172SAPE  H12B19448   4.266   6.572   5.834 -0.6936  0.2150  0.2937
  172SAPE   C1119449   4.289   6.505   6.043  0.1509  0.3667  0.4202
  172SAPE  H11A19450   4.238   6.533   6.137 -2.3992 -0.1267 -0.7326
  172SAPE  H11B19451   4.399   6.496   6.059  0.7704 -2.3618 -3.6295
  172SAPE     P19452   4.109   6.299   6.024  0.1901 -0.5003 -0.0456
  172SAPE   O1319453   4.005   6.397   5.985 -0.2914 -0.7330  0.3801
  172SAPE   O1419454   4.116   6.166   5.956  0.2893  0.1004 -0.5400
  172SAPE   O1219455   4.245   6.378   5.999  0.0814 -0.1439  0.1517
  172SAPE   O1119456   4.100   6.283   6.182  0.2902 -0.1513 -0.1744
  172SAPE    C119457   4.200   6.203   6.243 -0.4345 -0.6615 -0.2248
  172SAPE    HA19458   4.188   6.101   6.203 -0.0516  0.4419 -3.4266
  172SAPE    HB19459   4.300   6.244   6.217 -0.8610 -0.9814 -2.5802
  172SAPE    C219460   4.196   6.206   6.400  0.3902  0.3966 -0.2137
  172SAPE    HS19461   4.297   6.174   6.433  1.0377  0.8496 -1.6839
  172SAPE   O2119462   4.097   6.119   6.443  0.5236 -0.1326 -0.5353
  172SAPE   C2119463   4.136   5.997   6.451 -0.2873 -0.1024 -0.0055
  172SAPE   O2219464   4.241   5.957   6.405  0.4775  0.5190 -0.8672
  172SAPE   C2219465   4.034   5.915   6.532 -0.1332 -0.4584  0.3114
  172SAPE   H2R19466   3.934   5.951   6.500  0.2708 -2.2460 -3.5680
  172SAPE   H2S19467   4.039   5.811   6.494 -1.4743 -0.0188 -1.1631
  172SAPE    C319468   4.167   6.350   6.460 -0.3164  0.8008  0.1208
  172SAPE    HX19469   4.084   6.403   6.409  0.5388  0.1686 -2.0366
  172SAPE    HY19470   4.263   6.405   6.445  0.1653  0.7683  2.6025
  172SAPE   O3119471   4.149   6.339   6.601  0.0908 -0.7307 -0.2730
  172SAPE   C3119472   4.032   6.326   6.653  0.1605 -0.3423 -0.8176
  172SAPE   O3219473   3.930   6.309   6.594 -0.1797 -0.1837  0.3578
  172SAPE   C3219474   4.042   6.318   6.810  0.2802 -0.0146  0.3739
  172SAPE   H2X19475   4.009   6.214   6.831  0.3470 -0.3813 -1.2053
  172SAPE   H2Y19476   3.967   6.388   6.851 -1.5396 -1.4554 -0.3757
  172SAPE   C2319477   4.070   5.930   6.679 -0.3178 -0.1742  0.7850
  172SAPE   H3R19478   3.980   5.897   6.735 -0.2987  0.2372  1.0607
  172SAPE   H3S19479   4.086   6.037   6.703  0.3984  0.1808 -1.0588
  172SAPE   C2419480   4.196   5.850   6.740  1.0101  0.3208 -0.2223
  172SAPE   H4R19481   4.286   5.871   6.679  0.1650  1.9005 -0.9802
  172SAPE   H4S19482   4.169   5.742   6.738 -0.2569  0.6195 -0.1733
  172SAPE   C2519483   4.219   5.909   6.877 -0.5175 -0.0680  0.2679
  172SAPE   H5R19484   4.282   5.999   6.885  0.5602 -0.8533  0.8342
  172SAPE   C2619485   4.174   5.861   6.995 -0.6345  0.7950  0.4339
  172SAPE   H6R19486   4.209   5.902   7.091 -1.2700  2.0579  0.1422
  172SAPE   C2719487   4.094   5.731   7.011  0.5099  0.8149 -0.7270
  172SAPE   H7R19488   4.145   5.663   7.082  0.6079  0.1925 -1.3909
  172SAPE   H7S19489   4.103   5.673   6.917  0.5773 -0.7938  0.2500
  172SAPE   C2819490   3.943   5.741   7.049  0.9435  0.1952  0.2363
  172SAPE   H8R19491   3.874   5.772   6.969  1.3132  1.2807  0.3141
  172SAPE   C2919492   3.890   5.705   7.166 -0.4329 -0.2866 -0.1788
  172SAPE   H9R19493   3.783   5.722   7.183 -0.0736  0.2637  1.8260
  172SAPE  C21019494   3.971   5.654   7.283  0.5337 -0.4381 -0.0759
  172SAPE  H10R19495   4.080   5.677   7.282  0.6074 -0.3188  2.6695
  172SAPE  H10S19496   3.973   5.543   7.276 -0.1774 -0.6732  2.4150
  172SAPE  C21119497   3.931   5.691   7.421  0.1486  0.1573 -0.3132
  172SAPE  H11R19498   3.984   5.772   7.472 -1.9020  2.0677 -1.0583
  172SAPE  C21219499   3.843   5.625   7.495  1.1203 -0.2143  0.4418
  172SAPE  H12R19500   3.827   5.640   7.603 -0.4831 -0.5672  0.2848
  172SAPE  C21319501   3.761   5.506   7.443  0.2224 -0.3135 -0.4889
  172SAPE  H13R19502   3.824   5.419   7.415 -2.2191 -2.1588 -0.6567
  172SAPE  H13S19503   3.701   5.529   7.352 -0.9373 -0.2638  0.2611
  172SAPE  C21419504   3.659   5.453   7.542 -0.1875  0.6267  0.6994
  172SAPE  H14R19505   3.692   5.361   7.593 -0.3256  0.3131  0.2297
  172SAPE  C21519506   3.531   5.493   7.552  0.4913 -0.0583 -0.7614
  172SAPE  H15R19507   3.455   5.450   7.620 -0.0842  1.2496 -0.5404
  172SAPE  C21619508   3.471   5.604   7.466  0.5439  0.1765 -0.5854
  172SAPE  H16R19509   3.403   5.569   7.385 -2.5966  1.3654  1.3537
  172SAPE  H16S19510   3.553   5.659   7.415  0.7144 -0.0477 -0.5595
  172SAPE  C21719511   3.397   5.713   7.549  0.6811 -0.3132 -0.8359
  172SAPE  H17R19512   3.488   5.760   7.592  1.0800 -0.3409 -1.6316
  172SAPE  H17S19513   3.338   5.672   7.633  2.7916 -0.2144  0.7731
  172SAPE  C21819514   3.325   5.801   7.450  0.6318 -0.1826  0.0331
  172SAPE  H18R19515   3.227   5.759   7.419  1.5584 -4.6884  2.3125
  172SAPE  H18S19516   3.392   5.829   7.365  1.3501 -0.5887  0.4470
  172SAPE  C21919517   3.301   5.938   7.519 -0.0717 -0.1578 -0.0011
  172SAPE  H19R19518   3.385   5.976   7.581 -1.8365 -0.3632  2.6731
  172SAPE  H19S19519   3.218   5.917   7.590  0.7845 -0.8899  0.7995
  172SAPE  C22019520   3.254   6.059   7.431  0.6111  0.3627 -0.7026
  172SAPE  H20R19521   3.174   6.011   7.370  0.1066  1.8834 -1.2613
  172SAPE  H20S19522   3.336   6.095   7.365  1.4591  0.6900  0.4975
  172SAPE  H20T19523   3.220   6.130   7.509  1.4461 -0.6179  0.6095
  172SAPE   C3319524   4.188   6.339   6.861  0.1858  0.5585  0.2012
  172SAPE   H3X19525   4.215   6.444   6.834 -0.4094  0.3068 -1.5226
  172SAPE   H3Y19526   4.254   6.275   6.800 -2.5427 -0.3526 -2.0134
  172SAPE   C3419527   4.211   6.316   7.015 -0.1983 -0.0711 -0.1172
  172SAPE   H4X19528   4.316   6.317   7.051 -0.1376  1.0297 -0.2964
  172SAPE   H4Y19529   4.171   6.213   7.031 -0.1723 -0.2283 -1.0028
  172SAPE   C3519530   4.135   6.438   7.088 -0.6418 -0.2770  0.2744
  172SAPE   H5X19531   4.033   6.426   7.045  0.4617 -1.6992 -2.1955
  172SAPE   H5Y19532   4.182   6.534   7.059  1.4078 -0.5895  2.3185
  172SAPE   C3619533   4.147   6.437   7.245 -0.0863  0.2922 -0.2030
  172SAPE   H6X19534   4.240   6.491   7.271  0.6857 -1.7678  1.5740
  172SAPE   H6Y19535   4.160   6.333   7.282 -1.2756  0.6350  1.2915
  172SAPE   C3719536   4.030   6.514   7.310  0.3215  0.3084  0.0452
  172SAPE   H7X19537   3.938   6.452   7.303  0.0311  0.8240 -0.9020
  172SAPE   H7Y19538   4.016   6.609   7.254  0.7726 -0.4165 -1.3460
  172SAPE   C3819539   4.056   6.558   7.458  0.6775 -0.7390 -0.9722
  172SAPE   H8X19540   4.154   6.609   7.471 -1.4556  3.5351  0.0805
  172SAPE   H8Y19541   4.059   6.467   7.521  0.5897 -0.6412 -0.8262
  172SAPE   C3919542   3.949   6.646   7.539 -0.6145 -0.0721  0.2102
  172SAPE   H9X19543   3.848   6.603   7.519 -0.2884 -0.3054 -1.0502
  172SAPE   H9Y19544   3.939   6.748   7.496 -1.7352 -0.3465 -0.2252
  172SAPE  C31019545   3.991   6.653   7.685 -0.3213 -0.4694 -0.5189
  172SAPE  H10X19546   4.092   6.699   7.691  0.1779 -1.2364 -2.3615
  172SAPE  H10Y19547   3.999   6.549   7.721  2.7816 -0.7476 -1.7335
  172SAPE  C31119548   3.893   6.740   7.766 -0.3272 -0.7132  0.3391
  172SAPE  H11X19549   3.786   6.710   7.761 -0.4612 -0.3654  1.0442
  172SAPE  H11Y19550   3.901   6.840   7.718 -0.8564 -1.4134 -1.2885
  172SAPE  C31219551   3.923   6.742   7.914  0.0876 -0.4828 -0.3644
  172SAPE  H12X19552   3.875   6.835   7.950 -0.9201 -1.6260  1.3782
  172SAPE  H12Y19553   4.034   6.738   7.921  0.0833  1.3671  2.0963
  172SAPE  C31319554   3.867   6.619   7.988 -0.7100 -0.4091  0.2521
  172SAPE  H13X19555   3.878   6.529   7.923 -1.5784 -0.9447  0.8244
  172SAPE  H13Y19556   3.758   6.637   7.991 -0.3132  2.3827  0.9614
  172SAPE  C31419557   3.913   6.601   8.133  0.6875 -0.2450 -0.2528
  172SAPE  H14X19558   3.902   6.699   8.184  0.8995 -0.2259 -0.2437
  172SAPE  H14Y19559   4.022   6.584   8.124  0.3753 -1.4763 -2.2004
  172SAPE  C31519560   3.841   6.480   8.203  0.2726  0.4645  0.5853
  172SAPE  H15X19561   3.830   6.396   8.131 -0.0758  0.7967  0.2410
  172SAPE  H15Y19562   3.738   6.512   8.230  0.7024  1.1979  1.4011
  172SAPE  C31619563   3.902   6.433   8.334 -0.4610  0.4736 -0.0024
  172SAPE  H16X19564   3.908   6.517   8.407 -2.4623  3.3207 -2.7975
  172SAPE  H16Y19565   4.007   6.400   8.323 -0.2084  1.2116  0.1325
  172SAPE  C31719566   3.815   6.318   8.404 -0.7563  0.2196  0.3551
  172SAPE  H17X19567   3.796   6.243   8.324 -0.3388  2.0632 -1.5589
  172SAPE  H17Y19568   3.716   6.365   8.422 -1.8652 -2.6760  2.7653
  172SAPE  C31819569   3.870   6.265   8.536  0.1588  0.2942 -0.2876
  172SAPE  H18X19570   3.821   6.171   8.569 -2.6083  1.7033 -0.1298
  172SAPE  H18Y19571   3.857   6.335   8.622 -1.2767 -0.5400  0.2005
  172SAPE  H18Z19572   3.979   6.251   8.518 -0.2313 -1.6858 -1.3904
  173SOPE     N19573   2.417   3.500  10.958 -0.3086 -0.2147 -0.7010
  173SOPE   HN119574   2.442   3.485  10.858 -0.3920  2.6683 -1.2219
  173SOPE   HN219575   2.315   3.513  10.968 -0.0323  0.8231  1.2808
  173SOPE   HN319576   2.456   3.590  10.992  0.0880 -0.7402  0.2771
  173SOPE   C1219577   2.461   3.376  11.045 -0.8536  0.4478 -0.0018
  173SOPE  H12A19578   2.489   3.411  11.147  0.6194  1.8837 -0.8522
  173SOPE  H12B19579   2.558   3.335  11.013 -0.8828  1.6916 -1.8267
  173SOPE   C1119580   2.362   3.265  11.057 -0.1058  0.0844  0.4132
  173SOPE  H11A19581   2.269   3.291  11.113 -2.3396 -4.1898 -0.8527
  173SOPE  H11B19582   2.407   3.179  11.111  0.9213 -0.2590 -0.9389
  173SOPE     P19583   2.322   3.087  10.877 -0.0442  0.3745  0.1373
  173SOPE   O1319584   2.252   3.000  10.971 -0.1795  0.9183  0.2044
  173SOPE   O1419585   2.454   3.047  10.835  0.5309  0.5257 -0.0858
  173SOPE   O1219586   2.315   3.236  10.932  0.5433 -0.0967  1.1014
  173SOPE   O1119587   2.228   3.096  10.752 -0.0875  0.3446  0.3028
  173SOPE    C119588   2.232   3.212  10.674  0.1100 -0.3756 -0.2858
  173SOPE    HA19589   2.320   3.276  10.699  0.2156 -1.0020  1.0069
  173SOPE    HB19590   2.132   3.260  10.681 -0.1880 -1.0630  0.2983
  173SOPE    C219591   2.241   3.171  10.527 -0.0526 -0.0088  1.2059
  173SOPE    HS19592   2.166   3.089  10.517  0.0936  0.1263 -3.0624
  173SOPE   O2119593   2.370   3.121  10.494  0.1354 -0.2423  0.2195
  173SOPE   C2119594   2.383   3.021  10.417  0.4398  0.9808  0.2007
  173SOPE   O2219595   2.292   2.953  10.373 -0.0128  0.0072  0.2032
  173SOPE   C2219596   2.526   2.997  10.386 -0.2055  0.8001 -0.7193
  173SOPE   H2R19597   2.551   2.890  10.400  0.2841  0.8334 -1.2863
  173SOPE   H2S19598   2.592   3.055  10.453  1.2741 -0.1432 -1.3027
  173SOPE    C319599   2.191   3.274  10.419  0.2733  0.5771 -0.1621
  173SOPE    HX19600   2.253   3.365  10.436 -0.3119  0.5436  2.4195
  173SOPE    HY19601   2.085   3.298  10.441  0.0971 -0.0609 -0.2792
  173SOPE   O3119602   2.202   3.225  10.284  0.5234 -0.1935  0.2342
  173SOPE   C3119603   2.098   3.161  10.241 -0.1029  0.1665  0.0814
  173SOPE   O3219604   2.004   3.120  10.303  0.0654 -0.4136  0.2089
  173SOPE   C3219605   2.125   3.142  10.090 -0.8216 -0.4841 -0.0023
  173SOPE   H2X19606   2.216   3.081  10.076  0.5600  1.7188 -1.1317
  173SOPE   H2Y19607   2.164   3.237  10.047 -0.4613 -0.1901  0.9493
  173SOPE   C2319608   2.573   3.044  10.244 -0.1423 -0.4240 -0.3473
  173SOPE   H3R19609   2.681   3.059  10.227 -0.0610 -0.0359  0.4954
  173SOPE   H3S19610   2.522   3.142  10.230 -0.9938 -0.7037  0.6956
  173SOPE   C2419611   2.514   2.950  10.141 -0.8006  0.3047 -0.0249
  173SOPE   H4R19612   2.554   2.847  10.144 -0.7000  0.3695  0.8662
  173SOPE   H4S19613   2.406   2.948  10.165 -0.9082  1.9439 -0.2657
  173SOPE   C2519614   2.541   2.990   9.995 -0.0031  0.5627 -0.0485
  173SOPE   H5R19615   2.524   3.099   9.977  2.1318  0.9009 -0.2842
  173SOPE   H5S19616   2.647   2.966   9.970 -0.9858 -3.4429 -0.9934
  173SOPE   C2619617   2.465   2.895   9.895  0.2597  0.3059 -0.7561
  173SOPE   H6R19618   2.455   2.790   9.931 -1.1307  1.2005  1.6822
  173SOPE   H6S19619   2.359   2.924   9.908 -0.7716 -3.6317  1.3557
  173SOPE   C2719620   2.518   2.918   9.751  0.0663 -0.2271 -0.4563
  173SOPE   H7R19621   2.544   3.025   9.740  2.5444 -1.0158 -3.6698
  173SOPE   H7S19622   2.603   2.848   9.746  0.9681  0.7891  0.2172
  173SOPE   C2819623   2.416   2.876   9.637  0.1008 -0.2212 -0.4612
  173SOPE   H8R19624   2.316   2.917   9.662 -0.5625 -1.0406 -1.6480
  173SOPE   H8S19625   2.443   2.932   9.545 -1.7362  2.0161  0.2646
  173SOPE   C2919626   2.414   2.723   9.622  0.1921 -0.1282 -0.0403
  173SOPE   H9119627   2.449   2.678   9.716 -0.3903  0.0728  0.2762
  173SOPE  C21019628   2.381   2.643   9.523 -0.2165  0.7492 -0.0941
  173SOPE  H10119629   2.413   2.538   9.533 -0.3833  0.7860  0.8890
  173SOPE  C21119630   2.333   2.681   9.389 -0.4862  0.3622  0.7282
  173SOPE  H11R19631   2.327   2.792   9.394 -2.2834  0.4613 -1.7080
  173SOPE  H11S19632   2.231   2.640   9.374 -0.2685  0.1754 -0.2973
  173SOPE  C21219633   2.423   2.646   9.269 -0.1643 -0.5737 -0.0700
  173SOPE  H12R19634   2.375   2.699   9.184  0.6214  1.1892  0.5385
  173SOPE  H12S19635   2.430   2.537   9.253 -1.4315 -0.4537 -1.7482
  173SOPE  C21319636   2.564   2.705   9.292 -0.2324 -0.0416 -0.2012
  173SOPE  H13R19637   2.617   2.632   9.356  0.3374  1.0275  0.5818
  173SOPE  H13S19638   2.568   2.808   9.334  0.6480 -0.0177 -0.3208
  173SOPE  C21419639   2.629   2.709   9.157 -0.0031  0.6560 -0.2093
  173SOPE  H14R19640   2.610   2.614   9.101 -0.0572 -0.0415  0.9599
  173SOPE  H14S19641   2.740   2.714   9.161  0.5977 -3.5096 -3.9793
  173SOPE  C21519642   2.577   2.815   9.059 -0.1670  1.2557 -0.0173
  173SOPE  H15R19643   2.656   2.888   9.033  2.0016 -1.3738 -1.3221
  173SOPE  H15S19644   2.490   2.874   9.097 -1.8210 -0.6710 -0.6334
  173SOPE  C21619645   2.513   2.764   8.928 -0.4092 -0.1073  0.0959
  173SOPE  H16R19646   2.460   2.850   8.880 -1.4124  0.2315  1.7358
  173SOPE  H16S19647   2.439   2.683   8.944  1.4474 -1.8316  0.2589
  173SOPE  C21719648   2.613   2.704   8.826 -0.1649 -0.2012  0.0957
  173SOPE  H17R19649   2.681   2.629   8.872  0.2378 -0.1452 -0.3945
  173SOPE  H17S19650   2.673   2.794   8.798  0.5445 -0.7993 -0.3540
  173SOPE  C21819651   2.544   2.655   8.702 -0.0262 -0.5606 -0.3399
  173SOPE  H18R19652   2.475   2.717   8.641  0.1460 -0.7658 -0.7508
  173SOPE  H18S19653   2.488   2.562   8.726  1.2036 -1.0475  0.7790
  173SOPE  H18T19654   2.628   2.625   8.635  0.0940 -0.3691 -0.2751
  173SOPE   C3319655   2.025   3.079   9.991 -0.0257 -0.5548  0.1407
  173SOPE   H3X19656   1.931   3.139   9.989  1.1120  1.3928 -3.3734
  173SOPE   H3Y19657   1.993   2.980  10.028 -0.0928 -0.8888 -0.8060
  173SOPE   C3419658   2.071   3.067   9.845  0.7522 -0.0476 -0.2609
  173SOPE   H4X19659   2.174   3.024   9.845 -0.5037 -3.3046 -0.6551
  173SOPE   H4Y19660   2.088   3.167   9.800 -0.2529  0.0778 -0.3705
  173SOPE   C3519661   1.976   2.973   9.778  0.1294  0.1064  0.0608
  173SOPE   H5X19662   1.881   3.027   9.758  0.0232  0.7424  2.0986
  173SOPE   H5Y19663   1.955   2.885   9.842  1.2587  0.9383  1.6491
  173SOPE   C3619664   2.032   2.918   9.642 -0.0047 -0.7004  0.0235
  173SOPE   H6X19665   2.121   2.854   9.663 -0.9214 -1.6117  1.3350
  173SOPE   H6Y19666   2.045   3.007   9.577 -2.9602 -0.4870 -0.4303
  173SOPE   C3719667   1.930   2.825   9.576 -0.3117  0.3773 -0.9949
  173SOPE   H7X19668   1.839   2.877   9.539 -1.5203 -2.4827 -2.2746
  173SOPE   H7Y19669   1.889   2.750   9.646  0.6292  0.7993  0.0511
  173SOPE   C3819670   1.983   2.752   9.450  0.0529 -0.0129 -0.0507
  173SOPE   H8X19671   1.920   2.661   9.445 -0.8173  0.5609  0.2104
  173SOPE   H8Y19672   2.088   2.725   9.473  0.7179  2.4284  0.1075
  173SOPE   C3919673   1.952   2.830   9.317  0.6919  1.4673 -0.1312
  173SOPE   H9X19674   1.992   2.934   9.322 -1.1636  2.2159  0.4258
  173SOPE   H9Y19675   1.841   2.838   9.308  0.5051 -1.5941 -1.6363
  173SOPE  C31019676   2.014   2.738   9.208  0.0154 -0.5644  0.3087
  173SOPE  H10X19677   1.985   2.631   9.222 -0.1531 -0.3303  1.8240
  173SOPE  H10Y19678   2.124   2.751   9.205 -0.0482  0.6272  2.1203
  173SOPE  C31119679   1.968   2.774   9.064 -0.2562 -0.1229  0.1574
  173SOPE  H11X19680   1.977   2.882   9.042  0.1829 -0.4901 -1.5840
  173SOPE  H11Y19681   1.859   2.764   9.046 -0.5247  1.7666  0.5338
  173SOPE  C31219682   2.032   2.696   8.945 -0.4530 -1.1238  0.5186
  173SOPE  H12X19683   2.044   2.585   8.946 -1.3100 -1.2515 -0.7890
  173SOPE  H12Y19684   2.130   2.746   8.930 -1.5837  1.2795  0.6475
  173SOPE  C31319685   1.959   2.725   8.809  0.7733  0.2714 -0.5691
  173SOPE  H13X19686   2.024   2.696   8.724  2.7412  1.9420  0.2728
  173SOPE  H13Y19687   1.936   2.834   8.810 -1.3980 -0.1039  1.9047
  173SOPE  C31419688   1.827   2.641   8.798 -0.5414 -0.5495  0.2168
  173SOPE  H14X19689   1.750   2.680   8.868 -0.3821 -2.3373  1.4486
  173SOPE  H14Y19690   1.844   2.535   8.825 -1.1106 -1.1883 -1.7146
  173SOPE  C31519691   1.777   2.634   8.659 -0.2704  0.0320  0.2053
  173SOPE  H15X19692   1.763   2.527   8.631 -0.2179  0.4080 -1.3369
  173SOPE  H15Y19693   1.852   2.675   8.588  1.2137 -0.1535  1.6138
  173SOPE  C31619694   1.650   2.707   8.640  0.0698  0.6516  0.5403
  173SOPE  H16X19695   1.636   2.788   8.715 -1.4088 -1.1668  2.3511
  173SOPE  H16Y19696   1.565   2.638   8.656 -1.3559  1.3076 -3.2066
  173SOPE  C31719697   1.630   2.747   8.493 -0.0805  0.1680  0.4197
  173SOPE  H17X19698   1.526   2.787   8.489  0.4783  1.6742  0.7205
  173SOPE  H17Y19699   1.633   2.657   8.427 -0.6013  0.9714 -0.7410
  173SOPE  C31819700   1.717   2.871   8.450 -0.1549 -0.4723 -1.4564
  173SOPE  H18X19701   1.693   2.948   8.526  0.0880 -1.4098 -0.4155
  173SOPE  H18Y19702   1.680   2.912   8.353 -1.5157  0.1287 -0.7062
  173SOPE  H18Z19703   1.825   2.849   8.449  0.0078 -0.6589  2.9300
  174SOPE     N19704   2.806   2.799  11.144 -0.7294  0.7134  0.2388
  174SOPE   HN119705   2.713   2.784  11.099 -0.7404 -0.8641  0.7313
  174SOPE   HN219706   2.793   2.777  11.245 -1.0326 -0.2164  0.0116
  174SOPE   HN319707   2.836   2.896  11.123  0.7707  0.2998  0.3341
  174SOPE   C1219708   2.920   2.711  11.085 -0.3542  0.3733 -0.3829
  174SOPE  H12A19709   3.008   2.707  11.154  1.1270 -0.7982 -2.2444
  174SOPE  H12B19710   2.970   2.754  10.996  0.0046 -0.7032 -0.7187
  174SOPE   C1119711   2.867   2.576  11.037  0.6124  0.8242  0.0993
  174SOPE  H11A19712   2.832   2.524  11.128  0.3717 -0.3524 -0.6436
  174SOPE  H11B19713   2.953   2.517  10.999 -1.5752 -3.4671  1.1881
  174SOPE     P19714   2.696   2.456  10.897  0.2771  0.4552 -0.2169
  174SOPE   O1319715   2.554   2.468  10.857  0.4094  0.9240 -0.4563
  174SOPE   O1419716   2.732   2.344  10.980 -0.0390  0.2594  0.1185
  174SOPE   O1219717   2.760   2.595  10.941  0.0948  0.5205 -0.9411
  174SOPE   O1119718   2.778   2.427  10.768 -0.0922  0.6752 -0.3862
  174SOPE    C119719   2.909   2.447  10.750  0.3719 -0.1472 -0.4712
  174SOPE    HA19720   2.969   2.395  10.828  2.0164 -0.6698 -2.0216
  174SOPE    HB19721   2.940   2.553  10.761 -0.7635  0.1904 -0.3449
  174SOPE    C219722   2.951   2.394  10.609 -0.7177  0.3742 -0.0980
  174SOPE    HS19723   3.059   2.416  10.596 -0.5046 -1.2771 -1.4893
  174SOPE   O2119724   2.871   2.461  10.510 -0.0707  0.7027 -0.6061
  174SOPE   C2119725   2.922   2.584  10.477  0.0064  0.0940  0.2609
  174SOPE   O2219726   3.026   2.628  10.521  0.4636 -0.3828 -0.1074
  174SOPE   C2219727   2.827   2.649  10.376 -0.8444 -0.2279 -0.3951
  174SOPE   H2R19728   2.762   2.725  10.425  0.1698  1.4802 -1.5544
  174SOPE   H2S19729   2.758   2.574  10.333  0.1684  0.1574 -2.8858
  174SOPE    C319730   2.943   2.242  10.599  0.3776  1.0897 -0.2870
  174SOPE    HX19731   2.847   2.192  10.624  1.6442 -1.7352 -0.5865
  174SOPE    HY19732   3.006   2.198  10.679 -1.6867 -2.7077 -0.4770
  174SOPE   O3119733   2.981   2.190  10.464  0.1431  0.4875 -0.7755
  174SOPE   C3119734   3.076   2.104  10.470 -0.4127  0.5943 -0.4062
  174SOPE   O3219735   3.137   2.058  10.567 -0.3879 -0.0155 -0.4047
  174SOPE   C3219736   3.127   2.074  10.336 -0.4609  0.4245 -0.4007
  174SOPE   H2X19737   3.145   2.172  10.288 -0.1290  0.4842 -0.1620
  174SOPE   H2Y19738   3.040   2.025  10.289 -0.5965  0.6355 -0.3708
  174SOPE   C2319739   2.918   2.721  10.265  0.0113  0.2597 -0.3263
  174SOPE   H3R19740   2.985   2.639  10.231 -0.9594  0.4211 -2.8350
  174SOPE   H3S19741   2.985   2.807  10.286  0.2330  0.5332 -2.0405
  174SOPE   C2419742   2.847   2.783  10.140 -0.3636 -0.1846  0.0095
  174SOPE   H4R19743   2.746   2.743  10.115 -2.0034  3.3277  0.3901
  174SOPE   H4S19744   2.819   2.886  10.173  0.4507  0.0594 -0.0263
  174SOPE   C2519745   2.948   2.784  10.019  0.1591  0.3489  0.8054
  174SOPE   H5R19746   3.042   2.829  10.058 -1.5228  1.8983  3.3089
  174SOPE   H5S19747   2.965   2.676   9.998 -0.2296  0.7050 -1.6479
  174SOPE   C2619748   2.897   2.858   9.896 -0.2478 -0.3635  0.8938
  174SOPE   H6R19749   2.798   2.835   9.850  1.2350  1.0263 -3.4706
  174SOPE   H6S19750   2.891   2.968   9.913 -0.7339 -0.1445 -0.4990
  174SOPE   C2719751   3.000   2.831   9.781 -0.1957 -0.8628 -0.8606
  174SOPE   H7R19752   3.099   2.846   9.828 -1.1455  1.9242  0.4850
  174SOPE   H7S19753   2.990   2.725   9.750  0.5733 -0.4047 -2.8905
  174SOPE   C2819754   2.992   2.920   9.652 -0.4463  0.7278 -0.4215
  174SOPE   H8R19755   3.003   3.023   9.692  2.9656 -0.0328  1.0290
  174SOPE   H8S19756   3.086   2.896   9.598 -1.1522 -4.0068  0.0229
  174SOPE   C2919757   2.869   2.908   9.566 -0.4029 -0.2967 -0.1965
  174SOPE   H9119758   2.778   2.946   9.615 -0.3615 -1.5275  0.9006
  174SOPE  C21019759   2.859   2.842   9.455  0.7251  0.2818  0.2573
  174SOPE  H10119760   2.766   2.838   9.396  1.3777 -2.0813 -0.7217
  174SOPE  C21119761   2.966   2.766   9.385 -0.2135  0.0052  0.0064
  174SOPE  H11R19762   2.918   2.694   9.316  3.2815 -2.2760 -0.2873
  174SOPE  H11S19763   3.019   2.719   9.471 -1.9014  0.1381  1.1712
  174SOPE  C21219764   3.065   2.842   9.299  0.1028 -0.6085 -0.1689
  174SOPE  H12R19765   3.141   2.767   9.271  0.6568  0.5174 -1.8024
  174SOPE  H12S19766   3.115   2.927   9.351  0.2432  0.1519 -1.5119
  174SOPE  C21319767   3.002   2.903   9.175  0.1921 -0.3200  0.0753
  174SOPE  H13R19768   2.932   2.987   9.193  2.3387  1.7016 -0.5333
  174SOPE  H13S19769   2.938   2.831   9.120  1.1611 -0.9882 -0.2003
  174SOPE  C21419770   3.118   2.945   9.081  0.8099 -0.9957  0.2926
  174SOPE  H14R19771   3.178   2.858   9.050  1.0176 -0.4617 -0.8386
  174SOPE  H14S19772   3.194   3.011   9.128  0.9895 -0.0799 -1.2084
  174SOPE  C21519773   3.063   3.003   8.945 -0.0664  0.7912 -0.1840
  174SOPE  H15R19774   2.979   3.075   8.959 -0.4856  0.1621  0.6412
  174SOPE  H15S19775   3.015   2.922   8.886 -0.0645  0.1593  0.6620
  174SOPE  C21619776   3.180   3.065   8.866 -0.3811  0.1429  0.2556
  174SOPE  H16R19777   3.220   3.158   8.912 -0.4312 -0.8814  2.4684
  174SOPE  H16S19778   3.148   3.102   8.766  2.6264  1.2405 -0.3868
  174SOPE  C21719779   3.300   2.975   8.839  0.1715  0.3964  0.0603
  174SOPE  H17R19780   3.333   2.932   8.936  0.5386  0.6005  0.0259
  174SOPE  H17S19781   3.373   3.048   8.799  1.7778 -0.8948  0.5056
  174SOPE  C21819782   3.273   2.869   8.737  0.2682 -0.0872 -0.1916
  174SOPE  H18R19783   3.206   2.796   8.788 -0.4195  1.4289  1.1535
  174SOPE  H18S19784   3.368   2.824   8.702  0.0471 -0.1852 -0.6663
  174SOPE  H18T19785   3.216   2.912   8.652 -1.6148  0.8621  1.4594
  174SOPE   C3319786   3.244   1.973  10.339 -0.2609  0.1915 -0.3967
  174SOPE   H3X19787   3.226   1.886  10.405  2.7166  0.9447  1.6650
  174SOPE   H3Y19788   3.339   2.021  10.371 -1.5206  1.8265  1.0788
  174SOPE   C3419789   3.247   1.908  10.201  0.3465  0.3033  0.1275
  174SOPE   H4X19790   3.144   1.870  10.186 -0.3620  1.0545  2.5720
  174SOPE   H4Y19791   3.318   1.824  10.187 -0.5669 -0.3745 -0.5415
  174SOPE   C3519792   3.269   1.998  10.077  0.2900  0.3946  0.2241
  174SOPE   H5X19793   3.369   2.045  10.064 -0.6071  1.7952 -2.4273
  174SOPE   H5Y19794   3.201   2.085  10.087 -0.3079  0.4738 -3.1121
  174SOPE   C3619795   3.221   1.924   9.951  0.1086  0.6370  0.0838
  174SOPE   H6X19796   3.120   1.882   9.971  0.3656 -0.1045 -0.1041
  174SOPE   H6Y19797   3.285   1.839   9.919  0.7972  1.4944 -0.8750
  174SOPE   C3719798   3.218   2.034   9.837  0.1433  0.0597 -0.2358
  174SOPE   H7X19799   3.315   2.089   9.843  1.2244 -1.9011  2.0147
  174SOPE   H7Y19800   3.152   2.117   9.868  2.1047  1.8511 -0.5853
  174SOPE   C3819801   3.184   1.991   9.697  0.5390 -0.4197 -0.1648
  174SOPE   H8X19802   3.077   2.019   9.686  1.0201  1.3309 -0.6836
  174SOPE   H8Y19803   3.189   1.880   9.702 -0.7239 -0.4891 -0.3058
  174SOPE   C3919804   3.266   2.051   9.579  0.1509  0.7722 -0.8016
  174SOPE   H9X19805   3.370   2.015   9.592 -0.6402 -0.5742  3.2080
  174SOPE   H9Y19806   3.272   2.162   9.577  0.4037  0.7497 -2.0159
  174SOPE  C31019807   3.215   2.003   9.440  0.4216  0.0838  0.6383
  174SOPE  H10X19808   3.116   2.042   9.408  0.5902 -0.3462 -0.4504
  174SOPE  H10Y19809   3.180   1.898   9.448 -1.8718  0.5103 -2.0817
  174SOPE  C31119810   3.320   2.036   9.343 -0.1980  0.2412  0.1255
  174SOPE  H11X19811   3.412   1.983   9.375 -1.1764 -0.9781  1.0379
  174SOPE  H11Y19812   3.344   2.144   9.336  2.9247 -0.3183  0.8962
  174SOPE  C31219813   3.302   1.995   9.195  0.0952 -0.6685  0.1567
  174SOPE  H12X19814   3.221   2.052   9.144  0.7650  1.5791  1.4467
  174SOPE  H12Y19815   3.275   1.888   9.182 -0.7664 -0.5408  0.7964
  174SOPE  C31319816   3.430   2.038   9.121  0.1783 -0.3945 -0.2924
  174SOPE  H13X19817   3.518   1.987   9.164  1.7838  2.4706  0.0673
  174SOPE  H13Y19818   3.448   2.148   9.122 -1.8184 -0.0283 -0.1346
  174SOPE  C31419819   3.414   2.001   8.975 -0.2628  0.2167  0.0524
  174SOPE  H14X19820   3.365   1.901   8.967  0.4059 -0.1637  0.5503
  174SOPE  H14Y19821   3.516   2.000   8.932 -0.3750 -2.3656 -0.3288
  174SOPE  C31519822   3.334   2.116   8.897 -0.2069 -0.4201 -0.1923
  174SOPE  H15X19823   3.385   2.213   8.919  1.7150 -1.2387 -0.8405
  174SOPE  H15Y19824   3.230   2.114   8.934  0.3834  0.7228  1.6645
  174SOPE  C31619825   3.342   2.084   8.748 -0.1052 -0.2169  0.1661
  174SOPE  H16X19826   3.307   1.980   8.733  0.4928 -0.5543  1.0677
  174SOPE  H16Y19827   3.445   2.091   8.707  0.2002 -1.7688  0.6305
  174SOPE  C31719828   3.257   2.170   8.647 -0.4245  0.4747 -0.1589
  174SOPE  H17X19829   3.149   2.152   8.668 -0.5170  1.3032  0.1137
  174SOPE  H17Y19830   3.278   2.128   8.547 -0.9059 -0.0194 -0.0600
  174SOPE  C31819831   3.286   2.318   8.655 -0.0954 -0.8670 -0.0872
  174SOPE  H18X19832   3.396   2.332   8.663 -0.0899  0.2760 -1.7317
  174SOPE  H18Y19833   3.245   2.358   8.750  1.0378 -2.9456  1.3590
  174SOPE  H18Z19834   3.246   2.364   8.562 -1.1333  3.0369  2.0979
  175SOPE     N19835   3.601   5.698  10.632 -0.5608 -0.4313  0.2593
  175SOPE   HN119836   3.503   5.733  10.636 -0.4848 -0.2238  0.3187
  175SOPE   HN219837   3.649   5.739  10.549 -3.3617 -0.8018 -1.6868
  175SOPE   HN319838   3.594   5.595  10.619  0.5467 -0.5696  0.6734
  175SOPE   C1219839   3.682   5.727  10.751 -0.5056 -0.1667  0.2644
  175SOPE  H12A19840   3.633   5.694  10.845  1.6323 -0.9193  1.1751
  175SOPE  H12B19841   3.700   5.836  10.762  0.3317 -0.1877 -0.7032
  175SOPE   C1119842   3.816   5.651  10.739 -0.0554 -0.2255 -0.4169
  175SOPE  H11A19843   3.793   5.555  10.687 -0.5206  0.4112 -1.4179
  175SOPE  H11B19844   3.853   5.635  10.843  0.3427 -0.0060 -0.5245
  175SOPE     P19845   4.055   5.662  10.629  0.2905  0.0452 -0.2802
  175SOPE   O1319846   4.079   5.559  10.726  0.3709 -0.4337  0.0201
  175SOPE   O1419847   4.157   5.768  10.622 -0.5693 -0.3564 -0.0583
  175SOPE   O1219848   3.909   5.726  10.666  0.4163 -0.5193  0.1828
  175SOPE   O1119849   4.027   5.599  10.496  0.3015 -0.8191 -0.1437
  175SOPE    C119850   3.973   5.672  10.384  0.1531 -1.2978  0.0912
  175SOPE    HA19851   3.970   5.780  10.411  1.3931 -2.1138  4.1071
  175SOPE    HB19852   3.871   5.629  10.373  0.9076 -3.8798  2.1575
  175SOPE    C219853   4.042   5.655  10.246  0.3344 -0.3372 -0.3379
  175SOPE    HS19854   3.983   5.686  10.158  2.3862  0.3331 -1.5505
  175SOPE   O2119855   4.088   5.519  10.234 -0.1245  0.1888  0.2163
  175SOPE   C2119856   3.998   5.443  10.172  0.0631 -0.5412  0.0931
  175SOPE   O2219857   3.883   5.481  10.150 -0.0664  0.1701 -0.0177
  175SOPE   C2219858   4.066   5.304  10.128 -0.4259 -0.0602  0.1982
  175SOPE   H2R19859   3.977   5.251  10.089  0.7469 -2.2395  0.3638
  175SOPE   H2S19860   4.097   5.258  10.224 -2.9990  0.2157  1.2577
  175SOPE    C319861   4.173   5.731  10.247 -0.2259  0.7420  0.2620
  175SOPE    HX19862   4.232   5.706  10.156 -0.2604 -1.1777  0.7318
  175SOPE    HY19863   4.232   5.686  10.329 -0.1511 -1.4110 -0.8856
  175SOPE   O3119864   4.133   5.873  10.259 -0.1149 -0.3608 -0.0608
  175SOPE   C3119865   4.110   5.931  10.141 -0.4518  0.3612 -0.3304
  175SOPE   O3219866   4.105   5.872  10.036  0.3491  0.0709 -0.2304
  175SOPE   C3219867   4.073   6.082  10.156 -0.3752 -0.0261 -0.8656
  175SOPE   H2X19868   4.146   6.129  10.226  0.4091 -1.6432 -0.5388
  175SOPE   H2Y19869   3.971   6.075  10.198  0.3091 -0.7085  0.7758
  175SOPE   C2319870   4.182   5.321  10.021  0.2019  0.0153 -0.3190
  175SOPE   H3R19871   4.250   5.233  10.020  1.1755  0.7401 -1.9172
  175SOPE   H3S19872   4.249   5.408  10.039  1.0557 -0.9103  1.1419
  175SOPE   C2419873   4.124   5.326   9.878  1.0696 -0.0687 -0.1687
  175SOPE   H4R19874   4.078   5.226   9.871 -0.0837  0.4054  0.3534
  175SOPE   H4S19875   4.038   5.396   9.879  0.2234 -1.0902  0.9711
  175SOPE   C2519876   4.233   5.354   9.770 -0.1332 -0.0483  0.0813
  175SOPE   H5R19877   4.299   5.438   9.801 -1.5645  0.8050  0.9558
  175SOPE   H5S19878   4.289   5.259   9.759  2.5791  1.3332  0.9778
  175SOPE   C2619879   4.179   5.394   9.631  0.1225  0.5760 -0.1700
  175SOPE   H6R19880   4.104   5.316   9.608  0.4737  0.1432  0.1153
  175SOPE   H6S19881   4.123   5.488   9.647  0.8875  0.7919  1.4309
  175SOPE   C2719882   4.277   5.421   9.520 -0.8255  0.5883  0.2014
  175SOPE   H7R19883   4.354   5.493   9.556  2.1794 -2.3100  0.0503
  175SOPE   H7S19884   4.331   5.328   9.490 -2.4050 -0.5768  0.8419
  175SOPE   C2819885   4.207   5.477   9.392 -0.1031 -0.6973  0.0923
  175SOPE   H8R19886   4.145   5.395   9.351  2.6356 -2.9111  0.0917
  175SOPE   H8S19887   4.140   5.556   9.433 -0.2670 -0.8548  0.1272
  175SOPE   C2919888   4.318   5.526   9.292 -0.5267  0.3461 -0.0260
  175SOPE   H9119889   4.411   5.565   9.335 -0.4235  0.4538 -0.3457
  175SOPE  C21019890   4.296   5.550   9.161 -0.0212 -0.7134 -0.1051
  175SOPE  H10119891   4.377   5.587   9.096 -0.7593  0.0065 -0.6486
  175SOPE  C21119892   4.164   5.529   9.081  0.1701  0.0539 -1.0547
  175SOPE  H11R19893   4.142   5.622   9.024  1.5748 -0.1370 -1.9577
  175SOPE  H11S19894   4.078   5.523   9.151  0.7987  1.2557 -0.1410
  175SOPE  C21219895   4.161   5.405   8.989  0.0612 -0.2706 -0.1745
  175SOPE  H12R19896   4.053   5.395   8.966 -0.0073 -0.1762  0.1091
  175SOPE  H12S19897   4.198   5.318   9.047 -1.7961 -0.8155  0.2488
  175SOPE  C21319898   4.238   5.439   8.862 -0.2002  0.5295  0.0711
  175SOPE  H13R19899   4.345   5.452   8.888  0.1090 -0.0036 -0.8549
  175SOPE  H13S19900   4.202   5.527   8.805  1.6265  2.5411  1.8383
  175SOPE  C21419901   4.233   5.317   8.760 -0.2567  0.8404  0.1273
  175SOPE  H14R19902   4.138   5.309   8.702 -1.1468 -0.6142  1.6893
  175SOPE  H14S19903   4.243   5.230   8.828  1.7168  0.5487 -0.4755
  175SOPE  C21519904   4.347   5.326   8.652 -0.4265  0.5091 -0.7050
  175SOPE  H15R19905   4.423   5.248   8.673 -2.0046 -0.7310  0.6691
  175SOPE  H15S19906   4.393   5.427   8.662 -1.2199  0.6914  2.1642
  175SOPE  C21619907   4.298   5.314   8.513 -0.3568  0.1804  0.1981
  175SOPE  H16R19908   4.223   5.233   8.497 -1.7971  1.8969 -2.4559
  175SOPE  H16S19909   4.384   5.286   8.448 -0.8307 -1.7304  0.3161
  175SOPE  C21719910   4.236   5.447   8.464 -0.4804  0.0404  0.0873
  175SOPE  H17R19911   4.283   5.543   8.496 -0.4304  1.1482 -2.9604
  175SOPE  H17S19912   4.131   5.458   8.499  0.1608 -0.2350  2.2609
  175SOPE  C21819913   4.246   5.455   8.308 -0.0340  0.1354 -0.6008
  175SOPE  H18R19914   4.213   5.359   8.263 -1.8126 -0.5568  1.9554
  175SOPE  H18S19915   4.353   5.474   8.286  0.2207 -0.6191 -0.0637
  175SOPE  H18T19916   4.186   5.536   8.261 -0.8768  1.7022  2.8647
  175SOPE   C3319917   4.050   6.128  10.016  0.7257 -0.7193 -0.2718
  175SOPE   H3X19918   4.002   6.229  10.020 -0.2123 -1.0305 -2.3093
  175SOPE   H3Y19919   3.967   6.070   9.970 -2.3178  2.3637  0.8272
  175SOPE   C3419920   4.173   6.154   9.930  0.3596 -0.0231  0.3162
  175SOPE   H4X19921   4.241   6.065   9.934  0.4175 -0.1889 -2.4534
  175SOPE   H4Y19922   4.221   6.244   9.974  0.4273 -0.3997  1.0380
  175SOPE   C3519923   4.131   6.187   9.784  0.2276 -0.4240 -0.6962
  175SOPE   H5X19924   4.058   6.270   9.799 -1.0845 -1.6573  0.0190
  175SOPE   H5Y19925   4.077   6.096   9.751 -1.1066 -0.6868  1.9646
  175SOPE   C3619926   4.243   6.243   9.693  0.1618 -0.1826 -0.3384
  175SOPE   H6X19927   4.328   6.172   9.699 -1.5216 -2.3211 -0.3890
  175SOPE   H6Y19928   4.269   6.347   9.719 -2.7132  0.8602 -1.2064
  175SOPE   C3719929   4.186   6.252   9.547  0.6004 -0.2282  0.0940
  175SOPE   H7X19930   4.117   6.168   9.524 -0.6040  0.4631  1.0954
  175SOPE   H7Y19931   4.266   6.237   9.471 -0.4713 -0.9155 -0.9366
  175SOPE   C3819932   4.110   6.383   9.516 -0.3677 -0.1423 -0.5543
  175SOPE   H8X19933   4.168   6.473   9.545 -0.1457 -0.7748  1.0441
  175SOPE   H8Y19934   4.028   6.383   9.590 -0.4628  0.8250 -0.6466
  175SOPE   C3919935   4.045   6.398   9.371  0.4554  0.4245 -0.5396
  175SOPE   H9X19936   3.979   6.485   9.393  1.7170  0.6709  2.7945
  175SOPE   H9Y19937   3.972   6.315   9.364  1.9945 -0.9087 -1.1109
  175SOPE  C31019938   4.153   6.415   9.266  0.2030 -0.1203 -0.0384
  175SOPE  H10X19939   4.205   6.321   9.293 -0.9823 -0.3044  1.7556
  175SOPE  H10Y19940   4.217   6.503   9.288  0.6091 -0.9125  2.2095
  175SOPE  C31119941   4.109   6.421   9.127 -0.0656 -0.0061  0.5273
  175SOPE  H11X19942   4.033   6.499   9.106 -0.8079 -0.6342  0.8198
  175SOPE  H11Y19943   4.046   6.329   9.117  1.4828 -0.9739 -0.6805
  175SOPE  C31219944   4.210   6.421   9.005 -0.0144  0.3474 -0.3308
  175SOPE  H12X19945   4.263   6.323   9.000  0.7713  0.7964 -0.9923
  175SOPE  H12Y19946   4.291   6.495   9.018  0.5152 -0.1115 -0.9384
  175SOPE  C31319947   4.139   6.455   8.870 -0.2324  0.5004  0.3928
  175SOPE  H13X19948   4.097   6.558   8.872  0.4151  0.7750  0.2730
  175SOPE  H13Y19949   4.058   6.380   8.870  0.5017 -0.3278  1.6722
  175SOPE  C31419950   4.240   6.425   8.764  0.0984 -0.6787  0.7685
  175SOPE  H14X19951   4.248   6.315   8.752 -2.5546 -0.8148 -0.3852
  175SOPE  H14Y19952   4.335   6.480   8.782  0.7588 -0.8786 -1.7588
  175SOPE  C31519953   4.201   6.489   8.628 -0.0569  0.2075  0.6348
  175SOPE  H15X19954   4.130   6.573   8.643 -0.8340 -0.0153 -1.4048
  175SOPE  H15Y19955   4.142   6.407   8.581  0.3323  0.0914  0.3391
  175SOPE  C31619956   4.327   6.506   8.543 -0.0501 -0.8954  0.2965
  175SOPE  H16X19957   4.367   6.403   8.527 -1.4364 -1.3445 -0.4124
  175SOPE  H16Y19958   4.401   6.572   8.594  0.8548 -0.2796 -1.6857
  175SOPE  C31719959   4.305   6.569   8.409  0.0128 -0.6399  1.2009
  175SOPE  H17X19960   4.223   6.525   8.349 -2.5804  3.7729  1.0151
  175SOPE  H17Y19961   4.389   6.565   8.337  0.5695  0.3280  1.7735
  175SOPE  C31819962   4.265   6.721   8.431  0.1242 -0.1127 -0.6312
  175SOPE  H18X19963   4.183   6.712   8.505  0.4327 -0.0061 -0.2746
  175SOPE  H18Y19964   4.229   6.761   8.334  1.0906  4.4582  0.6676
  175SOPE  H18Z19965   4.337   6.789   8.482 -0.3080 -0.2382  0.1577
  176SOPE     N19966   3.617   4.000  10.628  0.3851  0.3557  0.0690
  176SOPE   HN119967   3.550   3.983  10.704  0.5852  0.1953  0.2095
  176SOPE   HN219968   3.566   4.006  10.537  1.3795  1.4893 -0.4613
  176SOPE   HN319969   3.681   3.918  10.628 -0.2119 -0.2497  3.4658
  176SOPE   C1219970   3.695   4.130  10.635  0.0506 -0.0199  0.1846
  176SOPE  H12A19971   3.619   4.209  10.648 -0.4347 -0.5585  0.7324
  176SOPE  H12B19972   3.751   4.138  10.539 -0.1522 -0.8229 -0.0089
  176SOPE   C1119973   3.790   4.129  10.759  1.2563  0.0236  0.5798
  176SOPE  H11A19974   3.852   4.037  10.753 -1.4066 -1.8063 -1.7316
  176SOPE  H11B19975   3.721   4.133  10.846 -1.6454 -0.5141 -1.5515
  176SOPE     P19976   4.009   4.259  10.676  0.1162 -0.0387 -0.1961
  176SOPE   O1319977   4.110   4.204  10.767  0.2426  0.0272  0.8267
  176SOPE   O1419978   4.026   4.398  10.627  0.0507  0.2120  0.2829
  176SOPE   O1219979   3.868   4.244  10.756 -0.0160 -0.5770  0.3892
  176SOPE   O1119980   3.996   4.154  10.563 -0.4073  0.4625  0.0013
  176SOPE    C119981   3.998   4.192  10.422  0.1645  0.1015 -0.0227
  176SOPE    HA19982   4.104   4.213  10.396  0.1640  0.3388  0.1529
  176SOPE    HB19983   3.956   4.294  10.405  1.5328  0.3147 -2.6234
  176SOPE    C219984   3.931   4.093  10.335 -1.1759  0.6508  0.3560
  176SOPE    HS19985   3.836   4.051  10.374 -0.8790 -1.4829 -1.0892
  176SOPE   O2119986   4.019   3.977  10.334  0.2229  0.4313  0.1118
  176SOPE   C2119987   3.964   3.857  10.292 -0.2914  0.7537 -0.3199
  176SOPE   O2219988   3.844   3.843  10.271 -0.1544  0.6680 -0.0338
  176SOPE   C2219989   4.073   3.753  10.285 -0.2972 -0.1594  0.2740
  176SOPE   H2R19990   4.040   3.685  10.366 -1.9955  1.1398  0.7268
  176SOPE   H2S19991   4.169   3.807  10.302  0.5323 -0.8720 -1.8448
  176SOPE    C319992   3.927   4.153  10.192 -0.3088  0.5034 -0.2884
  176SOPE    HX19993   4.027   4.147  10.146 -0.2331 -2.2598  0.0611
  176SOPE    HY19994   3.918   4.264  10.193 -0.2332  0.5081 -0.0647
  176SOPE   O3119995   3.834   4.093  10.102  0.1245  0.2289  0.4953
  176SOPE   C3119996   3.710   4.135  10.107  0.4880 -0.8766  0.4809
  176SOPE   O3219997   3.672   4.233  10.168  0.0249  0.4923 -0.4103
  176SOPE   C3219998   3.617   4.021  10.055  0.2230 -0.0698  0.2469
  176SOPE   H2X19999   3.646   3.929  10.112  0.4860  0.9689  1.8551
  176SOPE   H2Y20000   3.649   4.007   9.950  0.1421  0.8565  0.0979
  176SOPE   C2320001   4.086   3.681  10.149  0.2130  0.0077  0.7074
  176SOPE   H3R20002   4.086   3.758  10.069  0.9299 -1.2012 -0.4956
  176SOPE   H3S20003   3.995   3.624  10.124 -0.1640  1.7918 -2.4434
  176SOPE   C2420004   4.207   3.590  10.145 -0.0594  0.1816  0.0179
  176SOPE   H4R20005   4.299   3.653  10.136  0.9243 -0.9383  1.6506
  176SOPE   H4S20006   4.219   3.505  10.216 -0.5709 -1.3304 -1.6340
  176SOPE   C2520007   4.215   3.515  10.010  0.1839 -0.1282 -0.5472
  176SOPE   H5R20008   4.200   3.587   9.927  2.5595  0.0870 -0.8611
  176SOPE   H5S20009   4.319   3.475  10.008  0.4762  0.6456 -1.6256
  176SOPE   C2620010   4.115   3.393  10.005 -0.4259  0.3022 -0.1763
  176SOPE   H6R20011   4.142   3.331  10.093 -1.8049 -0.2687 -0.1290
  176SOPE   H6S20012   4.011   3.426  10.030  0.4381  1.2944  2.4391
  176SOPE   C2720013   4.130   3.319   9.877 -0.7723 -0.2881  0.8083
  176SOPE   H7R20014   4.115   3.387   9.790  1.8010 -1.3104 -0.5444
  176SOPE   H7S20015   4.236   3.285   9.873  0.1046  2.2932 -2.3611
  176SOPE   C2820016   4.039   3.198   9.857  0.1050 -0.6341 -0.1890
  176SOPE   H8R20017   4.058   3.143   9.762 -1.2344 -1.3460 -0.0647
  176SOPE   H8S20018   4.043   3.123   9.939 -1.1540 -0.4434  0.0617
  176SOPE   C2920019   3.890   3.236   9.848 -0.0300  0.1927  0.4567
  176SOPE   H9120020   3.840   3.268   9.940 -1.3122  1.6899 -0.7028
  176SOPE  C21020021   3.807   3.248   9.739 -0.2034  1.0456 -0.2150
  176SOPE  H10120022   3.701   3.265   9.764 -0.3316 -1.3750  1.2887
  176SOPE  C21120023   3.838   3.240   9.596 -0.7485 -0.0175 -0.6488
  176SOPE  H11R20024   3.778   3.169   9.536  0.4514 -1.7815  0.1721
  176SOPE  H11S20025   3.938   3.194   9.585 -0.9448 -0.8218  0.6740
  176SOPE  C21220026   3.844   3.382   9.534  0.5953 -0.2873 -0.0206
  176SOPE  H12R20027   3.888   3.456   9.604 -0.5943  0.4620 -0.0452
  176SOPE  H12S20028   3.741   3.411   9.507  0.6510  2.7336  2.5516
  176SOPE  C21320029   3.920   3.362   9.402 -0.0831  0.4931 -0.1669
  176SOPE  H13R20030   3.882   3.272   9.348  1.1069 -0.3162  0.3034
  176SOPE  H13S20031   4.031   3.354   9.406  0.0773  2.4699 -0.0724
  176SOPE  C21420032   3.900   3.485   9.315  0.3378 -0.6077 -0.7064
  176SOPE  H14R20033   3.942   3.579   9.356 -2.6735  0.5395  0.0256
  176SOPE  H14S20034   3.790   3.491   9.302  0.2627 -0.5786 -0.0843
  176SOPE  C21520035   3.963   3.485   9.175  0.0720 -0.6328 -0.2707
  176SOPE  H15R20036   3.933   3.390   9.125  1.9196 -2.0227  1.1490
  176SOPE  H15S20037   4.074   3.481   9.177  0.1361  0.7872  0.6090
  176SOPE  C21620038   3.904   3.602   9.092 -0.3542  0.2697 -0.3972
  176SOPE  H16R20039   3.942   3.699   9.128  2.1555 -0.6193 -0.4637
  176SOPE  H16S20040   3.793   3.602   9.092 -0.4258 -1.9865  0.7181
  176SOPE  C21720041   3.948   3.601   8.947 -0.1021 -0.1436  0.3448
  176SOPE  H17R20042   3.915   3.512   8.888 -1.6280  0.4534  0.2687
  176SOPE  H17S20043   4.058   3.601   8.933  0.2414  0.4736  2.7182
  176SOPE  C21820044   3.898   3.722   8.881  1.2166  0.2111  1.0420
  176SOPE  H18R20045   3.938   3.724   8.777  0.1337 -0.0258  0.6058
  176SOPE  H18S20046   3.928   3.816   8.932 -0.6724  1.6153 -0.2841
  176SOPE  H18T20047   3.789   3.722   8.862  1.6417 -1.9355 -2.2292
  176SOPE   C3320048   3.471   4.057  10.074  0.6450  0.3322 -0.9414
  176SOPE   H3X20049   3.447   4.078  10.181 -0.1686 -1.7952 -0.6545
  176SOPE   H3Y20050   3.423   3.958  10.061  1.1834 -0.3173  1.4233
  176SOPE   C3420051   3.415   4.159   9.981 -0.1636 -0.2001 -0.6421
  176SOPE   H4X20052   3.470   4.256   9.978 -1.0418  0.3085 -0.6595
  176SOPE   H4Y20053   3.315   4.187  10.020 -0.0901 -0.7562 -0.0487
  176SOPE   C3520054   3.421   4.093   9.837 -0.1957 -0.1506  0.0757
  176SOPE   H5X20055   3.390   3.987   9.844  0.5473 -0.3889 -0.1281
  176SOPE   H5Y20056   3.525   4.089   9.797 -0.5826  1.2455 -1.1594
  176SOPE   C3620057   3.336   4.171   9.735  0.9056  0.1183 -0.4038
  176SOPE   H6X20058   3.345   4.281   9.744 -0.0287  0.1128  0.8012
  176SOPE   H6Y20059   3.230   4.149   9.762  1.2030  0.1680  0.8392
  176SOPE   C3720060   3.352   4.114   9.591 -0.5304  0.3201  0.3838
  176SOPE   H7X20061   3.326   4.006   9.589  0.7720 -0.0070 -0.1053
  176SOPE   H7Y20062   3.459   4.125   9.563 -0.1871  2.9834  2.3251
  176SOPE   C3820063   3.269   4.174   9.485 -1.4236  0.1108 -0.5151
  176SOPE   H8X20064   3.307   4.276   9.463 -1.4535 -0.0495 -1.3627
  176SOPE   H8Y20065   3.162   4.180   9.515 -0.8940  2.2985  1.2403
  176SOPE   C3920066   3.282   4.094   9.355 -0.1325  0.4610  0.5834
  176SOPE   H9X20067   3.253   3.987   9.366 -3.5127  0.9440 -1.8204
  176SOPE   H9Y20068   3.387   4.102   9.320  0.3024 -0.7996  1.5336
  176SOPE  C31020069   3.179   4.144   9.254  0.2734  0.2435 -0.1398
  176SOPE  H10X20070   3.202   4.245   9.214 -5.2969  0.8975 -2.6517
  176SOPE  H10Y20071   3.083   4.146   9.310  1.7664 -0.9726  2.6327
  176SOPE  C31120072   3.161   4.058   9.125 -0.1227  0.4851 -0.0800
  176SOPE  H11X20073   3.133   3.952   9.145  2.1825 -0.1562 -0.0341
  176SOPE  H11Y20074   3.249   4.060   9.058 -0.1935 -2.0366 -0.3487
  176SOPE  C31220075   3.058   4.117   9.027 -0.2536 -0.5691  0.6451
  176SOPE  H12X20076   3.076   4.223   9.001 -0.1833 -0.5917  0.6006
  176SOPE  H12Y20077   2.956   4.112   9.069 -0.5851 -0.3164 -0.1000
  176SOPE  C31320078   3.063   4.039   8.892 -0.8477 -0.2350  0.0999
  176SOPE  H13X20079   3.069   3.929   8.903  3.1037 -0.4919 -2.4978
  176SOPE  H13Y20080   3.160   4.063   8.844 -0.9387 -1.7524 -0.9306
  176SOPE  C31420081   2.939   4.075   8.811 -0.5015  0.1861  0.8330
  176SOPE  H14X20082   2.955   4.185   8.799  0.8013 -0.1662 -1.0223
  176SOPE  H14Y20083   2.849   4.049   8.870  0.2996  0.5501  2.2681
  176SOPE  C31520084   2.942   4.014   8.662 -0.4776  0.0644 -0.0205
  176SOPE  H15X20085   2.981   3.911   8.673  2.3000  1.1988  1.9700
  176SOPE  H15Y20086   3.010   4.074   8.597  1.0917 -1.6328 -0.0403
  176SOPE  C31620087   2.793   4.012   8.608  0.5228 -0.0719  0.5329
  176SOPE  H16X20088   2.736   3.967   8.692 -0.0155  1.6217  1.1066
  176SOPE  H16Y20089   2.801   3.938   8.526 -0.3241 -0.7012  1.0080
  176SOPE  C31720090   2.741   4.146   8.557  0.1439  0.4077 -0.7574
  176SOPE  H17X20091   2.791   4.200   8.474 -0.2905  0.3152 -1.0777
  176SOPE  H17Y20092   2.764   4.209   8.646  0.3582  0.1256 -0.6109
  176SOPE  C31820093   2.594   4.128   8.517 -0.5315  0.4403 -0.1115
  176SOPE  H18X20094   2.533   4.084   8.598  0.6701  0.9683  1.1296
  176SOPE  H18Y20095   2.571   4.052   8.440 -0.1245 -2.3964  2.4130
  176SOPE  H18Z20096   2.548   4.223   8.481 -1.0127  1.1735  2.2557
  177SOPE     N20097   2.354   2.265  10.871  0.6438  0.1874 -0.2076
  177SOPE   HN120098   2.284   2.328  10.829  0.6944 -0.0823 -0.7077
  177SOPE   HN220099   2.436   2.316  10.911  1.1157  1.0139 -2.1296
  177SOPE   HN320100   2.392   2.194  10.805  0.9347  0.2229 -0.0839
  177SOPE   C1220101   2.269   2.214  10.973  0.2011 -0.2522 -0.4109
  177SOPE  H12A20102   2.222   2.297  11.030  0.2743 -0.7111  0.3270
  177SOPE  H12B20103   2.321   2.161  11.055  1.2133  1.4785  0.1112
  177SOPE   C1120104   2.162   2.116  10.909 -0.0990  0.4197 -0.1802
  177SOPE  H11A20105   2.105   2.178  10.837 -0.3382  0.8511  0.3772
  177SOPE  H11B20106   2.082   2.090  10.981 -1.9750  3.1053 -1.1619
  177SOPE     P20107   2.286   1.892  10.941  0.1419 -0.1118 -0.4086
  177SOPE   O1320108   2.193   1.847  11.046 -0.0022 -0.5218 -0.1322
  177SOPE   O1420109   2.415   1.939  10.987 -0.0271 -0.2698  0.1936
  177SOPE   O1220110   2.209   1.990  10.852  0.5469  0.7783  0.3346
  177SOPE   O1120111   2.312   1.775  10.843 -0.2236 -0.3070 -0.5688
  177SOPE    C120112   2.399   1.800  10.731 -1.0201  0.0830 -1.1223
  177SOPE    HA20113   2.483   1.728  10.744 -0.7795  0.0954 -2.4527
  177SOPE    HB20114   2.459   1.894  10.731  0.8840 -1.0619 -0.1763
  177SOPE    C220115   2.333   1.767  10.598 -0.2720  0.0755  0.1243
  177SOPE    HS20116   2.253   1.842  10.581  0.8559  1.6870  1.5636
  177SOPE   O2120117   2.269   1.638  10.601  0.3446  0.2979  0.1799
  177SOPE   C2120118   2.137   1.626  10.616 -0.5506 -0.0372 -0.9330
  177SOPE   O2220119   2.068   1.718  10.647 -0.1758 -0.1533  0.1011
  177SOPE   C2220120   2.108   1.480  10.593  0.0844 -0.1880 -1.1644
  177SOPE   H2R20121   2.069   1.431  10.685 -0.4382  1.1194 -0.6689
  177SOPE   H2S20122   2.204   1.432  10.564  0.3748  0.8597 -2.0256
  177SOPE    C320123   2.433   1.782  10.481  0.1553  0.5998  0.0179
  177SOPE    HX20124   2.504   1.699  10.501  0.7371  1.9246  4.6743
  177SOPE    HY20125   2.492   1.876  10.491 -0.0135  0.6909  0.1747
  177SOPE   O3120126   2.377   1.781  10.349 -0.0936 -0.3943 -0.0983
  177SOPE   C3120127   2.359   1.666  10.282 -0.0992  0.7719  0.6404
  177SOPE   O3220128   2.398   1.557  10.322  0.3944  0.0891  0.5224
  177SOPE   C3220129   2.305   1.687  10.140  0.1546 -0.4936  0.1188
  177SOPE   H2X20130   2.215   1.752  10.148  1.6252  1.7748 -0.7687
  177SOPE   H2Y20131   2.278   1.587  10.099 -0.0292  0.1688 -1.4280
  177SOPE   C2320132   2.003   1.460  10.479  0.1569 -0.3717 -0.2346
  177SOPE   H3R20133   1.928   1.541  10.480  0.5451  0.0522 -1.7984
  177SOPE   H3S20134   1.946   1.368  10.504  0.4274 -0.1071  1.4743
  177SOPE   C2420135   2.067   1.453  10.339 -0.0236  0.2986 -0.1591
  177SOPE   H4R20136   2.094   1.557  10.311  2.0058 -0.7221 -2.3304
  177SOPE   H4S20137   2.153   1.383  10.338  2.5359  3.1340 -2.8972
  177SOPE   C2520138   1.962   1.425  10.228  0.2194  0.1613 -0.5934
  177SOPE   H5R20139   1.956   1.315  10.212  0.9073  0.0220  0.0699
  177SOPE   H5S20140   1.862   1.469  10.247  0.3606  0.6972 -1.0601
  177SOPE   C2620141   2.002   1.473  10.087 -0.6412  0.1467 -0.0779
  177SOPE   H6R20142   2.000   1.584  10.083  0.2504  0.1257 -2.3495
  177SOPE   H6S20143   2.105   1.437  10.066 -1.9582 -2.5111 -2.7342
  177SOPE   C2720144   1.920   1.427   9.963 -0.1120 -0.3487 -0.6696
  177SOPE   H7R20145   1.914   1.316   9.965 -1.3380 -0.3816 -2.7797
  177SOPE   H7S20146   1.818   1.472   9.962 -1.0938 -2.3827  1.0376
  177SOPE   C2820147   2.001   1.475   9.832  0.8114  0.1318 -0.0968
  177SOPE   H8R20148   2.091   1.526   9.872  2.7128 -2.7723 -0.3492
  177SOPE   H8S20149   2.037   1.381   9.785 -2.0871 -1.4548  0.6165
  177SOPE   C2920150   1.936   1.587   9.752  0.3383  0.0255 -0.2670
  177SOPE   H9120151   1.875   1.656   9.810  0.0280 -0.6695  0.2437
  177SOPE  C21020152   1.939   1.609   9.616  0.6282  0.5044  0.2100
  177SOPE  H10120153   1.888   1.695   9.571  1.3193  0.0440 -1.5101
  177SOPE  C21120154   2.008   1.524   9.516  0.4940 -0.1830  0.3978
  177SOPE  H11R20155   1.940   1.482   9.439  0.4023 -0.6089  0.7076
  177SOPE  H11S20156   2.053   1.430   9.554  0.3508  0.0402  1.1301
  177SOPE  C21220157   2.097   1.622   9.439 -0.4652  0.4201 -0.6169
  177SOPE  H12R20158   2.171   1.558   9.385 -0.6997 -2.1336  1.8552
  177SOPE  H12S20159   2.158   1.675   9.515  0.5442 -0.3620 -0.8593
  177SOPE  C21320160   2.025   1.705   9.334  0.2961  0.8349  0.3288
  177SOPE  H13R20161   1.954   1.775   9.384 -2.4719 -0.8106 -1.0715
  177SOPE  H13S20162   1.983   1.635   9.259  1.2326  0.2730  0.3231
  177SOPE  C21420163   2.120   1.794   9.251  0.2328  0.1598  0.7131
  177SOPE  H14R20164   2.195   1.723   9.212 -0.2817 -0.7150  1.2724
  177SOPE  H14S20165   2.169   1.873   9.312  2.7293 -1.4070  0.8549
  177SOPE  C21520166   2.032   1.843   9.130 -0.0158  0.3498  0.6523
  177SOPE  H15R20167   1.987   1.936   9.170 -0.1368 -0.3992  2.3604
  177SOPE  H15S20168   1.954   1.767   9.109 -1.1975  1.4205  1.0600
  177SOPE  C21620169   2.119   1.880   9.003  0.3165 -0.4628  0.4566
  177SOPE  H16R20170   2.158   1.784   8.962 -1.1783 -0.8008 -0.2331
  177SOPE  H16S20171   2.210   1.929   9.044 -0.5919  0.0176  1.9555
  177SOPE  C21720172   2.050   1.956   8.900 -0.2329  0.0762  0.1667
  177SOPE  H17R20173   2.014   2.054   8.937  4.3992  1.5987  1.2901
  177SOPE  H17S20174   1.970   1.897   8.849 -1.3988  2.2029 -0.5846
  177SOPE  C21820175   2.151   1.972   8.789  0.2964  0.8568  0.7437
  177SOPE  H18R20176   2.182   1.876   8.742 -0.3090  1.8367 -1.8377
  177SOPE  H18S20177   2.239   2.024   8.831 -0.2455  2.7849 -0.3547
  177SOPE  H18T20178   2.116   2.042   8.709  0.6484 -0.0835 -0.2589
  177SOPE   C3320179   2.399   1.760  10.035  0.9652 -0.6483 -0.1901
  177SOPE   H3X20180   2.478   1.684  10.016  0.8737 -1.5926  2.7481
  177SOPE   H3Y20181   2.430   1.855  10.084 -1.0470 -1.8208  3.7398
  177SOPE   C3420182   2.304   1.799   9.915 -0.5180 -0.5985 -0.1921
  177SOPE   H4X20183   2.215   1.843   9.965  0.1315  0.6327 -0.0771
  177SOPE   H4Y20184   2.273   1.709   9.856 -0.1251 -2.3491  2.1417
  177SOPE   C3520185   2.370   1.901   9.817  0.5672 -0.2594 -0.3245
  177SOPE   H5X20186   2.478   1.877   9.828  0.6793  0.0680 -0.6722
  177SOPE   H5Y20187   2.353   2.004   9.854 -1.3985 -0.4048 -0.7521
  177SOPE   C3620188   2.327   1.878   9.673  0.7472  0.1552  0.2256
  177SOPE   H6X20189   2.218   1.883   9.652  1.2829  1.4577 -2.7392
  177SOPE   H6Y20190   2.353   1.771   9.655 -0.3772 -0.6271  2.7235
  177SOPE   C3720191   2.403   1.977   9.577  0.3858 -0.0610 -0.0408
  177SOPE   H7X20192   2.484   2.023   9.638  0.3889 -0.6088  0.3787
  177SOPE   H7Y20193   2.338   2.062   9.551 -0.1408 -0.2305  0.6900
  177SOPE   C3820194   2.458   1.918   9.446 -0.1536 -0.1870  0.2836
  177SOPE   H8X20195   2.363   1.886   9.398 -0.7564  1.8363  0.0438
  177SOPE   H8Y20196   2.518   1.827   9.467  0.6942  0.1507 -0.6029
  177SOPE   C3920197   2.534   2.015   9.357 -0.0138  0.5334  0.0996
  177SOPE   H9X20198   2.620   2.043   9.420 -0.1708 -0.2540  0.6785
  177SOPE   H9Y20199   2.463   2.097   9.332 -0.6639 -0.2732 -0.7735
  177SOPE  C31020200   2.585   1.961   9.217 -0.3759  0.2977  0.2287
  177SOPE  H10X20201   2.692   1.933   9.230 -0.1559  1.5704  1.3588
  177SOPE  H10Y20202   2.569   2.039   9.139 -1.7351 -0.9059 -0.7508
  177SOPE  C31120203   2.517   1.835   9.164  0.5193  0.2506 -0.3367
  177SOPE  H11X20204   2.407   1.847   9.155  0.7487  0.9101 -3.1240
  177SOPE  H11Y20205   2.531   1.756   9.241 -0.9221  1.2484  1.0279
  177SOPE  C31220206   2.575   1.793   9.028 -1.0787 -0.6477 -0.4297
  177SOPE  H12X20207   2.548   1.691   8.993 -0.7768 -0.5876 -0.8454
  177SOPE  H12Y20208   2.685   1.789   9.039 -1.2278 -0.2004  1.6466
  177SOPE  C31320209   2.544   1.889   8.906  0.9531  0.4662 -0.4352
  177SOPE  H13X20210   2.595   1.988   8.915 -0.0299  1.2748 -2.9693
  177SOPE  H13Y20211   2.435   1.908   8.912  0.6193 -1.6646  1.3454
  177SOPE  C31420212   2.577   1.826   8.764 -0.1210  0.5161  0.0327
  177SOPE  H14X20213   2.527   1.727   8.755  0.9300  0.1234 -2.1315
  177SOPE  H14Y20214   2.688   1.813   8.765 -0.1274  0.3233 -0.9041
  177SOPE  C31520215   2.529   1.917   8.656 -0.0891  0.0127 -0.1520
  177SOPE  H15X20216   2.559   2.020   8.680 -1.6748  0.4289  0.1908
  177SOPE  H15Y20217   2.418   1.902   8.657  0.0403 -1.0609  0.0209
  177SOPE  C31620218   2.573   1.880   8.520 -0.2054 -0.4781  0.2803
  177SOPE  H16X20219   2.566   1.772   8.497  1.4336 -0.0361 -2.9398
  177SOPE  H16Y20220   2.684   1.893   8.513 -0.4193  0.5728 -2.5487
  177SOPE  C31720221   2.514   1.963   8.400 -0.2328  0.3523  0.0129
  177SOPE  H17X20222   2.560   1.927   8.306 -1.3101  2.2224 -1.3033
  177SOPE  H17Y20223   2.555   2.065   8.413 -0.4458  0.5000 -0.4417
  177SOPE  C31820224   2.365   1.971   8.381 -0.7837 -0.0115 -0.2517
  177SOPE  H18X20225   2.323   1.868   8.377 -2.6100  0.6783  0.3201
  177SOPE  H18Y20226   2.349   2.018   8.282  2.3806 -0.0095 -0.8697
  177SOPE  H18Z20227   2.314   2.033   8.457 -1.3510 -0.6105 -0.1292
  178SOPE     N20228   0.969   6.613  10.829  0.4728  0.1097 -0.2091
  178SOPE   HN120229   0.970   6.528  10.889 -1.0321  0.4231  0.3038
  178SOPE   HN220230   1.041   6.680  10.863  0.0094 -0.7616  2.7904
  178SOPE   HN320231   0.880   6.665  10.841  1.0760  0.8755  1.1456
  178SOPE   C1220232   0.999   6.567  10.689  0.0611 -0.0589  0.1040
  178SOPE  H12A20233   1.102   6.526  10.690  0.9104  1.9756  0.3439
  178SOPE  H12B20234   0.996   6.656  10.624  0.1869  1.2298  1.7978
  178SOPE   C1120235   0.902   6.460  10.633 -0.2952 -0.2527  0.2806
  178SOPE  H11A20236   0.936   6.424  10.534  0.3127 -1.0730  0.7750
  178SOPE  H11B20237   0.802   6.507  10.619 -0.3353 -0.6569 -0.8088
  178SOPE     P20238   0.950   6.220  10.716 -0.0769  0.0423  0.0952
  178SOPE   O1320239   0.954   6.160  10.852 -0.0742 -0.0431  0.1381
  178SOPE   O1420240   1.083   6.250  10.666 -0.2239 -0.5430  0.0910
  178SOPE   O1220241   0.872   6.357  10.730  0.1096 -0.6725 -0.0829
  178SOPE   O1120242   0.863   6.135  10.610  0.2009  0.1499 -0.2651
  178SOPE    C120243   0.744   6.069  10.639  0.3919 -0.2273 -0.2483
  178SOPE    HA20244   0.706   6.093  10.741 -0.4167 -0.6328 -0.4454
  178SOPE    HB20245   0.767   5.961  10.631  0.4334 -0.1252 -1.8827
  178SOPE    C220246   0.623   6.091  10.542  0.0488  0.6239 -0.7607
  178SOPE    HS20247   0.530   6.069  10.598  0.9255  2.0325  1.3772
  178SOPE   O2120248   0.660   6.010  10.430 -0.7753  0.5051  0.3610
  178SOPE   C2120249   0.559   5.995  10.344  0.5702  0.4399 -0.4518
  178SOPE   O2220250   0.441   6.003  10.377 -0.6893 -0.2590 -0.1309
  178SOPE   C2220251   0.603   5.960  10.205 -0.6576 -0.0400  0.5062
  178SOPE   H2R20252   0.702   5.910  10.213 -0.9791 -0.6934  0.4378
  178SOPE   H2S20253   0.620   6.056  10.152  1.0020  0.0511  1.1358
  178SOPE    C320254   0.617   6.239  10.487 -0.4039 -1.0839  0.0146
  178SOPE    HX20255   0.720   6.264  10.454  0.3795 -0.2644  2.7965
  178SOPE    HY20256   0.604   6.306  10.575 -0.4094 -1.2641  0.1526
  178SOPE   O3120257   0.517   6.259  10.387  0.2644 -0.6413 -0.2319
  178SOPE   C3120258   0.485   6.388  10.369 -0.8631  0.5668  0.4350
  178SOPE   O3220259   0.539   6.478  10.429  0.3579 -0.2837  0.2433
  178SOPE   C3220260   0.385   6.394  10.248 -0.3848  0.1426 -0.1207
  178SOPE   H2X20261   0.363   6.500  10.225  0.4757 -0.1060 -2.3815
  178SOPE   H2Y20262   0.288   6.341  10.263 -0.0251 -1.5697 -3.1549
  178SOPE   C2320263   0.495   5.877  10.130 -0.3264 -0.4411  0.1049
  178SOPE   H3R20264   0.395   5.901  10.171 -0.1563 -0.2362  0.4075
  178SOPE   H3S20265   0.511   5.769  10.152 -3.0650 -1.0127 -0.3972
  178SOPE   C2420266   0.492   5.907   9.980  0.0288 -0.4508  0.3772
  178SOPE   H4R20267   0.410   5.855   9.925  0.3991  0.3628 -0.9815
  178SOPE   H4S20268   0.482   6.017   9.968  0.4814 -0.5513 -1.2302
  178SOPE   C2520269   0.621   5.882   9.904 -0.4487 -0.3498  0.2637
  178SOPE   H5R20270   0.703   5.930   9.962 -0.3796 -0.2563  0.0865
  178SOPE   H5S20271   0.640   5.772   9.895  0.0266 -0.3386  1.0132
  178SOPE   C2620272   0.647   5.942   9.764  0.1122  0.3229  0.2853
  178SOPE   H6R20273   0.629   6.051   9.773 -0.5181  0.1349  1.3947
  178SOPE   H6S20274   0.751   5.920   9.734  0.8485  2.1121  1.3603
  178SOPE   C2720275   0.547   5.894   9.665  0.5171 -0.1398  0.4024
  178SOPE   H7R20276   0.547   5.784   9.650 -1.5258  0.0297 -1.4003
  178SOPE   H7S20277   0.448   5.922   9.706 -0.0925 -1.9897  0.3180
  178SOPE   C2820278   0.567   5.952   9.525 -0.0770  0.0097  0.0527
  178SOPE   H8R20279   0.466   5.965   9.480  0.4204 -1.8750 -1.7272
  178SOPE   H8S20280   0.609   6.054   9.537 -1.4106  0.7292 -1.1152
  178SOPE   C2920281   0.650   5.876   9.422  0.4035 -1.0717  0.0211
  178SOPE   H9120282   0.664   5.770   9.447  0.2134 -0.8311  1.2461
  178SOPE  C21020283   0.686   5.926   9.304  0.1755 -0.4549  0.4432
  178SOPE  H10120284   0.743   5.859   9.238  2.0214  0.6871  0.7905
  178SOPE  C21120285   0.668   6.071   9.262 -0.5932  0.1796  0.4025
  178SOPE  H11R20286   0.767   6.117   9.240 -0.7302  0.6404  0.7357
  178SOPE  H11S20287   0.620   6.138   9.336 -0.5818 -0.2305  0.7854
  178SOPE  C21220288   0.577   6.077   9.133  0.1179 -0.0136 -0.2384
  178SOPE  H12R20289   0.548   6.183   9.124  2.1874  0.6509  0.2479
  178SOPE  H12S20290   0.487   6.014   9.148  0.4566 -0.0909  1.8537
  178SOPE  C21320291   0.655   6.038   9.005 -0.5993  0.0662  0.6295
  178SOPE  H13R20292   0.683   5.931   9.013  1.1254  0.5446  1.5467
  178SOPE  H13S20293   0.758   6.079   9.006 -1.0331  1.1901  0.9075
  178SOPE  C21420294   0.593   6.073   8.873 -0.1965 -0.0356  0.7795
  178SOPE  H14R20295   0.593   6.183   8.857 -0.8500 -0.3614 -1.9628
  178SOPE  H14S20296   0.488   6.039   8.871 -0.4500  0.7757 -0.2959
  178SOPE  C21520297   0.676   6.014   8.759  0.1644 -0.4589  0.3568
  178SOPE  H15R20298   0.690   5.906   8.782  2.7518 -0.0505  1.0641
  178SOPE  H15S20299   0.781   6.052   8.763 -0.2145  0.7784 -0.8925
  178SOPE  C21620300   0.615   6.028   8.618  0.9366 -0.1616 -0.2102
  178SOPE  H16R20301   0.615   6.131   8.577 -1.2449  0.2364  0.6523
  178SOPE  H16S20302   0.505   6.010   8.629  0.0641  3.4780 -1.5096
  178SOPE  C21720303   0.670   5.927   8.517 -0.6508 -0.2289 -0.1232
  178SOPE  H17R20304   0.649   5.827   8.559 -1.6298 -0.5103 -1.2096
  178SOPE  H17S20305   0.778   5.938   8.492 -0.8154  0.6202 -0.5231
  178SOPE  C21820306   0.589   5.934   8.383  0.2519 -0.8837 -0.5512
  178SOPE  H18R20307   0.638   5.871   8.305  0.0797  0.7901 -2.0773
  178SOPE  H18S20308   0.592   6.042   8.357  1.0160 -0.0123  2.6641
  178SOPE  H18T20309   0.483   5.903   8.393  0.8446 -2.3522  2.9260
  178SOPE   C3320310   0.452   6.332  10.124  0.0612  0.7391  0.3288
  178SOPE   H3X20311   0.464   6.224  10.148 -2.1200  0.0423 -1.3699
  178SOPE   H3Y20312   0.554   6.374  10.120  0.8013 -1.0789 -1.4190
  178SOPE   C3420313   0.375   6.350   9.991  0.1226 -0.3981  0.1466
  178SOPE   H4X20314   0.313   6.441  10.005  1.5778  0.5858  0.3227
  178SOPE   H4Y20315   0.294   6.274   9.977 -0.2003  0.0325 -0.3679
  178SOPE   C3520316   0.467   6.350   9.871  0.1044  0.0589  0.2186
  178SOPE   H5X20317   0.488   6.243   9.849 -1.8539 -0.2295 -0.3706
  178SOPE   H5Y20318   0.563   6.403   9.894  0.0096  0.8118 -1.0226
  178SOPE   C3620319   0.400   6.420   9.747 -0.7150 -0.3282 -0.3209
  178SOPE   H6X20320   0.402   6.528   9.773  1.5548 -0.9437  2.6002
  178SOPE   H6Y20321   0.295   6.386   9.732 -1.5746  2.1434 -0.2277
  178SOPE   C3720322   0.470   6.386   9.612  0.6907  0.1470 -0.1382
  178SOPE   H7X20323   0.459   6.278   9.588  0.9773 -0.0726  0.6975
  178SOPE   H7Y20324   0.579   6.403   9.598  0.7191 -2.1954 -5.3411
  178SOPE   C3820325   0.403   6.462   9.496  0.6429 -0.0974  0.1019
  178SOPE   H8X20326   0.396   6.572   9.512  0.0175  0.1126 -1.3951
  178SOPE   H8Y20327   0.298   6.425   9.489 -0.2861  2.1808  1.0047
  178SOPE   C3920328   0.468   6.438   9.359  0.1460 -0.3575 -0.2448
  178SOPE   H9X20329   0.485   6.331   9.336  0.6085 -0.7980  1.9550
  178SOPE   H9Y20330   0.568   6.487   9.364 -0.2907  0.9508 -2.5999
  178SOPE  C31020331   0.399   6.513   9.245  0.4659  0.4139  0.0259
  178SOPE  H10X20332   0.384   6.623   9.258  1.7460  0.8075 -1.4767
  178SOPE  H10Y20333   0.296   6.474   9.233  1.1376 -0.8623 -2.2837
  178SOPE  C31120334   0.472   6.499   9.111  0.6096  1.0821 -0.0385
  178SOPE  H11X20335   0.492   6.390   9.102 -1.5150  0.4005  2.4304
  178SOPE  H11Y20336   0.564   6.561   9.114  0.5641  1.1485 -0.0483
  178SOPE  C31220337   0.370   6.536   8.998 -0.7093 -0.6425  0.2051
  178SOPE  H12X20338   0.328   6.632   9.035 -0.2893 -1.2592  2.4379
  178SOPE  H12Y20339   0.287   6.462   9.001 -1.5113  0.2696  1.0503
  178SOPE  C31320340   0.431   6.554   8.856  0.1892  0.7849 -0.2234
  178SOPE  H13X20341   0.501   6.640   8.857 -0.3352  1.2147  0.8068
  178SOPE  H13Y20342   0.353   6.588   8.785 -0.1819 -1.2938 -0.8817
  178SOPE  C31420343   0.479   6.422   8.797 -0.0424  0.5452  0.0941
  178SOPE  H14X20344   0.405   6.345   8.826  0.1235 -0.3619 -1.8047
  178SOPE  H14Y20345   0.575   6.402   8.851 -1.0080 -3.6525  0.5832
  178SOPE  C31520346   0.499   6.405   8.644  0.5463 -0.3956  0.6563
  178SOPE  H15X20347   0.399   6.390   8.599  0.2360 -0.9143  1.5143
  178SOPE  H15Y20348   0.572   6.323   8.627  0.9629 -0.2636  1.7461
  178SOPE  C31620349   0.553   6.522   8.557  0.1313 -0.3835  0.4130
  178SOPE  H16X20350   0.515   6.615   8.604 -1.7783 -1.2927  0.7534
  178SOPE  H16Y20351   0.520   6.518   8.451  0.9788 -2.2501  0.1861
  178SOPE  C31720352   0.710   6.517   8.554 -0.3968  0.2946  0.3714
  178SOPE  H17X20353   0.745   6.419   8.516  0.0545  0.3077  0.7322
  178SOPE  H17Y20354   0.743   6.533   8.660 -0.5343  2.7444  0.1014
  178SOPE  C31820355   0.779   6.636   8.477 -0.1908  0.0411  0.2458
  178SOPE  H18X20356   0.753   6.631   8.369 -1.1027 -0.1220  0.4662
  178SOPE  H18Y20357   0.888   6.615   8.477  0.1597  1.2463 -2.8728
  178SOPE  H18Z20358   0.768   6.739   8.518  0.1059  0.8328 -1.5559
  179SOPE     N20359   2.377   2.441   6.385  0.1192  0.8234  0.3508
  179SOPE   HN120360   2.346   2.357   6.437 -2.0504  0.9975 -0.5299
  179SOPE   HN220361   2.439   2.505   6.438  1.5328  1.0582 -1.4945
  179SOPE   HN320362   2.287   2.483   6.353 -2.0246 -3.7272 -0.3815
  179SOPE   C1220363   2.461   2.391   6.271 -0.5362  0.7222  0.2764
  179SOPE  H12A20364   2.523   2.477   6.238 -2.0734  1.3469 -1.1455
  179SOPE  H12B20365   2.395   2.373   6.182 -1.0394 -0.5250  0.8796
  179SOPE   C1120366   2.536   2.266   6.311 -0.2822  0.3193 -0.0938
  179SOPE  H11A20367   2.594   2.282   6.404  3.0329 -2.2422 -1.5525
  179SOPE  H11B20368   2.613   2.247   6.234 -1.7984 -1.2937 -1.2888
  179SOPE     P20369   2.354   2.108   6.446  0.4981  0.0886 -0.0612
  179SOPE   O1320370   2.380   1.971   6.491 -0.1299  0.0149  0.2700
  179SOPE   O1420371   2.214   2.141   6.412  0.3709  0.2223 -0.9356
  179SOPE   O1220372   2.449   2.153   6.325 -0.1747 -0.4570 -0.3185
  179SOPE   O1120373   2.381   2.209   6.563  0.3235 -0.2117 -0.7699
  179SOPE    C120374   2.492   2.198   6.651 -0.5809  0.5637 -0.0291
  179SOPE    HA20375   2.522   2.298   6.687 -0.5087  0.3812  0.4288
  179SOPE    HB20376   2.581   2.156   6.599 -0.6656 -0.7758  0.8392
  179SOPE    C220377   2.463   2.108   6.774 -0.3947 -0.3470 -0.7861
  179SOPE    HS20378   2.453   2.007   6.730  2.1480 -0.2039 -1.8466
  179SOPE   O2120379   2.351   2.161   6.849 -0.1508  0.3280 -0.7837
  179SOPE   C2120380   2.248   2.082   6.867 -0.5082 -0.8166 -0.0617
  179SOPE   O2220381   2.235   1.970   6.829 -0.2514  0.3078  0.3884
  179SOPE   C2220382   2.148   2.167   6.954 -0.8349  0.2288  0.7511
  179SOPE   H2R20383   2.054   2.109   6.946  0.8429 -2.5643 -0.2029
  179SOPE   H2S20384   2.130   2.265   6.905 -1.0371 -0.0902  0.1879
  179SOPE    C320385   2.586   2.106   6.875  0.4417 -0.2531  0.3009
  179SOPE    HX20386   2.590   2.207   6.921 -1.4526 -0.4671  1.0310
  179SOPE    HY20387   2.679   2.089   6.818 -0.0363 -4.3340  0.4326
  179SOPE   O3120388   2.572   2.001   6.977  0.5846 -0.1198  0.0308
  179SOPE   C3120389   2.589   1.872   6.926  0.5207 -0.0401  0.5322
  179SOPE   O3220390   2.622   1.845   6.813 -0.2806 -0.0517  0.6210
  179SOPE   C3220391   2.570   1.773   7.037 -0.0177 -0.4447  0.0553
  179SOPE   H2X20392   2.602   1.819   7.133  1.2068  0.5410 -0.7954
  179SOPE   H2Y20393   2.635   1.687   7.009 -1.4499 -1.9087  1.0477
  179SOPE   C2320394   2.189   2.189   7.097  0.9457  0.3050  0.2944
  179SOPE   H3R20395   2.113   2.254   7.147 -0.7399 -1.3765  0.0128
  179SOPE   H3S20396   2.288   2.241   7.097  0.3589  2.1463 -5.3339
  179SOPE   C2420397   2.208   2.061   7.190 -1.4100  0.0466  0.0431
  179SOPE   H4R20398   2.114   2.003   7.173 -1.0566 -0.4238 -0.3009
  179SOPE   H4S20399   2.293   2.003   7.151 -0.3296  2.5785 -1.5911
  179SOPE   C2520400   2.225   2.099   7.341  0.5389 -0.2497 -1.0971
  179SOPE   H5R20401   2.320   2.156   7.339  0.2482  0.3781  1.1213
  179SOPE   H5S20402   2.150   2.173   7.375  2.0801  0.7560  0.2814
  179SOPE   C2620403   2.241   1.986   7.447 -0.2158 -0.0538 -0.5138
  179SOPE   H6R20404   2.314   1.915   7.404  1.2137  1.7584 -1.1884
  179SOPE   H6S20405   2.298   2.017   7.536 -0.2728 -2.0151  0.2588
  179SOPE   C2720406   2.112   1.920   7.494 -0.0952 -0.4345  0.4608
  179SOPE   H7R20407   2.041   2.005   7.504  1.9429  1.3736  0.3008
  179SOPE   H7S20408   2.080   1.865   7.403  0.6866  0.9698 -0.7142
  179SOPE   C2820409   2.125   1.830   7.617 -0.2200  0.3917  0.0126
  179SOPE   H8R20410   2.194   1.750   7.582  0.2943  0.9684 -0.3079
  179SOPE   H8S20411   2.187   1.885   7.691  0.7915 -0.1585 -0.3958
  179SOPE   C2920412   2.000   1.789   7.685 -0.1854  0.2961  0.1797
  179SOPE   H9120413   1.930   1.751   7.609 -1.8246  0.4672  1.5386
  179SOPE  C21020414   1.957   1.803   7.812  0.8412  0.4802  0.8929
  179SOPE  H10120415   1.851   1.782   7.832  0.9901  0.6032  1.8640
  179SOPE  C21120416   2.031   1.872   7.916  0.4873 -0.1553 -0.1507
  179SOPE  H11R20417   2.012   1.978   7.890  1.3958  0.0741  0.0724
  179SOPE  H11S20418   2.141   1.863   7.899  0.3308 -0.5769 -1.0172
  179SOPE  C21220419   1.998   1.821   8.059 -0.6695 -0.0706 -0.1740
  179SOPE  H12R20420   2.062   1.889   8.118  0.9779  1.6491 -3.6707
  179SOPE  H12S20421   2.041   1.718   8.063 -2.7616 -1.0052 -0.5079
  179SOPE  C21320422   1.850   1.818   8.094 -0.0780 -0.8016  1.0029
  179SOPE  H13R20423   1.798   1.759   8.016  1.1720  0.6416 -1.0440
  179SOPE  H13S20424   1.816   1.924   8.094  0.6916 -0.5354 -0.0726
  179SOPE  C21420425   1.839   1.752   8.234 -0.5731 -0.4438 -0.5120
  179SOPE  H14R20426   1.942   1.746   8.276 -0.5334 -1.3717 -0.7368
  179SOPE  H14S20427   1.806   1.647   8.224  1.3477 -0.9355 -2.0506
  179SOPE  C21520428   1.747   1.825   8.334 -0.1592  0.2064  0.1487
  179SOPE  H15R20429   1.647   1.829   8.285 -1.1890 -2.5255  1.8149
  179SOPE  H15S20430   1.780   1.928   8.358  0.0166  0.2236 -0.1632
  179SOPE  C21620431   1.712   1.761   8.474 -0.0198  0.0430  0.7258
  179SOPE  H16R20432   1.808   1.741   8.526  0.5036  3.1608  1.1972
  179SOPE  H16S20433   1.661   1.664   8.460  2.4300 -1.0290 -1.9670
  179SOPE  C21720434   1.629   1.856   8.562  1.0474 -0.2212 -0.6728
  179SOPE  H17R20435   1.532   1.870   8.510  1.4218 -0.2899 -1.4106
  179SOPE  H17S20436   1.664   1.961   8.565  1.2328 -0.2867 -0.4962
  179SOPE  C21820437   1.615   1.821   8.705 -0.5640  0.3194  0.4577
  179SOPE  H18R20438   1.715   1.805   8.751  0.6809  1.8386 -1.5747
  179SOPE  H18S20439   1.555   1.728   8.708 -1.3678  0.7285 -1.6761
  179SOPE  H18T20440   1.555   1.903   8.750  1.0981  1.5623  0.5153
  179SOPE   C3320441   2.426   1.716   7.046  0.2172  0.7618  0.3968
  179SOPE   H3X20442   2.413   1.660   6.950  0.0048  0.3324  0.6702
  179SOPE   H3Y20443   2.344   1.790   7.054  0.3100  0.9178 -0.0377
  179SOPE   C3420444   2.417   1.624   7.169  0.4167  0.6570  0.0256
  179SOPE   H4X20445   2.467   1.526   7.156  1.2795  1.0743  0.1223
  179SOPE   H4Y20446   2.311   1.599   7.190  0.0476  1.2816 -0.9826
  179SOPE   C3520447   2.467   1.695   7.299 -0.1693  0.2460  0.1278
  179SOPE   H5X20448   2.441   1.802   7.291  0.2002  0.2463 -1.4541
  179SOPE   H5Y20449   2.578   1.684   7.294 -0.1034  0.0358  1.6207
  179SOPE   C3620450   2.409   1.645   7.424 -0.1163 -0.4317 -0.5554
  179SOPE   H6X20451   2.404   1.534   7.419 -1.2768 -0.4100 -0.1642
  179SOPE   H6Y20452   2.305   1.683   7.428  0.5305  1.3719  1.0412
  179SOPE   C3720453   2.481   1.697   7.554  0.0526 -0.3457 -0.3326
  179SOPE   H7X20454   2.474   1.808   7.561  2.2504 -0.2790  2.0636
  179SOPE   H7Y20455   2.588   1.672   7.543  0.7219  1.7300  0.9930
  179SOPE   C3820456   2.428   1.650   7.687  0.7016  0.5424  0.2700
  179SOPE   H8X20457   2.319   1.670   7.699 -0.2285 -1.2304 -3.4259
  179SOPE   H8Y20458   2.471   1.706   7.772 -1.4909  1.3334  0.9199
  179SOPE   C3920459   2.435   1.497   7.704 -0.1159  0.6706  0.4908
  179SOPE   H9X20460   2.524   1.437   7.675 -0.6992  0.2115 -0.4103
  179SOPE   H9Y20461   2.358   1.458   7.634  1.2651 -1.3652  0.0181
  179SOPE  C31020462   2.392   1.450   7.847 -0.2018  0.3023 -0.4055
  179SOPE  H10X20463   2.375   1.341   7.842 -2.9189  0.7039 -1.2141
  179SOPE  H10Y20464   2.295   1.494   7.878  0.3848  2.8951 -1.9052
  179SOPE  C31120465   2.494   1.459   7.962 -0.2006 -0.5950  0.6816
  179SOPE  H11X20466   2.538   1.561   7.957 -0.8712 -0.3228  0.2056
  179SOPE  H11Y20467   2.580   1.390   7.947  0.1877  0.1407 -0.6474
  179SOPE  C31220468   2.424   1.419   8.092 -0.0429 -0.9530  0.3396
  179SOPE  H12X20469   2.405   1.314   8.062 -1.0944 -0.8942  0.7593
  179SOPE  H12Y20470   2.332   1.482   8.100  0.2405 -0.7082  1.8148
  179SOPE  C31320471   2.520   1.434   8.212 -0.0471  0.0324 -0.5618
  179SOPE  H13X20472   2.533   1.542   8.234 -0.1467  0.3597 -2.0251
  179SOPE  H13Y20473   2.623   1.407   8.180 -0.2626 -0.2500 -1.0298
  179SOPE  C31420474   2.468   1.361   8.334 -0.6737 -0.1836 -0.3654
  179SOPE  H14X20475   2.538   1.358   8.419 -0.4288 -3.8754 -0.5062
  179SOPE  H14Y20476   2.455   1.255   8.302  0.1402 -0.5222  0.4123
  179SOPE  C31520477   2.337   1.411   8.408  0.3447  0.0254  0.3427
  179SOPE  H15X20478   2.258   1.379   8.338  1.2761 -1.5696 -0.0310
  179SOPE  H15Y20479   2.337   1.522   8.404 -0.0564  0.2030  3.2179
  179SOPE  C31620480   2.314   1.345   8.545  0.3811  0.6542  0.1347
  179SOPE  H16X20481   2.369   1.248   8.543 -2.1595 -0.8726 -1.6308
  179SOPE  H16Y20482   2.206   1.319   8.536  0.5843 -0.3014  0.3294
  179SOPE  C31720483   2.352   1.423   8.664  0.1576 -0.1904  0.1566
  179SOPE  H17X20484   2.291   1.516   8.667 -0.4596 -0.5971  2.4593
  179SOPE  H17Y20485   2.461   1.445   8.662  0.2157 -0.4688  0.1813
  179SOPE  C31820486   2.328   1.348   8.796  0.5297  1.3815 -0.6070
  179SOPE  H18X20487   2.423   1.297   8.822 -0.7981  0.1959  2.4634
  179SOPE  H18Y20488   2.238   1.282   8.796  0.9261  0.7258 -3.2227
  179SOPE  H18Z20489   2.319   1.422   8.878 -1.2637 -0.0334  0.5438
  180SOPE     N20490   0.932   2.035   6.138 -0.2279  0.1834  0.2701
  180SOPE   HN120491   1.028   2.066   6.110  0.6971 -2.0237  0.7932
  180SOPE   HN220492   0.912   1.948   6.085  2.2134 -0.5131  0.3521
  180SOPE   HN320493   0.874   2.114   6.103 -0.2471  0.2947  0.5419
  180SOPE   C1220494   0.912   2.005   6.283  0.3005  0.2043 -0.6837
  180SOPE  H12A20495   0.974   1.915   6.303 -0.3576 -0.3067 -0.8828
  180SOPE  H12B20496   0.808   1.964   6.292  0.2850  0.5536  0.9762
  180SOPE   C1120497   0.915   2.112   6.392 -0.3399 -0.8681 -0.6594
  180SOPE  H11A20498   1.016   2.153   6.370  0.2051 -1.3035  0.9130
  180SOPE  H11B20499   0.908   2.067   6.493 -3.8533  0.0056 -0.4004
  180SOPE     P20500   0.835   2.363   6.411  0.4841  0.1351 -0.3040
  180SOPE   O1320501   0.710   2.429   6.455 -0.0488  0.1317  0.1696
  180SOPE   O1420502   0.902   2.430   6.296  0.8262 -0.0577  0.0518
  180SOPE   O1220503   0.813   2.210   6.376 -0.2098  0.1745 -0.3081
  180SOPE   O1120504   0.937   2.372   6.535 -0.0160  0.4641 -0.3477
  180SOPE    C120505   0.907   2.328   6.668  0.1490 -0.6270  0.1686
  180SOPE    HA20506   0.804   2.290   6.681  0.2694 -1.0412 -0.0673
  180SOPE    HB20507   0.919   2.423   6.724  0.5440  1.1514 -2.7224
  180SOPE    C220508   1.004   2.225   6.734 -0.1129  0.1971 -0.0090
  180SOPE    HS20509   0.994   2.128   6.681 -2.0578 -0.2049  0.9636
  180SOPE   O2120510   0.972   2.204   6.872 -0.0105  0.3832 -0.2085
  180SOPE   C2120511   0.867   2.125   6.893  0.6384 -1.2531 -0.3371
  180SOPE   O2220512   0.797   2.081   6.801  0.1039  0.7381  0.4079
  180SOPE   C2220513   0.853   2.086   7.044  0.1952  0.1005  0.5636
  180SOPE   H2R20514   0.853   2.181   7.101 -0.4602  0.9673 -0.8131
  180SOPE   H2S20515   0.936   2.020   7.076 -1.5517 -1.9854  1.1073
  180SOPE    C320516   1.151   2.280   6.718 -0.7675  0.5333 -0.6345
  180SOPE    HX20517   1.145   2.381   6.764 -1.5604  0.6806 -1.0426
  180SOPE    HY20518   1.172   2.289   6.609  0.8786 -0.2532 -0.4065
  180SOPE   O3120519   1.250   2.190   6.774  0.4938 -0.0520 -1.1918
  180SOPE   C3120520   1.339   2.246   6.851  0.8412  0.0681  0.1216
  180SOPE   O3220521   1.353   2.363   6.869 -0.1923 -0.2147 -0.2664
  180SOPE   C3220522   1.398   2.136   6.938 -0.6484  0.3822  0.6253
  180SOPE   H2X20523   1.505   2.138   6.910 -0.7001  4.1438  0.2891
  180SOPE   H2Y20524   1.352   2.041   6.902  0.2580 -0.0289  0.5405
  180SOPE   C2320525   0.722   2.013   7.074  0.3754 -0.4170  0.0068
  180SOPE   H3R20526   0.709   1.918   7.019  2.0030 -1.0207  0.5861
  180SOPE   H3S20527   0.629   2.066   7.044 -1.5394 -3.4901  0.0685
  180SOPE   C2420528   0.713   1.985   7.220 -0.3500 -0.3679  0.2219
  180SOPE   H4R20529   0.626   1.918   7.236 -1.8677  1.1226 -1.3826
  180SOPE   H4S20530   0.804   1.949   7.273 -0.5943  0.2625  1.0881
  180SOPE   C2520531   0.656   2.104   7.304 -0.3517  0.3241  0.5099
  180SOPE   H5R20532   0.704   2.203   7.290 -2.5420  1.4832  0.7029
  180SOPE   H5S20533   0.551   2.118   7.270 -0.2109 -0.5784 -0.3425
  180SOPE   C2620534   0.635   2.063   7.450  0.1308  0.2197 -0.0736
  180SOPE   H6R20535   0.574   1.970   7.452  1.0360 -0.4764 -1.9141
  180SOPE   H6S20536   0.731   2.025   7.490 -0.2097 -1.8321 -1.0617
  180SOPE   C2720537   0.582   2.173   7.545  0.0414 -0.7071  0.4572
  180SOPE   H7R20538   0.672   2.233   7.569  0.0329 -0.5589  0.1267
  180SOPE   H7S20539   0.512   2.238   7.488 -1.7393 -1.4131  1.7667
  180SOPE   C2820540   0.509   2.122   7.670 -0.4697 -0.2715  0.6661
  180SOPE   H8R20541   0.411   2.079   7.642 -0.0151 -1.0045  0.1417
  180SOPE   H8S20542   0.569   2.037   7.710 -0.8751 -0.8608  0.0391
  180SOPE   C2920543   0.490   2.243   7.765  0.2113 -0.2252  0.5704
  180SOPE   H9120544   0.451   2.337   7.724 -0.2871 -0.7734 -0.2617
  180SOPE  C21020545   0.526   2.238   7.898 -0.2623 -0.5379  0.2428
  180SOPE  H10120546   0.506   2.324   7.963 -1.2150 -1.3222  1.0169
  180SOPE  C21120547   0.566   2.116   7.975  0.0298  0.1511  0.2390
  180SOPE  H11R20548   0.677   2.117   7.970 -0.0135  0.9709 -1.8300
  180SOPE  H11S20549   0.517   2.029   7.925 -0.6466  0.8085 -0.2626
  180SOPE  C21220550   0.520   2.113   8.117  0.5650  0.2343 -0.0707
  180SOPE  H12R20551   0.410   2.127   8.121  0.8406  2.9536 -0.3108
  180SOPE  H12S20552   0.547   2.200   8.180  0.1754 -0.4609  1.0944
  180SOPE  C21320553   0.542   1.974   8.186  0.0083  1.0930 -0.1791
  180SOPE  H13R20554   0.545   1.985   8.297  0.0309 -1.0607  0.0701
  180SOPE  H13S20555   0.647   1.943   8.166 -0.0717  0.7706 -0.1032
  180SOPE  C21420556   0.443   1.874   8.136  0.1954  0.2277 -0.0029
  180SOPE  H14R20557   0.436   1.878   8.025  0.8746 -1.5067 -0.1399
  180SOPE  H14S20558   0.340   1.902   8.167 -0.2588  1.4133 -2.3932
  180SOPE  C21520559   0.462   1.735   8.198 -0.0107  0.3172 -0.1960
  180SOPE  H15R20560   0.568   1.701   8.197 -0.3302 -0.8240  1.0316
  180SOPE  H15S20561   0.414   1.664   8.128  0.6366  1.5780 -1.9931
  180SOPE  C21620562   0.401   1.726   8.340  0.3261  0.0570 -0.3106
  180SOPE  H16R20563   0.297   1.763   8.334  0.3668  0.0844 -0.8833
  180SOPE  H16S20564   0.450   1.796   8.411  0.1447 -0.4923  0.3738
  180SOPE  C21720565   0.410   1.591   8.416 -0.3318 -0.7305  0.4698
  180SOPE  H17R20566   0.331   1.583   8.494 -2.7188 -0.2159 -1.7265
  180SOPE  H17S20567   0.498   1.602   8.482 -2.1596  4.8479  2.6061
  180SOPE  C21820568   0.407   1.463   8.335 -0.6975  0.1232  0.8759
  180SOPE  H18R20569   0.315   1.462   8.272 -2.0336 -1.9585  2.7331
  180SOPE  H18S20570   0.394   1.373   8.398  0.3202  1.5858  3.3040
  180SOPE  H18T20571   0.500   1.449   8.276 -0.4127 -2.1608  1.7725
  180SOPE   C3320572   1.395   2.167   7.087 -0.2880 -0.2630  0.7108
  180SOPE   H3X20573   1.378   2.276   7.105 -1.0429  0.3601 -2.9122
  180SOPE   H3Y20574   1.486   2.126   7.135  0.3450  0.0225 -0.2033
  180SOPE   C3420575   1.269   2.112   7.152 -0.1133 -0.0409  0.0314
  180SOPE   H4X20576   1.245   2.004   7.137 -0.9903  0.2638 -0.8996
  180SOPE   H4Y20577   1.186   2.168   7.103 -0.0141 -0.7213 -0.9517
  180SOPE   C3520578   1.245   2.146   7.303  0.2273 -0.4166 -0.2819
  180SOPE   H5X20579   1.291   2.242   7.334  1.6136 -1.2008  0.1766
  180SOPE   H5Y20580   1.306   2.071   7.358 -0.9618 -1.8157 -0.7743
  180SOPE   C3620581   1.096   2.143   7.338 -0.0813 -0.1308  0.0513
  180SOPE   H6X20582   1.047   2.048   7.310  0.0318 -0.2493  0.2519
  180SOPE   H6Y20583   1.038   2.219   7.282 -2.0920 -0.0157  2.1433
  180SOPE   C3720584   1.074   2.176   7.493  0.3780  0.6863 -0.2536
  180SOPE   H7X20585   0.963   2.180   7.506  0.4098  0.8434 -0.0298
  180SOPE   H7Y20586   1.119   2.273   7.521  0.9322  0.3960 -0.1386
  180SOPE   C3820587   1.139   2.070   7.589  0.2146 -0.0327 -0.1290
  180SOPE   H8X20588   1.250   2.074   7.577  0.1281  0.6270 -0.7244
  180SOPE   H8Y20589   1.103   1.969   7.559  1.3123 -1.2628  2.3360
  180SOPE   C3920590   1.089   2.104   7.735 -1.0090  0.2662  0.5954
  180SOPE   H9X20591   0.981   2.081   7.745 -1.0114  0.7048  1.7243
  180SOPE   H9Y20592   1.109   2.212   7.752  1.6479  0.4338 -2.5051
  180SOPE  C31020593   1.163   2.012   7.834 -0.4266  0.3263 -0.0252
  180SOPE  H10X20594   1.265   2.006   7.791 -0.0515  1.2046  0.6930
  180SOPE  H10Y20595   1.121   1.909   7.834  1.7701 -0.6477  0.8748
  180SOPE  C31120596   1.173   2.081   7.975  0.4290  0.0165 -0.5384
  180SOPE  H11X20597   1.238   2.170   7.965 -0.6334  1.0393  1.2024
  180SOPE  H11Y20598   1.214   2.013   8.052 -0.9469  1.5464  1.6622
  180SOPE  C31220599   1.037   2.133   8.020  0.1440 -0.5865 -0.0724
  180SOPE  H12X20600   0.956   2.062   7.995 -0.3504 -0.4997  1.2103
  180SOPE  H12Y20601   1.014   2.236   7.985  0.5900  1.6360  5.2800
  180SOPE  C31320602   1.018   2.138   8.175 -0.0988 -0.0405  0.1620
  180SOPE  H13X20603   1.089   2.214   8.213  0.3593 -0.3486 -0.0642
  180SOPE  H13Y20604   1.046   2.042   8.224 -1.4062 -1.0422 -0.9588
  180SOPE  C31420605   0.872   2.167   8.214  0.3959  0.4357 -0.0733
  180SOPE  H14X20606   0.799   2.089   8.183  0.4829  0.4824 -0.3879
  180SOPE  H14Y20607   0.851   2.263   8.164  0.1242  1.1278  1.3306
  180SOPE  C31520608   0.866   2.168   8.366  0.0018  0.1996  0.4073
  180SOPE  H15X20609   0.774   2.226   8.388  0.3869  0.4015  1.6126
  180SOPE  H15Y20610   0.943   2.235   8.410  0.8183  0.1147 -0.8613
  180SOPE  C31620611   0.862   2.029   8.436 -0.1909 -0.1549 -0.3451
  180SOPE  H16X20612   0.963   1.981   8.430  0.2984  0.8268 -0.0906
  180SOPE  H16Y20613   0.785   1.967   8.386 -0.8303  0.0022  0.4376
  180SOPE  C31720614   0.821   2.029   8.587 -0.3093  0.2373  0.3011
  180SOPE  H17X20615   0.823   1.930   8.638  0.5288  0.2303  0.2680
  180SOPE  H17Y20616   0.713   2.053   8.600  0.2147  1.8229  2.2872
  180SOPE  C31820617   0.887   2.139   8.674 -0.0367 -0.5428 -0.1329
  180SOPE  H18X20618   0.847   2.240   8.655  0.0005 -0.3340  0.8383
  180SOPE  H18Y20619   0.992   2.158   8.642 -0.3722  3.9467  0.7875
  180SOPE  H18Z20620   0.886   2.126   8.785  0.8097  3.4353  0.4875
  181SOPE     N20621   5.885   6.757   5.888  0.6321  0.0805 -0.2462
  181SOPE   HN120622   5.798   6.789   5.840 -0.2529 -2.1755 -0.2818
  181SOPE   HN220623   5.895   6.809   5.978 -0.1444 -0.1576 -0.0042
  181SOPE   HN320624   5.964   6.756   5.822  0.2543 -0.2199 -0.6968
  181SOPE   C1220625   5.845   6.627   5.940 -0.1657  0.1059 -0.3118
  181SOPE  H12A20626   5.823   6.562   5.853 -0.2939 -0.9024  0.4600
  181SOPE  H12B20627   5.749   6.636   5.996  0.4385 -0.4247  0.8471
  181SOPE   C1120628   5.960   6.566   6.023 -0.1977  0.2234 -0.2660
  181SOPE  H11A20629   5.936   6.467   6.068  2.5125 -0.3091  0.2016
  181SOPE  H11B20630   5.972   6.621   6.118 -1.8302 -0.2602  0.2603
  181SOPE     P20631   6.141   6.434   5.873  0.1082 -0.1005 -0.3697
  181SOPE   O1320632   6.284   6.449   5.846 -0.0380  0.4650  0.6083
  181SOPE   O1420633   6.058   6.395   5.757 -0.0977 -0.1976  0.3555
  181SOPE   O1220634   6.081   6.561   5.950 -0.3744  0.1256 -0.3070
  181SOPE   O1120635   6.129   6.329   5.990  0.6763 -0.0622  0.5044
  181SOPE    C120636   6.202   6.343   6.110 -0.5780 -0.3900  0.5625
  181SOPE    HA20637   6.209   6.446   6.153 -0.5396 -0.6029  1.0707
  181SOPE    HB20638   6.301   6.305   6.077 -1.7713 -1.1915 -2.4709
  181SOPE    C220639   6.160   6.262   6.227 -0.3944  0.0021 -0.9249
  181SOPE    HS20640   6.151   6.155   6.198  1.6666 -1.3241  2.7022
  181SOPE   O2120641   6.033   6.308   6.280  0.8379  0.0298 -0.4486
  181SOPE   C2120642   5.983   6.256   6.388  0.1629  0.1000 -0.0807
  181SOPE   O2220643   6.033   6.171   6.460  0.4166 -0.3171  0.3709
  181SOPE   C2220644   5.851   6.331   6.416 -0.0800 -0.3308 -0.2890
  181SOPE   H2R20645   5.787   6.336   6.326 -1.6430  1.0249  0.8267
  181SOPE   H2S20646   5.880   6.437   6.434  1.5969 -0.1235 -3.5859
  181SOPE    C320647   6.268   6.270   6.337 -0.7539 -1.1896 -0.6913
  181SOPE    HX20648   6.372   6.262   6.296  0.0913  0.3988  0.9813
  181SOPE    HY20649   6.256   6.184   6.405  2.3461 -0.9069  0.3732
  181SOPE   O3120650   6.260   6.398   6.401  0.0568 -0.5268  0.4499
  181SOPE   C3120651   6.333   6.407   6.505 -0.0750  0.5656  0.3109
  181SOPE   O3220652   6.420   6.326   6.543  0.6773  0.2708  0.2124
  181SOPE   C3220653   6.292   6.527   6.581  0.7861 -0.1824 -0.1789
  181SOPE   H2X20654   6.182   6.542   6.580  0.6103 -1.3940 -0.0745
  181SOPE   H2Y20655   6.347   6.612   6.534  0.7138 -0.5133 -0.8801
  181SOPE   C2320656   5.781   6.286   6.546 -0.7337 -0.0920 -0.3123
  181SOPE   H3R20657   5.757   6.178   6.544  0.5070 -0.3797 -2.5771
  181SOPE   H3S20658   5.682   6.335   6.545 -0.3025  0.8175  0.0841
  181SOPE   C2420659   5.854   6.321   6.681 -0.5973  1.1710  0.0290
  181SOPE   H4R20660   5.935   6.245   6.677 -1.4591  0.2746 -1.7077
  181SOPE   H4S20661   5.912   6.415   6.668  0.0056  1.0409  1.6370
  181SOPE   C2520662   5.779   6.325   6.817  0.5800  0.2417  1.0546
  181SOPE   H5R20663   5.693   6.395   6.811  1.8793  1.8374  0.1868
  181SOPE   H5S20664   5.742   6.226   6.850  0.4549 -0.6233 -1.5050
  181SOPE   C2620665   5.878   6.374   6.928 -0.0640 -0.3751 -0.7089
  181SOPE   H6R20666   5.971   6.315   6.918  1.1277  1.6318 -2.2266
  181SOPE   H6S20667   5.915   6.475   6.900  2.8537 -0.9444  0.6246
  181SOPE   C2720668   5.835   6.357   7.075  0.2693  0.5531  0.8358
  181SOPE   H7R20669   5.830   6.246   7.088 -2.6500  0.4987  0.0366
  181SOPE   H7S20670   5.905   6.406   7.146  1.3147  1.6112 -0.8723
  181SOPE   C2820671   5.688   6.400   7.116  1.1081  0.0834 -0.2679
  181SOPE   H8R20672   5.613   6.364   7.042 -1.0109  1.4343  1.1387
  181SOPE   H8S20673   5.655   6.360   7.214  0.0357 -1.4268 -1.1926
  181SOPE   C2920674   5.699   6.553   7.111  0.2070  0.2286 -0.0418
  181SOPE   H9120675   5.714   6.591   7.009  0.7434 -0.9965 -0.4311
  181SOPE  C21020676   5.706   6.642   7.212 -0.7468 -0.0888 -0.1463
  181SOPE  H10120677   5.739   6.745   7.195 -3.7574  0.9150 -0.4509
  181SOPE  C21120678   5.712   6.613   7.354  0.3456  0.3600 -0.4307
  181SOPE  H11R20679   5.699   6.506   7.380 -2.2350  0.3924 -1.2380
  181SOPE  H11S20680   5.622   6.665   7.395  1.3067  2.2023 -0.5621
  181SOPE  C21220681   5.833   6.679   7.418 -0.5049  0.1571  0.0017
  181SOPE  H12R20682   5.842   6.787   7.393 -0.9606  0.1919 -0.0303
  181SOPE  H12S20683   5.919   6.618   7.383 -1.3060 -2.5106  2.3436
  181SOPE  C21320684   5.819   6.670   7.569 -0.5272 -0.0283 -0.3600
  181SOPE  H13R20685   5.821   6.567   7.612 -0.4464  0.7735  1.6887
  181SOPE  H13S20686   5.723   6.719   7.593  0.4424  0.6285  2.5989
  181SOPE  C21420687   5.922   6.745   7.649 -0.3790  0.1867  0.2180
  181SOPE  H14R20688   5.929   6.852   7.620  1.3334 -0.5795 -2.5704
  181SOPE  H14S20689   6.021   6.706   7.621  0.1371 -0.0317  2.2076
  181SOPE  C21520690   5.910   6.725   7.801 -0.0731  0.0183 -0.1269
  181SOPE  H15R20691   5.913   6.615   7.819 -2.2998 -0.1522 -0.5734
  181SOPE  H15S20692   5.812   6.758   7.841  0.2605 -0.1101  0.8296
  181SOPE  C21620693   6.034   6.776   7.872 -0.1088 -0.5043  0.8221
  181SOPE  H16R20694   6.057   6.882   7.846 -1.8400 -0.1631  0.4966
  181SOPE  H16S20695   6.126   6.723   7.842  1.4019  1.8129  1.1136
  181SOPE  C21720696   6.019   6.769   8.021  0.1303 -0.2809 -0.3718
  181SOPE  H17R20697   5.995   6.663   8.047 -0.8694  0.5760  2.5955
  181SOPE  H17S20698   5.929   6.828   8.049  0.1006 -0.7317  0.5344
  181SOPE  C21820699   6.138   6.813   8.110  0.7482 -0.1661  0.0011
  181SOPE  H18R20700   6.106   6.856   8.207  3.8928  0.8880  0.6959
  181SOPE  H18S20701   6.206   6.889   8.066  1.0395 -0.5400 -0.2016
  181SOPE  H18T20702   6.205   6.727   8.130  0.5545 -0.1611  0.6829
  181SOPE   C3320703   6.337   6.535   6.732 -0.5367 -0.1332  0.0056
  181SOPE   H3X20704   6.341   6.644   6.751  1.1874  0.0788 -1.2455
  181SOPE   H3Y20705   6.439   6.491   6.732 -0.2111  0.5977 -0.2457
  181SOPE   C3420706   6.256   6.454   6.837  0.2202 -0.4405 -0.2962
  181SOPE   H4X20707   6.248   6.346   6.811 -1.9423 -0.5268  0.5291
  181SOPE   H4Y20708   6.155   6.498   6.852  0.2173 -0.1809 -1.0351
  181SOPE   C3520709   6.322   6.458   6.972  0.1448  0.0054  0.5618
  181SOPE   H5X20710   6.354   6.559   7.004  1.9572 -1.5186  4.2655
  181SOPE   H5Y20711   6.419   6.404   6.978  0.3751  0.5841  2.8030
  181SOPE   C3620712   6.234   6.389   7.074 -0.2837  0.0462 -0.0250
  181SOPE   H6X20713   6.236   6.278   7.067  0.4153 -0.0977  1.8535
  181SOPE   H6Y20714   6.126   6.415   7.063 -0.1038  0.3869 -1.0615
  181SOPE   C3720715   6.271   6.418   7.224 -0.3077 -0.0437  0.6851
  181SOPE   H7X20716   6.276   6.528   7.235  0.0863 -0.2441  2.9982
  181SOPE   H7Y20717   6.375   6.384   7.243 -0.7453 -0.6679  2.1061
  181SOPE   C3820718   6.173   6.375   7.337 -0.0578 -0.6092 -0.5102
  181SOPE   H8X20719   6.173   6.264   7.340  2.5955 -0.6365  0.3298
  181SOPE   H8Y20720   6.074   6.419   7.310 -1.2472 -2.3663  0.8322
  181SOPE   C3920721   6.220   6.427   7.474 -0.3821 -0.1104 -0.1885
  181SOPE   H9X20722   6.230   6.537   7.464 -0.4083 -0.2288 -1.7345
  181SOPE   H9Y20723   6.318   6.385   7.504 -0.3872 -1.7996 -2.3460
  181SOPE  C31020724   6.116   6.377   7.574 -0.6658  0.0253 -0.4005
  181SOPE  H10X20725   6.126   6.267   7.575 -0.1100  0.0677 -0.7956
  181SOPE  H10Y20726   6.014   6.411   7.545  0.6142  1.4698 -3.7673
  181SOPE  C31120727   6.139   6.429   7.718 -0.0626  0.9802  0.3000
  181SOPE  H11X20728   6.146   6.540   7.718 -2.1324  1.1423  0.3495
  181SOPE  H11Y20729   6.235   6.383   7.751 -2.3741 -3.5927  1.5271
  181SOPE  C31220730   6.045   6.378   7.829 -0.0956  0.3925 -0.0366
  181SOPE  H12X20731   6.039   6.269   7.809  0.1104  0.5298 -0.8894
  181SOPE  H12Y20732   5.942   6.416   7.810  0.7250  1.4565 -2.9233
  181SOPE  C31320733   6.089   6.398   7.976 -0.0528 -0.4134 -0.0029
  181SOPE  H13X20734   6.117   6.506   7.973  1.8565 -0.8666 -2.5674
  181SOPE  H13Y20735   6.170   6.335   8.018 -2.5476 -2.2043  2.4569
  181SOPE  C31420736   5.973   6.374   8.075 -0.0862 -0.4161 -0.4064
  181SOPE  H14X20737   5.950   6.267   8.058  3.9432 -1.4782 -0.3545
  181SOPE  H14Y20738   5.887   6.438   8.045  0.5660  0.4233 -0.5487
  181SOPE  C31520739   6.027   6.417   8.211  0.4157  0.1301 -0.4328
  181SOPE  H15X20740   6.036   6.527   8.223  3.0040  0.4651 -3.7648
  181SOPE  H15Y20741   6.132   6.381   8.218  0.6175  0.2901 -2.1558
  181SOPE  C31620742   5.945   6.356   8.333  0.5753 -0.2111  0.9720
  181SOPE  H16X20743   5.997   6.385   8.427  0.3786 -1.0486  1.3512
  181SOPE  H16Y20744   5.946   6.246   8.316  0.9585 -0.3134  1.6246
  181SOPE  C31720745   5.799   6.400   8.319 -0.1247 -0.3156  0.1870
  181SOPE  H17X20746   5.751   6.359   8.227  0.9599 -1.1678 -0.0229
  181SOPE  H17Y20747   5.774   6.508   8.314 -0.8779 -0.5236 -2.8879
  181SOPE  C31820748   5.715   6.350   8.438 -0.9162 -0.5088  0.5573
  181SOPE  H18X20749   5.752   6.394   8.533  2.4504  0.5993 -1.1180
  181SOPE  H18Y20750   5.701   6.240   8.445 -0.2242 -0.6101  0.3959
  181SOPE  H18Z20751   5.615   6.391   8.412  0.5262  1.6216 -2.1229
  182SOPE     N20752   0.889   1.031   6.305  0.5887  0.1999 -0.6818
  182SOPE   HN120753   0.943   1.047   6.218  4.3630  0.0555  1.4249
  182SOPE   HN220754   0.889   0.929   6.322 -0.8381  0.1226 -0.9799
  182SOPE   HN320755   0.787   1.052   6.295  0.0922 -2.1804 -1.1904
  182SOPE   C1220756   0.960   1.111   6.402 -0.2165 -0.6265  0.0289
  182SOPE  H12A20757   0.911   1.089   6.499  1.2488 -0.8557  0.7614
  182SOPE  H12B20758   0.942   1.219   6.384  0.0810 -0.6152 -0.2157
  182SOPE   C1120759   1.109   1.077   6.418  0.6885 -0.3071  0.5311
  182SOPE  H11A20760   1.111   0.976   6.464 -0.6132 -0.0586  1.1676
  182SOPE  H11B20761   1.164   1.135   6.494  2.3198  0.5154 -1.2064
  182SOPE     P20762   1.251   1.206   6.229  0.3049 -0.0115  0.0133
  182SOPE   O1320763   1.168   1.327   6.214 -0.0243 -0.3006  0.1764
  182SOPE   O1420764   1.325   1.168   6.110 -0.1757 -0.4890  0.0319
  182SOPE   O1220765   1.173   1.080   6.287 -0.5269  0.6084 -0.2872
  182SOPE   O1120766   1.359   1.238   6.339 -0.0200 -0.2996 -0.3950
  182SOPE    C120767   1.483   1.165   6.355 -0.0370 -0.4968 -0.1459
  182SOPE    HA20768   1.558   1.189   6.276 -2.1461 -1.1762 -2.5255
  182SOPE    HB20769   1.462   1.057   6.346  0.8887 -1.1442  3.9303
  182SOPE    C220770   1.548   1.174   6.496  0.5494 -0.5126 -0.3839
  182SOPE    HS20771   1.641   1.114   6.509  1.1445  0.6183  0.9412
  182SOPE   O2120772   1.440   1.143   6.591  0.4082 -0.3733 -0.1032
  182SOPE   C2120773   1.426   1.018   6.611  0.6529  0.1266 -0.7734
  182SOPE   O2220774   1.497   0.928   6.567 -0.4119 -0.0217 -0.7200
  182SOPE   C2220775   1.305   0.989   6.706  0.2491  0.4030  0.0800
  182SOPE   H2R20776   1.276   0.884   6.685 -0.9103  0.8620 -0.7164
  182SOPE   H2S20777   1.220   1.056   6.679 -1.8093 -1.4352  1.5699
  182SOPE    C320778   1.593   1.318   6.533  0.2779  0.1073 -0.1675
  182SOPE    HX20779   1.509   1.391   6.524 -0.1735 -0.4584 -0.6374
  182SOPE    HY20780   1.662   1.355   6.454 -0.6915  2.8685  0.1368
  182SOPE   O3120781   1.650   1.312   6.668 -0.4832  0.2929 -0.4731
  182SOPE   C3120782   1.594   1.388   6.759 -0.1491 -0.2830 -0.2463
  182SOPE   O3220783   1.485   1.441   6.753  0.5429 -0.1334 -0.3839
  182SOPE   C3220784   1.685   1.399   6.880  0.4721  0.1396 -0.7225
  182SOPE   H2X20785   1.757   1.483   6.865 -0.0756  0.9520  0.9466
  182SOPE   H2Y20786   1.750   1.310   6.892  0.2796 -0.0389 -0.9797
  182SOPE   C2320787   1.338   1.014   6.861 -0.3679  0.5648  0.0238
  182SOPE   H3R20788   1.319   1.121   6.884 -1.6766  0.4024 -0.2441
  182SOPE   H3S20789   1.442   0.992   6.893  0.2744  1.7876 -1.1627
  182SOPE   C2420790   1.253   0.927   6.950  0.4766  0.3992 -1.1867
  182SOPE   H4R20791   1.147   0.945   6.923  0.6314 -0.9689 -2.8710
  182SOPE   H4S20792   1.275   0.826   6.909 -1.3815 -1.9799  3.0699
  182SOPE   C2520793   1.292   0.937   7.089 -0.1466 -0.3001 -0.4175
  182SOPE   H5R20794   1.389   0.883   7.104 -0.5102 -0.4122  2.0367
  182SOPE   H5S20795   1.308   1.044   7.115 -2.4238  0.0890 -0.4356
  182SOPE   C2620796   1.193   0.874   7.190 -0.0102  0.5318 -0.2602
  182SOPE   H6R20797   1.091   0.918   7.187 -0.4741 -0.4401  0.7558
  182SOPE   H6S20798   1.188   0.765   7.167  3.2582  0.3000 -0.2696
  182SOPE   C2720799   1.226   0.891   7.341  0.3851  0.5298  0.1492
  182SOPE   H7R20800   1.292   0.804   7.362  0.8930  0.4057 -1.7573
  182SOPE   H7S20801   1.281   0.987   7.354 -0.8120  1.1331  0.9090
  182SOPE   C2820802   1.101   0.866   7.427 -0.3993 -0.0566 -0.5215
  182SOPE   H8R20803   1.011   0.911   7.381 -2.1477 -1.9235  0.8353
  182SOPE   H8S20804   1.082   0.756   7.428  0.3397 -0.1959 -0.8776
  182SOPE   C2920805   1.108   0.905   7.572 -0.0601 -0.7610 -0.2411
  182SOPE   H9120806   1.123   1.013   7.576  2.8874 -1.0872 -0.8067
  182SOPE  C21020807   1.131   0.827   7.679  0.6203 -0.0844  0.1272
  182SOPE  H10120808   1.137   0.876   7.777  2.2820 -0.6664  0.3372
  182SOPE  C21120809   1.138   0.680   7.682 -0.4401 -0.0648 -0.6682
  182SOPE  H11R20810   1.210   0.639   7.609  0.4107 -2.6031  1.4344
  182SOPE  H11S20811   1.041   0.637   7.649 -0.9360  1.1412 -0.8240
  182SOPE  C21220812   1.190   0.633   7.818  1.1041  0.2394 -0.1210
  182SOPE  H12R20813   1.286   0.681   7.849  1.5832 -0.0399 -1.1520
  182SOPE  H12S20814   1.207   0.524   7.810 -2.0746 -0.4858  1.3161
  182SOPE  C21320815   1.090   0.636   7.936  0.0855  0.1222  0.3854
  182SOPE  H13R20816   1.003   0.570   7.917  0.6788 -0.3360 -0.8160
  182SOPE  H13S20817   1.054   0.742   7.940 -0.8896 -0.1035 -1.5724
  182SOPE  C21420818   1.158   0.595   8.073 -0.4291 -0.1563 -0.1331
  182SOPE  H14R20819   1.090   0.599   8.160 -0.7034 -1.3602 -0.2726
  182SOPE  H14S20820   1.249   0.657   8.088 -0.5134 -0.1472  0.3313
  182SOPE  C21520821   1.211   0.449   8.074  0.4538 -0.0836 -0.7129
  182SOPE  H15R20822   1.306   0.439   8.017  0.7500 -0.7674 -0.1258
  182SOPE  H15S20823   1.136   0.384   8.025  1.0360 -0.0255 -1.7044
  182SOPE  C21620824   1.244   0.407   8.206 -0.2494 -0.2958 -0.5820
  182SOPE  H16R20825   1.163   0.432   8.278  1.7561  3.2538  0.6696
  182SOPE  H16S20826   1.333   0.455   8.252 -0.5661  0.1673 -0.4401
  182SOPE  C21720827   1.265   0.260   8.218  0.2502 -0.6075  0.0757
  182SOPE  H17R20828   1.195   0.204   8.152  0.4812 -0.1406 -0.5797
  182SOPE  H17S20829   1.248   0.228   8.323  0.5362  0.2329  0.3837
  182SOPE  C21820830   1.410   0.223   8.186 -0.4532 -0.8510  0.0776
  182SOPE  H18R20831   1.484   0.240   8.266  0.6472 -2.1629 -0.6095
  182SOPE  H18S20832   1.447   0.282   8.099 -2.2414  1.2701  0.6709
  182SOPE  H18T20833   1.416   0.116   8.156 -1.1793 -0.5717 -1.1552
  182SOPE   C3320834   1.606   1.431   7.013 -0.4970  0.0389 -0.2355
  182SOPE   H3X20835   1.508   1.475   6.985 -0.6245  0.0545  0.2199
  182SOPE   H3Y20836   1.660   1.508   7.073 -2.2491  2.3976 -1.5085
  182SOPE   C3420837   1.579   1.300   7.093  0.1577  0.3949 -0.2217
  182SOPE   H4X20838   1.672   1.239   7.092 -1.3432 -2.0138 -0.6352
  182SOPE   H4Y20839   1.514   1.231   7.036  0.0210  1.6610 -1.6621
  182SOPE   C3520840   1.537   1.325   7.236  0.4628  0.0883 -0.4827
  182SOPE   H5X20841   1.442   1.382   7.230 -0.4165 -1.1686  0.9642
  182SOPE   H5Y20842   1.604   1.397   7.289  0.3062 -0.3678  0.3521
  182SOPE   C3620843   1.539   1.198   7.319 -0.6021 -0.5850  0.0165
  182SOPE   H6X20844   1.642   1.166   7.344 -0.7225 -1.6902 -0.7802
  182SOPE   H6Y20845   1.491   1.116   7.261 -0.2992 -1.6181  1.1806
  182SOPE   C3720846   1.457   1.213   7.446  0.3780 -0.0190  0.2155
  182SOPE   H7X20847   1.353   1.238   7.419  0.9326  2.2481 -0.0004
  182SOPE   H7Y20848   1.497   1.301   7.501  1.2696  0.0809 -0.5619
  182SOPE   C3820849   1.475   1.096   7.546 -0.3155  0.5657  0.0502
  182SOPE   H8X20850   1.581   1.064   7.537  0.1021  1.4820  1.5378
  182SOPE   H8Y20851   1.420   1.003   7.518  2.5042 -1.1295 -0.3241
  182SOPE   C3920852   1.455   1.136   7.689  0.1341 -0.4406 -0.9066
  182SOPE   H9X20853   1.367   1.202   7.697 -0.0520 -0.8714  1.0672
  182SOPE   H9Y20854   1.543   1.196   7.720 -0.6022 -0.1469  0.7421
  182SOPE  C31020855   1.446   1.012   7.786 -0.7380 -0.6468  0.4851
  182SOPE  H10X20856   1.529   0.941   7.765  1.3333  1.8279 -0.1595
  182SOPE  H10Y20857   1.343   0.970   7.784 -0.9533 -0.1083 -1.0759
  182SOPE  C31120858   1.460   1.058   7.933 -1.5251  0.3678 -0.3022
  182SOPE  H11X20859   1.386   1.138   7.953 -2.6266 -0.7533  0.2348
  182SOPE  H11Y20860   1.559   1.105   7.949 -1.0425 -0.8165  0.2790
  182SOPE  C31220861   1.420   0.945   8.020  0.4537  0.5089 -0.2501
  182SOPE  H12X20862   1.506   0.877   8.039 -0.2237 -0.6456 -1.1792
  182SOPE  H12Y20863   1.342   0.888   7.965  0.4458  0.7775 -0.5194
  182SOPE  C31320864   1.368   0.995   8.151  0.3481 -0.2792 -0.2321
  182SOPE  H13X20865   1.268   1.034   8.124  1.5608  1.0646 -3.2112
  182SOPE  H13Y20866   1.449   1.055   8.197 -0.2154  0.3806 -0.0816
  182SOPE  C31420867   1.349   0.886   8.256  0.6431  0.4362  0.4633
  182SOPE  H14X20868   1.445   0.837   8.281  0.2488 -0.3227  0.5006
  182SOPE  H14Y20869   1.274   0.814   8.219  2.0674 -0.9592  0.2105
  182SOPE  C31520870   1.275   0.926   8.385  0.2577 -0.1115 -0.5012
  182SOPE  H15X20871   1.250   0.836   8.445  2.3099  0.9235  2.0823
  182SOPE  H15Y20872   1.184   0.974   8.342  0.8897  0.5089 -1.1714
  182SOPE  C31620873   1.339   1.032   8.473 -0.2257  0.7291 -0.0824
  182SOPE  H16X20874   1.374   1.125   8.424 -3.3482  3.1236  1.8300
  182SOPE  H16Y20875   1.420   0.983   8.532 -1.9883 -2.1744  0.1563
  182SOPE  C31720876   1.246   1.086   8.589 -0.2624  0.0597  0.8828
  182SOPE  H17X20877   1.201   0.998   8.639  0.8450 -0.6184  0.7128
  182SOPE  H17Y20878   1.174   1.156   8.541  0.9239  2.1507  2.0252
  182SOPE  C31820879   1.326   1.163   8.691  0.3266  0.6169  0.4019
  182SOPE  H18X20880   1.248   1.179   8.768 -0.8770  0.4578 -0.7563
  182SOPE  H18Y20881   1.365   1.256   8.644 -1.7122  0.4592 -1.7743
  182SOPE  H18Z20882   1.396   1.087   8.733 -2.9312 -3.4152 -0.7902
  183SOPE     N20883   3.701   6.396   6.455  0.1814 -0.1918  0.4036
  183SOPE   HN120884   3.746   6.476   6.405 -2.7034 -0.3228 -2.7113
  183SOPE   HN220885   3.658   6.440   6.539  0.8444 -0.9850  1.1816
  183SOPE   HN320886   3.779   6.333   6.483 -0.7017 -1.0195  1.0590
  183SOPE   C1220887   3.591   6.339   6.378  0.2460  0.4690  0.7743
  183SOPE  H12A20888   3.550   6.252   6.434  0.7666 -0.4227 -0.2072
  183SOPE  H12B20889   3.626   6.305   6.278 -1.0733  1.5383 -0.0902
  183SOPE   C1120890   3.480   6.440   6.361 -0.0076 -0.0806 -0.6092
  183SOPE  H11A20891   3.403   6.375   6.314 -1.4488 -0.5894  2.2738
  183SOPE  H11B20892   3.504   6.517   6.284 -0.8179 -1.0251 -1.8644
  183SOPE     P20893   3.268   6.502   6.495 -0.2073  0.6956 -0.0725
  183SOPE   O1320894   3.221   6.566   6.370  0.5115  0.5186 -0.1344
  183SOPE   O1420895   3.256   6.577   6.624  0.1757 -0.1282 -0.6243
  183SOPE   O1220896   3.424   6.481   6.487  0.3492 -0.6875 -0.7144
  183SOPE   O1120897   3.210   6.352   6.510  0.2870  0.3254  0.5117
  183SOPE    C120898   3.286   6.256   6.585  0.4745 -0.3365 -0.2922
  183SOPE    HA20899   3.394   6.284   6.592  0.2047  0.4815  0.8168
  183SOPE    HB20900   3.268   6.165   6.525 -0.5754 -1.3981  1.5656
  183SOPE    C220901   3.239   6.234   6.735 -0.1728 -0.0618  0.2347
  183SOPE    HS20902   3.299   6.148   6.773 -0.1213  0.1491  0.6327
  183SOPE   O2120903   3.100   6.201   6.734  0.7158  0.4034 -0.4874
  183SOPE   C2120904   3.070   6.072   6.700 -0.0592  0.1965 -0.5274
  183SOPE   O2220905   3.146   5.983   6.674 -0.3873 -0.0943 -0.7280
  183SOPE   C2220906   2.915   6.044   6.693 -0.3021 -0.5329  0.1074
  183SOPE   H2R20907   2.885   6.030   6.587 -0.6772 -0.7826  0.2469
  183SOPE   H2S20908   2.854   6.132   6.725 -0.2990 -0.1993 -0.7701
  183SOPE    C320909   3.263   6.351   6.832 -0.4068  0.3937 -0.3851
  183SOPE    HX20910   3.182   6.425   6.814 -1.0030 -0.4157 -1.1087
  183SOPE    HY20911   3.358   6.400   6.805 -0.4591  1.1723  0.8050
  183SOPE   O3120912   3.275   6.312   6.972  0.2413 -0.4452 -0.1158
  183SOPE   C3120913   3.289   6.412   7.063  0.5096  0.4620  0.1061
  183SOPE   O3220914   3.305   6.530   7.039  0.1687  0.6357 -0.2346
  183SOPE   C3220915   3.287   6.347   7.204  0.9061  0.4314  0.0900
  183SOPE   H2X20916   3.385   6.302   7.229  1.2444  0.9771 -0.2153
  183SOPE   H2Y20917   3.197   6.282   7.214  0.9051  0.3199 -0.5740
  183SOPE   C2320918   2.864   5.926   6.776  1.1181 -0.4835  0.2211
  183SOPE   H3R20919   2.905   5.940   6.878  0.0654  2.0503  0.3649
  183SOPE   H3S20920   2.897   5.832   6.725  0.4842 -0.6517  0.1165
  183SOPE   C2420921   2.710   5.916   6.785 -0.1599  0.3297  0.2778
  183SOPE   H4R20922   2.665   5.923   6.684  0.7228  1.8162 -0.0397
  183SOPE   H4S20923   2.691   5.817   6.832 -2.9490  1.3582  1.5731
  183SOPE   C2520924   2.639   6.023   6.875  0.4359 -0.0679 -0.0568
  183SOPE   H5R20925   2.682   6.120   6.841  1.0967  0.7625  2.8451
  183SOPE   H5S20926   2.530   6.033   6.857  0.3466  0.3344  0.6934
  183SOPE   C2620927   2.642   6.002   7.020 -0.7394  0.3288  0.0184
  183SOPE   H6R20928   2.615   5.898   7.048 -0.5509  0.0694 -0.7382
  183SOPE   H6S20929   2.744   6.031   7.054  0.2253 -0.2576 -2.2098
  183SOPE   C2720930   2.537   6.086   7.089 -0.1524  0.7357 -0.6674
  183SOPE   H7R20931   2.565   6.194   7.083 -2.2506  1.2892 -1.4691
  183SOPE   H7S20932   2.442   6.068   7.035 -0.9577 -2.9577  1.6943
  183SOPE   C2820933   2.525   6.069   7.243  0.2470  0.0660  0.0835
  183SOPE   H8R20934   2.548   5.962   7.259  0.1554  0.1142  0.5616
  183SOPE   H8S20935   2.601   6.130   7.297  0.0601 -0.5689  1.0746
  183SOPE   C2920936   2.397   6.112   7.296  0.5707  0.6828  0.0538
  183SOPE   H9120937   2.314   6.060   7.245  1.4108 -2.1650  1.3792
  183SOPE  C21020938   2.363   6.202   7.396  0.0324  0.1209  0.1965
  183SOPE  H10120939   2.257   6.230   7.405 -0.1026  0.0330 -1.0095
  183SOPE  C21120940   2.454   6.287   7.475  0.0378 -0.0801 -0.5226
  183SOPE  H11R20941   2.458   6.387   7.428  0.7203 -1.0511 -2.6272
  183SOPE  H11S20942   2.553   6.240   7.457 -1.2017 -1.6739 -3.9542
  183SOPE  C21220943   2.417   6.300   7.629  0.2556 -0.3324  0.3967
  183SOPE  H12R20944   2.312   6.336   7.629  0.2551 -0.3338  0.5317
  183SOPE  H12S20945   2.484   6.377   7.672  0.3872 -0.1063 -0.2047
  183SOPE  C21320946   2.438   6.175   7.708 -0.3875 -0.0521 -0.1788
  183SOPE  H13R20947   2.543   6.146   7.690  0.2364 -0.5391  3.4114
  183SOPE  H13S20948   2.375   6.090   7.673 -0.0655 -0.4049  0.0917
  183SOPE  C21420949   2.421   6.198   7.858  0.4945  0.3348 -0.3345
  183SOPE  H14R20950   2.320   6.243   7.867 -0.2296 -0.8492 -2.0761
  183SOPE  H14S20951   2.498   6.254   7.916 -0.0281 -0.2577  0.9723
  183SOPE  C21520952   2.419   6.060   7.932 -0.0044 -0.1128  0.8492
  183SOPE  H15R20953   2.525   6.028   7.939  0.4481  1.3057  0.8882
  183SOPE  H15S20954   2.362   5.985   7.873  1.1340 -0.0504 -0.3795
  183SOPE  C21620955   2.362   6.072   8.068 -0.0366  0.0732  0.3908
  183SOPE  H16R20956   2.253   6.091   8.063 -0.2875 -0.5498  2.4312
  183SOPE  H16S20957   2.410   6.159   8.119 -2.1498  2.2853 -1.2087
  183SOPE  C21720958   2.375   5.955   8.162 -0.4826  0.1240  0.0846
  183SOPE  H17R20959   2.314   5.972   8.254 -1.9755  0.1889 -0.8887
  183SOPE  H17S20960   2.481   5.938   8.191 -0.5743 -1.8378 -0.6050
  183SOPE  C21820961   2.310   5.825   8.113 -0.5190  0.3754 -0.7948
  183SOPE  H18R20962   2.335   5.752   8.193 -0.1086 -1.8666 -2.8392
  183SOPE  H18S20963   2.346   5.793   8.012  0.2884  1.7986 -0.9820
  183SOPE  H18T20964   2.199   5.831   8.111 -0.5045  0.6237 -0.9233
  183SOPE   C3320965   3.283   6.465   7.314 -0.4340  0.0814 -0.3166
  183SOPE   H3X20966   3.197   6.528   7.282 -0.0409  0.6774 -0.2090
  183SOPE   H3Y20967   3.378   6.522   7.304  0.3841 -1.2876 -0.6596
  183SOPE   C3420968   3.282   6.411   7.463 -0.3975 -0.6437  0.4026
  183SOPE   H4X20969   3.356   6.329   7.463  0.8222  0.4049 -0.2759
  183SOPE   H4Y20970   3.189   6.364   7.500  0.7664 -2.2797  1.3403
  183SOPE   C3520971   3.338   6.515   7.565 -0.0538 -0.2108 -0.3408
  183SOPE   H5X20972   3.265   6.599   7.564  0.1705  0.1722 -4.8032
  183SOPE   H5Y20973   3.435   6.557   7.531 -0.3123  1.4241  0.7857
  183SOPE   C3620974   3.358   6.453   7.708 -0.7479  0.6733  0.3526
  183SOPE   H6X20975   3.395   6.349   7.697 -0.7564  0.8564 -1.9166
  183SOPE   H6Y20976   3.256   6.436   7.747 -1.7750  0.3057 -2.2809
  183SOPE   C3720977   3.438   6.545   7.793 -0.3242  0.4416 -0.1842
  183SOPE   H7X20978   3.383   6.641   7.791 -3.2177 -1.1089 -0.9725
  183SOPE   H7Y20979   3.541   6.541   7.750 -0.2828 -1.8982 -0.0286
  183SOPE   C3820980   3.458   6.503   7.940 -0.2571  0.8024 -0.8920
  183SOPE   H8X20981   3.530   6.581   7.972  1.2183 -1.2719  1.1392
  183SOPE   H8Y20982   3.517   6.409   7.938 -1.4892 -0.0084 -0.2890
  183SOPE   C3920983   3.329   6.498   8.023  0.4931 -0.2321  0.4846
  183SOPE   H9X20984   3.264   6.418   7.982  1.8146 -1.2033  0.1856
  183SOPE   H9Y20985   3.281   6.597   8.012  0.1558 -0.2909  1.3592
  183SOPE  C31020986   3.346   6.480   8.178  0.2677 -0.3333 -0.1902
  183SOPE  H10X20987   3.436   6.541   8.201  1.7559 -1.4735 -2.5601
  183SOPE  H10Y20988   3.371   6.374   8.202  2.5642  0.0571 -0.6259
  183SOPE  C31120989   3.224   6.533   8.253  0.4166  0.3656  0.2391
  183SOPE  H11X20990   3.126   6.492   8.221  0.6742  0.0893 -0.2074
  183SOPE  H11Y20991   3.229   6.641   8.227  0.2468 -0.1613 -2.2892
  183SOPE  C31220992   3.234   6.507   8.404 -0.4819  0.0662  0.6062
  183SOPE  H12X20993   3.228   6.397   8.419 -0.0434  0.1054  1.1094
  183SOPE  H12Y20994   3.149   6.557   8.455 -1.7899 -0.3366 -1.1001
  183SOPE  C31320995   3.355   6.575   8.470 -0.1134 -0.0393 -0.2411
  183SOPE  H13X20996   3.369   6.681   8.441 -2.9052  0.4545 -0.0270
  183SOPE  H13Y20997   3.449   6.532   8.429  0.4405  0.4974  0.4353
  183SOPE  C31420998   3.356   6.567   8.625 -0.3446 -0.1814 -0.1860
  183SOPE  H14X20999   3.336   6.462   8.654 -1.9099  0.1048 -0.1373
  183SOPE  H14Y21000   3.276   6.631   8.668 -2.1907 -1.8358 -0.9859
  183SOPE  C31521001   3.492   6.614   8.695  0.0906  0.2551  0.4369
  183SOPE  H15X21002   3.498   6.723   8.672 -2.4185  0.7412  1.6775
  183SOPE  H15Y21003   3.580   6.568   8.647 -0.6711  0.9317 -1.7525
  183SOPE  C31621004   3.488   6.601   8.851  0.6216  0.7874 -0.1708
  183SOPE  H16X21005   3.472   6.492   8.865 -0.6651  0.9411 -0.2858
  183SOPE  H16Y21006   3.400   6.659   8.886 -0.1786 -0.7085  0.3844
  183SOPE  C31721007   3.611   6.648   8.931 -0.6140  0.2833  0.0766
  183SOPE  H17X21008   3.612   6.755   8.902  1.3116  0.0146 -1.0179
  183SOPE  H17Y21009   3.701   6.600   8.888 -0.9243  2.0015 -2.7407
  183SOPE  C31821010   3.591   6.619   9.080 -0.3701 -0.2990  0.5539
  183SOPE  H18X21011   3.564   6.513   9.100  2.1288 -1.3630 -1.1873
  183SOPE  H18Y21012   3.506   6.686   9.104  0.3784  0.1127  2.1359
  183SOPE  H18Z21013   3.683   6.643   9.137  0.0786 -2.1351  0.6836
  184SOPE     N21014   2.137   6.584   6.165 -0.1018 -0.7631  0.7453
  184SOPE   HN121015   2.169   6.679   6.137 -1.4555 -0.6918 -0.7150
  184SOPE   HN221016   2.044   6.576   6.120  0.0180 -0.0628  0.3478
  184SOPE   HN321017   2.121   6.578   6.267 -1.5922 -0.3989  0.5519
  184SOPE   C1221018   2.233   6.473   6.113  0.4789  0.1632  0.1773
  184SOPE  H12A21019   2.214   6.452   6.005 -0.9967 -3.1687  0.9862
  184SOPE  H12B21020   2.199   6.376   6.155  1.7975 -0.0008  0.9054
  184SOPE   C1121021   2.374   6.497   6.163 -0.2853  0.1822 -0.2758
  184SOPE  H11A21022   2.429   6.408   6.126  2.0720  1.4483  0.0352
  184SOPE  H11B21023   2.373   6.484   6.274 -0.9421 -0.5929 -0.3559
  184SOPE     P21024   2.577   6.669   6.177 -0.3888  0.0719  0.2114
  184SOPE   O1321025   2.610   6.787   6.099 -0.4888  0.1923 -0.3092
  184SOPE   O1421026   2.669   6.550   6.172  0.0422  0.8713 -0.1698
  184SOPE   O1221027   2.426   6.626   6.132  0.2411 -0.0761  0.3159
  184SOPE   O1121028   2.563   6.708   6.328 -0.5176  0.5918 -0.0386
  184SOPE    C121029   2.615   6.837   6.373  0.1093  0.3301 -0.2843
  184SOPE    HA21030   2.579   6.917   6.305 -1.7766  2.1610  2.6123
  184SOPE    HB21031   2.726   6.835   6.375  0.1659 -2.9255  2.3473
  184SOPE    C221032   2.552   6.879   6.503 -0.2369 -0.9357 -0.4816
  184SOPE    HS21033   2.540   6.990   6.502  0.4349 -0.8530 -0.1662
  184SOPE   O2121034   2.635   6.843   6.616  0.3552  0.2174  0.0215
  184SOPE   C2121035   2.734   6.919   6.638  0.1403 -0.2615 -0.5263
  184SOPE   O2221036   2.770   7.017   6.579  0.1803 -0.8669 -0.0206
  184SOPE   C2221037   2.788   6.880   6.774 -0.4108  0.2608  0.0491
  184SOPE   H2R21038   2.728   6.793   6.809  0.1764  0.5369  1.8468
  184SOPE   H2S21039   2.759   6.961   6.844  2.6838  1.5957 -0.0527
  184SOPE    C321040   2.413   6.818   6.524  0.8122  0.0767  0.7008
  184SOPE    HX21041   2.444   6.713   6.543  0.6126 -0.6607 -2.3891
  184SOPE    HY21042   2.361   6.814   6.426 -1.8139 -1.5751  2.0613
  184SOPE   O3121043   2.330   6.883   6.622 -0.0508 -0.0583 -0.0288
  184SOPE   C3121044   2.249   6.983   6.579  0.1453  0.9850 -0.0643
  184SOPE   O3221045   2.241   7.029   6.467 -0.1654 -0.2526 -0.5184
  184SOPE   C3221046   2.161   7.037   6.684 -0.1213  0.6037 -0.1375
  184SOPE   H2X21047   2.148   6.966   6.769 -0.7871  3.8768  2.6990
  184SOPE   H2Y21048   2.064   7.056   6.634 -0.4069 -1.6086 -0.5405
  184SOPE   C2321049   2.933   6.842   6.788  0.4542  0.1194  0.7118
  184SOPE   H3R21050   3.009   6.919   6.763 -0.4831  0.9897  0.4909
  184SOPE   H3S21051   2.948   6.755   6.720 -0.3466  0.0097  0.6700
  184SOPE   C2421052   2.969   6.791   6.926  0.2343  0.0288  0.0121
  184SOPE   H4R21053   2.905   6.706   6.959  0.0149  0.2786  0.2386
  184SOPE   H4S21054   3.076   6.762   6.916  0.1914  0.5236 -2.5430
  184SOPE   C2521055   2.955   6.900   7.033 -0.0429 -0.0639 -0.1458
  184SOPE   H5R21056   3.014   6.985   6.993  1.8794 -1.1999  0.1147
  184SOPE   H5S21057   2.847   6.922   7.042  0.0784  0.8119 -0.7607
  184SOPE   C2621058   3.018   6.860   7.171  0.0015  0.2010 -0.1204
  184SOPE   H6R21059   2.967   6.763   7.189  1.0095 -0.2142  0.6434
  184SOPE   H6S21060   3.127   6.840   7.157  0.8017  2.1039  2.4606
  184SOPE   C2721061   2.991   6.961   7.288 -0.3355  0.4799  0.3647
  184SOPE   H7R21062   3.066   7.042   7.287 -1.2967  1.3980 -0.8180
  184SOPE   H7S21063   2.890   7.007   7.277 -0.1261  1.3231  1.7553
  184SOPE   C2821064   2.991   6.906   7.429 -0.4267 -0.1244  0.1349
  184SOPE   H8R21065   2.946   6.984   7.494 -1.0032 -1.3189  1.2068
  184SOPE   H8S21066   2.931   6.813   7.439  1.1597 -1.1457  0.6968
  184SOPE   C2921067   3.127   6.874   7.491 -0.4183 -0.2496  0.5474
  184SOPE   H9121068   3.165   6.787   7.436 -1.2406 -0.6338  0.5690
  184SOPE  C21021069   3.200   6.946   7.585  0.1492 -0.6269  0.7340
  184SOPE  H10121070   3.301   6.904   7.600  1.0062  0.5014 -1.3902
  184SOPE  C21121071   3.157   7.078   7.646  0.1013 -0.4455  0.1271
  184SOPE  H11R21072   3.090   7.137   7.580 -0.0109 -0.8264 -0.1029
  184SOPE  H11S21073   3.248   7.140   7.659 -0.4660  0.2098  1.1582
  184SOPE  C21221074   3.068   7.064   7.768 -0.7809 -0.0603 -0.0984
  184SOPE  H12R21075   2.975   7.016   7.731 -0.6871 -2.0766  2.0332
  184SOPE  H12S21076   3.056   7.168   7.805  0.0597  0.0169 -0.0073
  184SOPE  C21321077   3.113   6.970   7.883 -0.7734 -0.3485  0.0920
  184SOPE  H13R21078   3.215   6.998   7.916 -0.8253 -1.0746  0.8982
  184SOPE  H13S21079   3.127   6.863   7.855  3.3540  0.0996 -0.1475
  184SOPE  C21421080   3.035   6.981   8.003  0.4116 -0.9071 -0.1489
  184SOPE  H14R21081   2.927   6.958   7.991 -0.0046  0.3246  0.8947
  184SOPE  H14S21082   3.041   7.089   8.029  3.1822 -1.1403  0.5342
  184SOPE  C21521083   3.100   6.910   8.128  0.1639  0.1165 -0.1770
  184SOPE  H15R21084   3.152   6.813   8.110 -0.5450 -0.5449  1.1814
  184SOPE  H15S21085   3.017   6.885   8.197  0.6469 -0.3522  0.2494
  184SOPE  C21621086   3.206   6.998   8.200  0.0528  0.0818  0.1381
  184SOPE  H16R21087   3.147   7.090   8.217 -2.0823 -1.2830  0.5130
  184SOPE  H16S21088   3.298   7.011   8.138  2.6712 -1.2204  3.4309
  184SOPE  C21721089   3.250   6.949   8.338  0.4184 -0.7359  0.3707
  184SOPE  H17R21090   3.322   6.865   8.338  2.9194  1.2832 -0.2067
  184SOPE  H17S21091   3.149   6.918   8.373 -0.1144  0.3770 -0.1448
  184SOPE  C21821092   3.317   7.059   8.423  0.0105  0.1603 -0.2164
  184SOPE  H18R21093   3.250   7.142   8.452  1.2762  0.8255  0.9333
  184SOPE  H18S21094   3.397   7.116   8.370  0.8716  0.2230  1.0946
  184SOPE  H18T21095   3.352   7.020   8.521  0.4599  0.1997 -0.3589
  184SOPE   C3321096   2.204   7.178   6.738 -0.0056  0.2781 -0.7270
  184SOPE   H3X21097   2.120   7.234   6.785  0.6406  0.2555  0.4847
  184SOPE   H3Y21098   2.243   7.231   6.648  0.5156  2.2396  0.6010
  184SOPE   C3421099   2.329   7.176   6.831 -0.4935  0.5779 -0.4642
  184SOPE   H4X21100   2.364   7.280   6.845  1.5362 -0.3159  1.6148
  184SOPE   H4Y21101   2.406   7.117   6.777 -1.7093 -2.3476  0.8285
  184SOPE   C3521102   2.301   7.113   6.969  0.9656 -0.0766 -0.5838
  184SOPE   H5X21103   2.406   7.096   7.003  0.5028  2.4329  2.5057
  184SOPE   H5Y21104   2.251   7.014   6.958  2.1363 -1.0940  2.3001
  184SOPE   C3621105   2.249   7.195   7.085  0.1304 -0.2131  0.7111
  184SOPE   H6X21106   2.141   7.206   7.061  0.3565  0.3437 -0.0649
  184SOPE   H6Y21107   2.294   7.296   7.092  0.2028 -0.0938 -1.1349
  184SOPE   C3721108   2.254   7.120   7.216  0.5231 -0.5051  0.5019
  184SOPE   H7X21109   2.353   7.098   7.259  0.3115 -1.8070  0.3576
  184SOPE   H7Y21110   2.208   7.020   7.202  0.2127 -0.4293  0.9504
  184SOPE   C3821111   2.188   7.203   7.320 -0.3237  0.3148 -0.3575
  184SOPE   H8X21112   2.080   7.204   7.294 -0.9562  2.3304  1.8887
  184SOPE   H8Y21113   2.239   7.301   7.331  1.6170 -0.7454  0.5826
  184SOPE   C3921114   2.193   7.114   7.454  0.6398  0.0489 -0.2425
  184SOPE   H9X21115   2.297   7.081   7.476  1.4160  3.6470  2.4763
  184SOPE   H9Y21116   2.124   7.030   7.433  0.6997 -0.0648  0.0122
  184SOPE  C31021117   2.151   7.196   7.573 -0.0457  0.1859  0.1828
  184SOPE  H10X21118   2.073   7.272   7.548 -0.0630  0.0282 -0.2367
  184SOPE  H10Y21119   2.237   7.243   7.626 -0.0183  2.4567 -1.7301
  184SOPE  C31121120   2.072   7.104   7.668  0.9724 -0.2055 -0.8088
  184SOPE  H11X21121   2.141   7.021   7.695 -0.1529 -1.3436 -1.3301
  184SOPE  H11Y21122   1.975   7.074   7.624  0.4359  0.4308 -0.0737
  184SOPE  C31221123   2.030   7.166   7.805  0.4286 -0.0777  0.8039
  184SOPE  H12X21124   1.955   7.248   7.795  0.5566  0.0678  1.0222
  184SOPE  H12Y21125   2.127   7.217   7.826  0.9811  0.4601 -2.5110
  184SOPE  C31321126   1.991   7.073   7.915 -0.3903  0.4415  0.1804
  184SOPE  H13X21127   1.951   7.130   8.001 -1.1407 -1.2942  1.0176
  184SOPE  H13Y21128   2.087   7.023   7.941  0.4242  2.1803  0.6609
  184SOPE  C31421129   1.895   6.956   7.873 -0.4987  0.4470  0.5222
  184SOPE  H14X21130   1.952   6.912   7.789 -0.0733  2.2542 -0.1915
  184SOPE  H14Y21131   1.794   6.997   7.852 -0.5049 -0.7453 -2.2297
  184SOPE  C31521132   1.878   6.856   7.982  0.6024  0.3137 -0.1642
  184SOPE  H15X21133   1.954   6.870   8.061 -0.7355  0.0850  1.1992
  184SOPE  H15Y21134   1.889   6.750   7.950  1.3481 -0.7536  3.3010
  184SOPE  C31621135   1.743   6.876   8.044  0.4916 -0.2399 -0.0739
  184SOPE  H16X21136   1.664   6.852   7.969  0.2756 -1.3397  0.4756
  184SOPE  H16Y21137   1.733   6.981   8.078  1.5159 -0.5971  1.4562
  184SOPE  C31721138   1.715   6.789   8.168 -0.9534 -0.3129  0.3151
  184SOPE  H17X21139   1.768   6.693   8.150  1.7731  1.0126  0.7124
  184SOPE  H17Y21140   1.605   6.783   8.185 -1.0515  1.0412  0.2223
  184SOPE  C31821141   1.772   6.851   8.298  0.0974  0.2738  0.2840
  184SOPE  H18X21142   1.750   6.785   8.384 -0.5394  1.3518  0.9744
  184SOPE  H18Y21143   1.728   6.953   8.300 -1.6820 -0.3900 -1.4498
  184SOPE  H18Z21144   1.881   6.867   8.282 -0.3943  1.7064 -2.1581
  185SAPI   C1221145   3.399   3.990  10.954  0.2149 -0.5692  0.1787
  185SAPI    H221146   3.300   3.952  10.920 -0.2100 -0.3337  1.0902
  185SAPI    O221147   3.438   4.093  10.862 -1.0074 -0.2231 -0.2559
  185SAPI   HO221148   3.388   4.174  10.877  2.4289  1.9601  0.6871
  185SAPI   C1321149   3.375   4.048  11.087  0.2681 -0.4982  0.0310
  185SAPI    H321150   3.335   3.973  11.158 -0.8106  0.5012  0.5098
  185SAPI    O321151   3.283   4.159  11.080 -0.0025 -0.1388 -0.0765
  185SAPI   HO321152   3.191   4.130  11.076 -0.2053  0.1117  2.1037
  185SAPI   C1421153   3.511   4.091  11.153 -0.3761 -0.5968  0.4919
  185SAPI    H421154   3.554   4.163  11.080  0.3599  0.5566  2.0080
  185SAPI    O421155   3.506   4.170  11.276 -0.1586 -0.4647  0.2543
  185SAPI   HO421156   3.417   4.206  11.288 -0.1181  1.1419 -3.0934
  185SAPI   C1521157   3.604   3.969  11.166 -0.8942  0.1509  0.1903
  185SAPI    H521158   3.544   3.896  11.224 -0.2401  0.1375  0.8822
  185SAPI    O521159   3.728   4.006  11.239  0.1282 -0.4018 -0.1082
  185SAPI   HO521160   3.709   4.041  11.326  2.7105 -0.2583  0.4744
  185SAPI   C1621161   3.622   3.900  11.021  0.3132  0.0244 -0.6265
  185SAPI    H621162   3.666   3.969  10.946 -0.5399  0.9385 -0.3171
  185SAPI    O621163   3.698   3.781  11.034 -0.1085 -0.4566 -0.3138
  185SAPI   HO621164   3.734   3.751  10.950  0.5708 -1.9476  0.4788
  185SAPI   C1121165   3.486   3.866  10.958  0.6349 -0.6433  0.5167
  185SAPI    H121166   3.440   3.788  11.023 -0.3126 -1.7072 -1.3390
  185SAPI     P21167   3.410   3.702  10.758  0.0987 -0.0047  0.1611
  185SAPI   O1321168   3.386   3.588  10.845 -0.5876  0.3230 -0.3401
  185SAPI   O1421169   3.465   3.673  10.628  0.2762 -0.1828 -0.2826
  185SAPI   O1221170   3.509   3.814  10.830 -0.8875  0.5120  0.9587
  185SAPI   O1121171   3.271   3.778  10.738  0.0612  0.1147 -0.0593
  185SAPI    C121172   3.265   3.875  10.633 -0.3380  0.1195 -0.3511
  185SAPI    HA21173   3.313   3.973  10.651  1.8518 -0.4913 -2.3299
  185SAPI    HB21174   3.296   3.846  10.530 -1.8081 -0.3452 -0.7003
  185SAPI    C221175   3.115   3.921  10.609 -0.8141  0.4399  0.6311
  185SAPI    HS21176   3.086   3.959  10.709  3.1534  2.8251  1.0837
  185SAPI   O2121177   3.040   3.799  10.579 -0.0216 -0.6997 -0.3794
  185SAPI   C2121178   2.903   3.811  10.578 -0.6019  0.2190  0.5867
  185SAPI   O2221179   2.836   3.896  10.628 -0.3370  0.3261 -0.1271
  185SAPI   C2221180   2.856   3.683  10.516  0.7293  0.4670 -0.1321
  185SAPI   H2R21181   2.920   3.648  10.432  1.5098 -1.8181  1.3293
  185SAPI   H2S21182   2.860   3.601  10.590  0.0995 -0.4860 -1.1201
  185SAPI    C321183   3.096   4.025  10.498 -0.0548 -0.2998  0.1560
  185SAPI    HX21184   3.175   4.098  10.525  1.8124 -1.4951 -1.7939
  185SAPI    HY21185   2.994   4.070  10.504  0.7881  1.5346  3.1553
  185SAPI   O3121186   3.144   3.982  10.369  0.3238  0.5064 -0.3866
  185SAPI   C3121187   3.057   3.937  10.287  0.3712 -0.8779  0.9113
  185SAPI   O3221188   2.938   3.918  10.303  0.1954  0.9087  0.3361
  185SAPI   C3221189   3.127   3.917  10.153  0.3953  0.3347 -0.6076
  185SAPI   H2X21190   3.207   3.844  10.176 -1.4390 -0.9474  2.1940
  185SAPI   H2Y21191   3.162   4.017  10.120 -0.7326  0.8145 -0.3868
  185SAPI   C2321192   2.711   3.693  10.461 -0.6927  0.1843 -0.6689
  185SAPI   H3R21193   2.709   3.724  10.354 -2.0077 -3.0025 -1.7069
  185SAPI   H3S21194   2.639   3.761  10.510 -2.0278 -0.5990 -1.4592
  185SAPI   C2421195   2.642   3.553  10.462  0.1958  0.8137  0.6648
  185SAPI   H4R21196   2.559   3.550  10.389 -1.7348  1.4486  2.7284
  185SAPI   H4S21197   2.584   3.534  10.555 -1.7434 -1.1399 -0.8229
  185SAPI   C2521198   2.725   3.431  10.433 -0.8143  0.6204 -0.7242
  185SAPI   H5R21199   2.710   3.360  10.516  0.2753 -0.7605 -1.6539
  185SAPI   C2621200   2.792   3.388  10.324 -0.8804 -0.3833 -0.0004
  185SAPI   H6R21201   2.841   3.289  10.326 -0.7107 -0.2957  1.1673
  185SAPI   C2721202   2.800   3.468  10.199 -0.4096 -0.4825 -0.0656
  185SAPI   H7R21203   2.896   3.522  10.216  1.0365 -2.1673 -2.1909
  185SAPI   H7S21204   2.732   3.555  10.193  1.5026  1.0750 -0.2294
  185SAPI   C2821205   2.803   3.395  10.072 -0.3286  0.2618  0.9481
  185SAPI   H8R21206   2.880   3.316  10.073 -1.3619 -0.8945 -1.3777
  185SAPI   C2921207   2.717   3.398   9.968 -0.5764 -0.0255  0.2824
  185SAPI   H9R21208   2.735   3.317   9.896  0.7083 -2.3498  3.0309
  185SAPI  C21021209   2.588   3.477   9.958  0.8376 -0.4336 -0.7049
  185SAPI  H10R21210   2.579   3.542   9.868  0.5788  0.8614  0.2183
  185SAPI  H10S21211   2.571   3.552  10.039  0.4192 -1.5997  0.3128
  185SAPI  C21121212   2.473   3.389   9.979  0.1354 -0.7878 -0.2382
  185SAPI  H11R21213   2.447   3.371  10.084 -1.8076  2.8637  0.0910
  185SAPI  C21221214   2.393   3.332   9.884 -0.6139 -0.2667  0.4867
  185SAPI  H12R21215   2.315   3.266   9.924 -2.7736  1.4466 -0.7054
  185SAPI  C21321216   2.401   3.348   9.734  0.6521 -0.0629  0.0415
  185SAPI  H13R21217   2.509   3.357   9.708  0.9947  1.3010  1.7447
  185SAPI  H13S21218   2.343   3.439   9.708  1.4164  0.0701 -1.2891
  185SAPI  C21421219   2.347   3.227   9.653 -0.2635  0.1795 -0.2161
  185SAPI  H14R21220   2.290   3.152   9.711 -2.2199  1.2805 -0.6260
  185SAPI  C21521221   2.337   3.209   9.521 -0.1112 -0.3040  0.0627
  185SAPI  H15R21222   2.302   3.111   9.488  0.5331 -0.4505 -0.2019
  185SAPI  C21621223   2.388   3.309   9.416  0.1695 -0.9242 -0.2596
  185SAPI  H16R21224   2.489   3.345   9.445  0.6547 -2.7575  0.4328
  185SAPI  H16S21225   2.319   3.397   9.422 -0.2097 -1.2782  1.1469
  185SAPI  C21721226   2.398   3.250   9.272 -0.2972  0.3743  0.2222
  185SAPI  H17R21227   2.474   3.171   9.256  0.4147  1.6062 -3.2958
  185SAPI  H17S21228   2.438   3.329   9.204 -2.3135 -1.1595 -2.9552
  185SAPI  C21821229   2.258   3.198   9.222  0.0218  0.3018 -0.6830
  185SAPI  H18R21230   2.189   3.253   9.290  0.6964 -0.1753  0.4220
  185SAPI  H18S21231   2.252   3.091   9.251  1.9199  0.8459  2.0551
  185SAPI  C21921232   2.237   3.237   9.080 -0.7029 -0.1399 -0.6367
  185SAPI  H19R21233   2.181   3.150   9.039  1.0903 -0.8498 -1.6909
  185SAPI  H19S21234   2.332   3.250   9.024  0.4484 -0.7787  1.1049
  185SAPI  C22021235   2.169   3.362   9.062  0.2337  0.5318  0.6988
  185SAPI  H20R21236   2.123   3.389   9.159 -1.4432 -2.3172  0.8124
  185SAPI  H20S21237   2.083   3.374   8.993  1.2019  2.3935 -0.2594
  185SAPI  H20T21238   2.236   3.441   9.021  1.1006 -1.0737 -1.1802
  185SAPI   C3321239   3.022   3.857  10.058  0.8104  0.4031  0.2448
  185SAPI   H3X21240   2.924   3.905  10.081  0.7418 -0.1935  1.2584
  185SAPI   H3Y21241   3.004   3.749  10.077 -0.5660  0.6515  0.4921
  185SAPI   C3421242   3.056   3.883   9.911 -0.2763  0.1927 -1.0706
  185SAPI   H4X21243   3.155   3.835   9.893 -0.1355  1.0371 -2.7636
  185SAPI   H4Y21244   3.051   3.993   9.897  0.7768  0.4908  0.5662
  185SAPI   C3521245   2.959   3.809   9.818 -0.2203 -0.6385 -0.0714
  185SAPI   H5X21246   2.859   3.854   9.832 -0.1313 -0.0900 -1.0761
  185SAPI   H5Y21247   2.958   3.704   9.856 -1.4035 -0.1436  1.3241
  185SAPI   C3621248   3.021   3.827   9.681 -0.1045  0.2833  0.5373
  185SAPI   H6X21249   3.099   3.751   9.659 -1.4156 -0.5023 -1.7516
  185SAPI   H6Y21250   3.069   3.927   9.677 -3.5171  2.0409 -1.9973
  185SAPI   C3721251   2.909   3.805   9.577  0.5357  0.5284 -0.5977
  185SAPI   H7X21252   2.843   3.894   9.578  1.2259  1.1507 -3.0265
  185SAPI   H7Y21253   2.851   3.715   9.606 -1.8372  1.9653 -0.7081
  185SAPI   C3821254   2.958   3.780   9.434 -0.2868  0.0320  0.4762
  185SAPI   H8X21255   3.028   3.694   9.441  0.1427  0.5095  3.0919
  185SAPI   H8Y21256   3.014   3.871   9.402  0.2520 -0.9375 -1.4790
  185SAPI   C3921257   2.835   3.767   9.342  0.2995 -0.0815  0.1682
  185SAPI   H9X21258   2.778   3.863   9.343 -0.3533 -0.4532  1.4747
  185SAPI   H9Y21259   2.774   3.686   9.387  0.5298  1.7586  4.3097
  185SAPI  C31021260   2.872   3.728   9.206 -0.4971  0.7606 -0.7028
  185SAPI  H10X21261   2.925   3.631   9.203  1.9186  1.9160  1.2781
  185SAPI  H10Y21262   2.941   3.808   9.172  0.8473 -0.4257 -0.8408
  185SAPI  C31121263   2.746   3.723   9.122 -1.1986  1.0266 -0.7118
  185SAPI  H11X21264   2.687   3.814   9.147  0.6369  1.7053  1.5675
  185SAPI  H11Y21265   2.689   3.632   9.148  1.0933  0.0846  1.3951
  185SAPI  C31221266   2.778   3.719   8.974  0.5799 -0.1659  0.0202
  185SAPI  H12X21267   2.831   3.622   8.959  1.8091  0.3521  0.8894
  185SAPI  H12Y21268   2.838   3.808   8.948 -0.0685  0.3056  0.1043
  185SAPI  C31321269   2.652   3.706   8.884 -0.2087 -0.2669  1.0780
  185SAPI  H13X21270   2.686   3.679   8.782  1.1577 -0.6026  1.6108
  185SAPI  H13Y21271   2.602   3.805   8.870 -2.1653 -1.4881 -1.2461
  185SAPI  C31421272   2.536   3.615   8.930  0.2715 -0.4847 -0.2909
  185SAPI  H14X21273   2.480   3.688   8.993  1.4039  1.7849 -1.7620
  185SAPI  H14Y21274   2.566   3.525   8.989  1.9170  1.1141  1.4972
  185SAPI  C31521275   2.433   3.568   8.823  0.2654  0.4696  0.2012
  185SAPI  H15X21276   2.364   3.492   8.864  1.7660  0.2051  2.3824
  185SAPI  H15Y21277   2.490   3.518   8.741  0.8231  0.9221  0.3052
  185SAPI  C31621278   2.361   3.678   8.743  0.1749 -0.8398  0.4111
  185SAPI  H16X21279   2.438   3.732   8.684  0.8722  1.4882  3.1891
  185SAPI  H16Y21280   2.333   3.749   8.824 -0.6778 -0.3015 -0.3233
  185SAPI  C31721281   2.240   3.621   8.662  0.1583 -0.0519 -0.3840
  185SAPI  H17X21282   2.206   3.702   8.594  1.6053  0.3248 -0.7010
  185SAPI  H17Y21283   2.163   3.607   8.740  1.0013  1.3090  0.7442
  185SAPI  C31821284   2.266   3.485   8.586 -0.2754  0.2341  0.1398
  185SAPI  H18X21285   2.285   3.405   8.661 -1.6768 -0.7036 -0.4628
  185SAPI  H18Y21286   2.357   3.498   8.524  0.7506 -1.9631  1.0853
  185SAPI  H18Z21287   2.185   3.452   8.518 -0.8339  1.0843  0.3757
  186SAPI   C1221288   3.519   1.562  10.802 -0.4205 -0.1969 -0.5432
  186SAPI    H221289   3.445   1.566  10.719  0.7237  3.7109 -1.5941
  186SAPI    O221290   3.449   1.632  10.906  0.1722  0.8856 -0.2852
  186SAPI   HO221291   3.447   1.727  10.895  0.8629  1.5110  3.6353
  186SAPI   C1321292   3.538   1.414  10.846 -0.3399  0.0385 -0.4716
  186SAPI    H321293   3.593   1.361  10.766 -0.1274 -2.3294  1.1355
  186SAPI    O321294   3.413   1.337  10.866 -0.0525 -0.0226 -0.1918
  186SAPI   HO321295   3.401   1.264  10.804 -1.5589  0.5642 -0.6304
  186SAPI   C1421296   3.625   1.411  10.972 -0.1570  0.4702 -0.0263
  186SAPI    H421297   3.572   1.475  11.046  0.1471  0.3588  0.2896
  186SAPI    O421298   3.649   1.280  11.030 -0.0103  0.3836 -0.0766
  186SAPI   HO421299   3.710   1.272  11.103 -0.5359 -1.7285  0.1758
  186SAPI   C1521300   3.752   1.490  10.926 -0.5314 -0.0116 -0.0231
  186SAPI    H521301   3.790   1.427  10.843 -2.8542 -1.5706  0.0108
  186SAPI    O521302   3.856   1.487  11.024 -0.1442  0.0790 -0.6982
  186SAPI   HO521303   3.934   1.435  11.007 -0.6204 -1.3378  1.1423
  186SAPI   C1621304   3.739   1.636  10.876 -0.2719  0.0612  0.0020
  186SAPI    H621305   3.717   1.705  10.960  1.6298 -0.4163  0.9236
  186SAPI    O621306   3.863   1.685  10.829 -0.2948 -0.0839  0.2711
  186SAPI   HO621307   3.851   1.743  10.753  2.2193  0.8569  0.5054
  186SAPI   C1121308   3.637   1.639  10.758 -0.1815  0.5807  0.2845
  186SAPI    H121309   3.678   1.576  10.676 -1.0441  0.6341 -0.1948
  186SAPI     P21310   3.682   1.852  10.596 -0.3151 -0.2701  0.6845
  186SAPI   O1321311   3.824   1.865  10.629 -0.4700 -0.6814  0.0549
  186SAPI   O1421312   3.613   1.982  10.571  0.0901 -0.4552  0.3812
  186SAPI   O1221313   3.599   1.773  10.715  0.1497  0.5435  0.7389
  186SAPI   O1121314   3.673   1.749  10.475 -0.3951 -0.4854 -0.2593
  186SAPI    C121315   3.551   1.743  10.403 -0.7075  0.7963  0.1954
  186SAPI    HA21316   3.475   1.800  10.461  1.0937  0.4793  3.0775
  186SAPI    HB21317   3.560   1.786  10.300  2.1193  0.1773  0.0913
  186SAPI    C221318   3.507   1.590  10.394 -0.3639 -0.7188 -0.4394
  186SAPI    HS21319   3.482   1.575  10.501 -0.4369  2.5425  0.1176
  186SAPI   O2121320   3.618   1.502  10.349  0.4138  0.2667 -0.3854
  186SAPI   C2121321   3.609   1.386  10.394  0.5569  0.4266 -0.1294
  186SAPI   O2221322   3.522   1.337  10.467 -0.0497 -0.2768  0.0661
  186SAPI   C2221323   3.731   1.301  10.342  0.3690 -0.0479 -0.3916
  186SAPI   H2R21324   3.693   1.216  10.283 -1.4518  0.1972  0.3727
  186SAPI   H2S21325   3.791   1.373  10.282  0.3767  1.3824  1.2269
  186SAPI    C321326   3.383   1.570  10.301  0.0822 -0.0409 -0.1735
  186SAPI    HX21327   3.302   1.634  10.343  0.8706 -0.3688  1.9527
  186SAPI    HY21328   3.341   1.468  10.314  1.2351 -0.7728 -1.9687
  186SAPI   O3121329   3.410   1.605  10.165 -0.2535 -0.4132  0.5576
  186SAPI   C3121330   3.423   1.521  10.069  0.8132 -0.0456 -0.2433
  186SAPI   O3221331   3.404   1.399  10.080 -0.0288 -0.3510  0.0689
  186SAPI   C3221332   3.477   1.598   9.947  0.5024  0.1734 -0.0186
  186SAPI   H2X21333   3.584   1.622   9.964  0.3866  0.0666  0.8997
  186SAPI   H2Y21334   3.423   1.696   9.950  0.1739 -0.0287  2.0192
  186SAPI   C2321335   3.809   1.259  10.471  0.2076  0.1707 -0.2836
  186SAPI   H3R21336   3.742   1.184  10.518  1.7124 -1.6803 -0.9412
  186SAPI   H3S21337   3.831   1.339  10.545 -0.1771 -1.3728  1.5852
  186SAPI   C2421338   3.941   1.175  10.449 -0.0518 -0.0434  1.0127
  186SAPI   H4R21339   3.926   1.091  10.378  1.7997 -0.3022  0.8735
  186SAPI   H4S21340   3.959   1.129  10.549 -1.8182  0.7177  1.7139
  186SAPI   C2521341   4.058   1.251  10.392  0.0790  0.1482 -0.3738
  186SAPI   H5R21342   4.114   1.297  10.475  1.0042 -1.4423 -0.0755
  186SAPI   C2621343   4.110   1.255  10.266  0.2121  0.2748 -0.3784
  186SAPI   H6R21344   4.195   1.321  10.245  0.5589 -0.3926 -1.1120
  186SAPI   C2721345   4.043   1.199  10.141  0.3728  0.3171 -0.4100
  186SAPI   H7R21346   4.016   1.276  10.066  2.2847 -0.6066 -2.1612
  186SAPI   H7S21347   3.942   1.165  10.173 -0.6966  0.2418 -3.5772
  186SAPI   C2821348   4.113   1.081  10.082  0.0733  0.4218 -0.5593
  186SAPI   H8R21349   4.169   1.020  10.154  1.6795  1.6338 -0.7424
  186SAPI   C2921350   4.135   1.058   9.949  0.4679  0.0159 -0.7332
  186SAPI   H9R21351   4.188   0.968   9.915 -1.4642 -1.6556  0.4200
  186SAPI  C21021352   4.090   1.143   9.831  0.2273 -0.2982  0.5946
  186SAPI  H10R21353   4.162   1.140   9.747 -1.2585 -1.2377 -0.6975
  186SAPI  H10S21354   4.096   1.248   9.865  0.3956 -0.5632  1.4010
  186SAPI  C21121355   3.950   1.123   9.780 -0.7675 -0.5636  0.2104
  186SAPI  H11R21356   3.877   1.115   9.862  0.6719 -1.6440  1.4350
  186SAPI  C21221357   3.908   1.098   9.656 -0.4342  0.7600  0.3460
  186SAPI  H12R21358   3.808   1.056   9.636  0.2591 -0.6507 -0.2798
  186SAPI  C21321359   3.995   1.088   9.538 -0.6450 -0.0769  0.7997
  186SAPI  H13R21360   4.100   1.124   9.551  0.4424 -1.7415 -2.3040
  186SAPI  H13S21361   3.955   1.159   9.463  1.5004 -1.3736 -1.7470
  186SAPI  C21421362   4.004   0.946   9.481 -0.0535  0.2208 -0.7029
  186SAPI  H14R21363   4.053   0.878   9.553  1.3389  2.3127  0.4338
  186SAPI  C21521364   3.964   0.903   9.365 -0.6463 -1.1247  0.1364
  186SAPI  H15R21365   3.954   0.795   9.343 -0.3467 -0.4920 -3.7637
  186SAPI  C21621366   3.899   0.982   9.256  0.3257 -0.0003 -0.1769
  186SAPI  H16R21367   3.862   1.084   9.279 -0.1580 -0.2300  0.0792
  186SAPI  H16S21368   3.806   0.928   9.228 -1.8975  3.3562  0.2822
  186SAPI  C21721369   3.988   0.985   9.122 -0.6201 -0.3770  0.0642
  186SAPI  H17R21370   3.923   1.035   9.047  0.1847  0.3068 -0.1971
  186SAPI  H17S21371   3.994   0.881   9.084 -0.2328  0.1542 -1.3552
  186SAPI  C21821372   4.117   1.062   9.132 -1.3708  0.7116 -0.1848
  186SAPI  H18R21373   4.181   0.990   9.189 -0.8426  1.8822  0.7466
  186SAPI  H18S21374   4.117   1.151   9.198 -2.7252 -0.4050  1.3985
  186SAPI  C21921375   4.176   1.093   8.992 -0.1351  0.5841  0.6172
  186SAPI  H19R21376   4.272   1.149   8.993  0.1125  0.1850 -0.3665
  186SAPI  H19S21377   4.108   1.159   8.934  2.8928  1.2976 -2.4452
  186SAPI  C22021378   4.184   0.971   8.888  0.5398 -0.5207  0.2733
  186SAPI  H20R21379   4.088   0.942   8.841  0.3006 -2.3612  1.7826
  186SAPI  H20S21380   4.235   0.881   8.930  1.2118 -0.4923 -0.4666
  186SAPI  H20T21381   4.254   0.999   8.806 -0.6756  0.9466 -0.3065
  186SAPI   C3321382   3.466   1.521   9.821  0.4428  0.2067  0.2129
  186SAPI   H3X21383   3.359   1.489   9.815  0.4267 -0.0411  1.5293
  186SAPI   H3Y21384   3.540   1.439   9.818 -1.2371 -1.3616 -1.0450
  186SAPI   C3421385   3.489   1.610   9.708 -0.3084  0.6034  0.3277
  186SAPI   H4X21386   3.580   1.673   9.715 -1.0919  1.7738  0.2398
  186SAPI   H4Y21387   3.406   1.684   9.702 -2.1268 -1.0500  2.7439
  186SAPI   C3521388   3.486   1.525   9.580  0.0101 -0.4877 -0.7100
  186SAPI   H5X21389   3.389   1.472   9.586  0.0896 -0.7582 -1.7072
  186SAPI   H5Y21390   3.565   1.447   9.577  1.5468  0.8839  1.2055
  186SAPI   C3621391   3.494   1.621   9.459 -0.0161  0.2321  0.5975
  186SAPI   H6X21392   3.592   1.673   9.458 -0.5708  1.3199 -0.3981
  186SAPI   H6Y21393   3.417   1.699   9.475  1.9386  2.5710 -0.7244
  186SAPI   C3721394   3.473   1.553   9.318  0.1430  0.2755 -0.2505
  186SAPI   H7X21395   3.496   1.634   9.246 -0.6860 -0.4301 -1.3355
  186SAPI   H7Y21396   3.365   1.536   9.299  0.5694 -2.6576 -0.5569
  186SAPI   C3821397   3.558   1.430   9.282  0.8931 -0.4760  0.3116
  186SAPI   H8X21398   3.543   1.343   9.351  1.6602 -0.9133 -0.0568
  186SAPI   H8Y21399   3.664   1.462   9.288  0.4099  1.0860  1.1854
  186SAPI   C3921400   3.507   1.374   9.140  0.3591  0.5605 -0.5381
  186SAPI   H9X21401   3.486   1.465   9.080 -1.4010  0.6281  0.1125
  186SAPI   H9Y21402   3.409   1.323   9.155  0.1162  1.1861  0.1045
  186SAPI  C31021403   3.605   1.278   9.073 -0.1030 -0.5109  0.0310
  186SAPI  H10X21404   3.620   1.188   9.138  0.0996  0.4055  1.3034
  186SAPI  H10Y21405   3.699   1.336   9.076 -0.7542  0.5528  1.6283
  186SAPI  C31121406   3.561   1.244   8.931  0.5193  0.5164  0.5022
  186SAPI  H11X21407   3.535   1.332   8.869 -0.2321 -1.2913 -1.8667
  186SAPI  H11Y21408   3.480   1.169   8.932  2.1725 -1.3702 -0.7011
  186SAPI  C31221409   3.679   1.173   8.866  0.5739  0.4624 -0.4157
  186SAPI  H12X21410   3.742   1.125   8.945  1.3758  1.0386 -0.6861
  186SAPI  H12Y21411   3.747   1.242   8.812 -0.8684  0.3604 -2.4507
  186SAPI  C31321412   3.633   1.084   8.749  0.2913  0.0435  0.3032
  186SAPI  H13X21413   3.624   1.144   8.656  0.5465 -1.0899 -0.4683
  186SAPI  H13Y21414   3.536   1.033   8.768 -1.1857  3.1741  1.9801
  186SAPI  C31421415   3.729   0.965   8.733 -0.5714  0.0245  0.2928
  186SAPI  H14X21416   3.724   0.901   8.823  0.6283 -0.3439  0.1163
  186SAPI  H14Y21417   3.834   1.002   8.733  0.0737 -1.5887  2.9936
  186SAPI  C31521418   3.698   0.882   8.603 -0.0008  0.6460 -0.6092
  186SAPI  H15X21419   3.790   0.821   8.592  0.1352  0.6025  0.6193
  186SAPI  H15Y21420   3.687   0.947   8.514 -2.0667  1.5433  0.2410
  186SAPI  C31621421   3.586   0.780   8.633 -0.5654 -0.0627  0.3982
  186SAPI  H16X21422   3.497   0.846   8.626 -0.7332 -0.1190  1.8040
  186SAPI  H16Y21423   3.611   0.751   8.737  1.6331 -2.1389 -0.5937
  186SAPI  C31721424   3.589   0.651   8.552  0.3628 -0.1611 -0.2617
  186SAPI  H17X21425   3.691   0.607   8.553 -1.5101 -5.2195 -0.0866
  186SAPI  H17Y21426   3.551   0.672   8.449 -1.1158  0.6023  0.4057
  186SAPI  C31821427   3.494   0.533   8.601 -0.6137 -0.1244  0.5129
  186SAPI  H18X21428   3.517   0.451   8.530 -0.4226 -0.8106  1.3561
  186SAPI  H18Y21429   3.389   0.570   8.600 -0.7244 -0.4380  0.3277
  186SAPI  H18Z21430   3.519   0.500   8.704 -1.4652 -0.8581  0.4969
  187SAPI   C1221431   4.053   2.930   6.445  0.0723  0.1171 -0.3202
  187SAPI    H221432   4.060   2.824   6.479 -2.0836 -0.0767 -0.3839
  187SAPI    O221433   3.968   2.999   6.533 -0.3814 -0.1354  0.1655
  187SAPI   HO221434   3.877   2.981   6.508 -0.9161 -0.5525  2.2183
  187SAPI   C1321435   4.199   2.979   6.466 -0.6839  0.1056  1.0038
  187SAPI    H321436   4.260   2.911   6.402 -1.7354 -0.6107  0.7434
  187SAPI    O321437   4.243   2.964   6.597  0.2343  0.6278 -0.2359
  187SAPI   HO321438   4.198   3.024   6.657 -0.7620 -1.5672  1.3253
  187SAPI   C1421439   4.216   3.119   6.417 -0.4710 -0.4565  0.5322
  187SAPI    H421440   4.156   3.190   6.479 -1.1703 -0.5692 -0.0041
  187SAPI    O421441   4.354   3.167   6.431 -0.3616 -0.2323 -0.4462
  187SAPI   HO421442   4.346   3.261   6.451 -2.2858 -0.9257  2.8380
  187SAPI   C1521443   4.159   3.129   6.274 -0.9299 -0.3438 -0.1542
  187SAPI    H521444   4.215   3.055   6.212 -0.6070 -0.8223  0.6783
  187SAPI    O521445   4.189   3.259   6.221  0.4466  0.1262 -0.0207
  187SAPI   HO521446   4.284   3.264   6.234  0.5014 -1.3392  0.3096
  187SAPI   C1621447   4.010   3.097   6.268  0.6988  0.5325 -0.3427
  187SAPI    H621448   3.943   3.157   6.334 -1.0672  0.2485 -1.8072
  187SAPI    O621449   3.965   3.114   6.136  0.4809  0.4259 -0.4557
  187SAPI   HO621450   3.870   3.121   6.146  0.5437 -0.5162  1.4244
  187SAPI   C1121451   4.003   2.948   6.307 -0.1150  0.1619  0.7152
  187SAPI    H121452   4.069   2.900   6.232  0.0826 -0.8442  1.5094
  187SAPI     P21453   3.847   2.741   6.283  0.5463  0.0436  0.4135
  187SAPI   O1321454   3.960   2.673   6.221 -0.2861  0.2039 -0.3101
  187SAPI   O1421455   3.722   2.708   6.216  0.2140 -0.4750  0.0171
  187SAPI   O1221456   3.866   2.904   6.293  0.2223 -0.6741  0.3950
  187SAPI   O1121457   3.844   2.700   6.432  0.2980 -0.6573 -0.1118
  187SAPI    C121458   3.730   2.725   6.515  0.2848  0.8168 -0.0232
  187SAPI    HA21459   3.728   2.834   6.532  1.4266  1.0819 -1.3950
  187SAPI    HB21460   3.632   2.700   6.469  1.5333 -0.7591 -1.9812
  187SAPI    C221461   3.735   2.657   6.652 -0.0244  0.3688  0.4368
  187SAPI    HS21462   3.651   2.681   6.721 -0.7803 -1.1279  0.0708
  187SAPI   O2121463   3.859   2.672   6.712 -0.0026 -0.0128 -0.4931
  187SAPI   C2121464   3.879   2.786   6.786  0.5228  0.6512 -0.0528
  187SAPI   O2221465   3.784   2.863   6.816 -0.1982  0.5113 -0.1654
  187SAPI   C2221466   4.022   2.791   6.850 -0.5460 -0.4086 -0.5102
  187SAPI   H2R21467   4.095   2.785   6.767  1.1200 -1.1147  0.9371
  187SAPI   H2S21468   4.031   2.894   6.892 -1.9728 -0.5206  0.1306
  187SAPI    C321469   3.705   2.504   6.641 -0.4131 -0.4307  0.0460
  187SAPI    HX21470   3.776   2.458   6.570 -1.5277  1.7317 -2.6490
  187SAPI    HY21471   3.605   2.497   6.593 -1.2050  0.8954  1.4205
  187SAPI   O3121472   3.701   2.448   6.777  0.4183 -0.6551 -0.0767
  187SAPI   C3121473   3.804   2.365   6.805 -0.5125 -0.5645  0.1530
  187SAPI   O3221474   3.905   2.353   6.737 -0.3782 -0.2270  0.1977
  187SAPI   C3221475   3.780   2.296   6.941  0.0062 -0.5552  0.7934
  187SAPI   H2X21476   3.694   2.230   6.920  0.1408 -0.9136  1.3613
  187SAPI   H2Y21477   3.751   2.380   7.008  1.1525  0.0885  0.5191
  187SAPI   C2321478   4.074   2.681   6.957  0.0107  0.3458  0.2252
  187SAPI   H3R21479   4.165   2.727   7.001  0.8159 -0.6017 -0.3963
  187SAPI   H3S21480   4.101   2.586   6.908 -1.9234  0.8620 -2.0460
  187SAPI   C2421481   3.981   2.675   7.081 -0.2549 -0.2070  0.1342
  187SAPI   H4R21482   4.042   2.613   7.151  0.4677 -1.3191 -1.4241
  187SAPI   H4S21483   3.888   2.623   7.052 -0.8907 -0.9137  3.1400
  187SAPI   C2521484   3.957   2.818   7.138  0.3190  0.1374 -0.7262
  187SAPI   H5R21485   3.915   2.894   7.071 -0.4087 -0.3892 -0.8811
  187SAPI   C2621486   3.966   2.861   7.266 -0.1495 -0.4945 -0.2409
  187SAPI   H6R21487   3.945   2.962   7.307  2.7879  0.4906 -0.9342
  187SAPI   C2721488   4.020   2.787   7.389  0.2017  0.1750  0.1808
  187SAPI   H7R21489   4.059   2.859   7.465 -2.7766  0.7286  1.3157
  187SAPI   H7S21490   4.096   2.710   7.363 -1.9319 -2.1795  0.5665
  187SAPI   C2821491   3.909   2.700   7.449  0.5200 -0.6811 -0.2198
  187SAPI   H8R21492   3.912   2.594   7.419 -1.2920 -0.7456 -0.3322
  187SAPI   C2921493   3.813   2.745   7.533 -0.9948 -0.0573  0.5476
  187SAPI   H9R21494   3.733   2.680   7.571  0.0373 -0.9371  1.3078
  187SAPI  C21021495   3.818   2.890   7.589 -0.3295  0.9255  0.5271
  187SAPI  H10R21496   3.860   2.965   7.518  1.0421  1.3455  1.7507
  187SAPI  H10S21497   3.888   2.894   7.675  2.0442  0.1801 -1.2327
  187SAPI  C21121498   3.679   2.919   7.635 -0.4281 -0.1670  0.7071
  187SAPI  H11R21499   3.610   2.918   7.548  0.9600 -0.1975 -0.4338
  187SAPI  C21221500   3.633   2.950   7.757 -0.9352  0.2446  0.6857
  187SAPI  H12R21501   3.526   2.975   7.765 -1.1933 -0.6771  0.2547
  187SAPI  C21321502   3.722   2.972   7.876 -0.6714  0.4390  0.2029
  187SAPI  H13R21503   3.776   2.878   7.899  1.5434  1.2048 -1.5144
  187SAPI  H13S21504   3.654   2.994   7.961 -0.2797  1.8850  0.1670
  187SAPI  C21421505   3.819   3.082   7.873  0.3485 -0.2777  0.0875
  187SAPI  H14R21506   3.822   3.148   7.785  0.0796  1.4925  1.3426
  187SAPI  C21521507   3.896   3.115   7.972  0.1034  0.0414  0.5352
  187SAPI  H15R21508   3.961   3.203   7.957 -1.0456  0.6761 -0.8971
  187SAPI  C21621509   3.904   3.042   8.100 -0.1365 -0.6447 -0.1723
  187SAPI  H16R21510   4.004   3.056   8.146 -0.3115  1.4463 -0.3213
  187SAPI  H16S21511   3.882   2.933   8.092 -0.6741 -0.6795  1.4500
  187SAPI  C21721512   3.810   3.116   8.192 -0.2008 -0.3126 -0.0671
  187SAPI  H17R21513   3.703   3.088   8.181 -0.5959  1.2997 -0.6636
  187SAPI  H17S21514   3.812   3.227   8.189  0.0018 -0.1750  2.7320
  187SAPI  C21821515   3.844   3.071   8.338  0.5873  0.1346 -0.6295
  187SAPI  H18R21516   3.946   3.109   8.361 -0.9985  4.5797  0.0248
  187SAPI  H18S21517   3.847   2.960   8.349  1.4094  0.1594 -0.5524
  187SAPI  C21921518   3.753   3.131   8.445 -0.3717  0.0899  0.2194
  187SAPI  H19R21519   3.752   3.240   8.423  0.6164 -0.0088 -0.4093
  187SAPI  H19S21520   3.805   3.129   8.544  1.7710  1.8534 -0.7845
  187SAPI  C22021521   3.612   3.080   8.469 -0.2020 -0.0874  0.4563
  187SAPI  H20R21522   3.571   3.068   8.366 -0.2903 -0.5684  0.5459
  187SAPI  H20S21523   3.547   3.150   8.525 -2.2503  0.9599 -2.9280
  187SAPI  H20T21524   3.623   2.979   8.513  3.7449  0.5364  1.3129
  187SAPI   C3321525   3.891   2.200   6.986 -0.0725 -0.2255  0.0010
  187SAPI   H3X21526   3.983   2.255   7.015  0.1280  0.0439 -1.1295
  187SAPI   H3Y21527   3.904   2.131   6.900 -0.5059 -0.1073 -0.1657
  187SAPI   C3421528   3.859   2.121   7.117 -0.0025  0.1612 -0.7354
  187SAPI   H4X21529   3.942   2.048   7.126  1.8656  2.4084  2.4510
  187SAPI   H4Y21530   3.765   2.062   7.103 -0.2052  0.2588  0.1209
  187SAPI   C3521531   3.837   2.206   7.247 -0.2119 -0.7436  0.2143
  187SAPI   H5X21532   3.736   2.252   7.236  0.1607  0.3215  1.0395
  187SAPI   H5Y21533   3.920   2.280   7.245 -0.7700  0.0149 -4.0043
  187SAPI   C3621534   3.832   2.125   7.375  0.1961 -0.5127  0.4841
  187SAPI   H6X21535   3.936   2.090   7.398  0.6995 -0.4850 -1.5538
  187SAPI   H6Y21536   3.773   2.032   7.361  0.9855 -0.9430 -0.0850
  187SAPI   C3721537   3.773   2.209   7.490  0.1167  0.0606  0.3183
  187SAPI   H7X21538   3.674   2.247   7.456  1.0073  1.2293 -1.1230
  187SAPI   H7Y21539   3.829   2.305   7.495 -0.6022  0.4400  1.2376
  187SAPI   C3821540   3.762   2.132   7.623 -1.0300  0.2110  0.1558
  187SAPI   H8X21541   3.866   2.101   7.650 -1.9928 -0.5113  3.4638
  187SAPI   H8Y21542   3.688   2.049   7.617  0.7393 -1.5822  1.6850
  187SAPI   C3921543   3.707   2.225   7.739 -0.3742  0.5636  0.6830
  187SAPI   H9X21544   3.704   2.168   7.834 -2.0153  3.6755  2.6764
  187SAPI   H9Y21545   3.604   2.255   7.711 -0.3004  1.8194  1.6875
  187SAPI  C31021546   3.786   2.355   7.755  0.2236 -0.4161 -0.7223
  187SAPI  H10X21547   3.765   2.419   7.666 -1.6255 -0.3280 -0.2662
  187SAPI  H10Y21548   3.894   2.330   7.764 -0.1305 -2.8141 -2.2054
  187SAPI  C31121549   3.735   2.430   7.882 -0.5075 -0.5229  0.7248
  187SAPI  H11X21550   3.771   2.384   7.977 -2.6781  1.3532  2.5775
  187SAPI  H11Y21551   3.624   2.426   7.874 -0.5397  0.8672  0.2308
  187SAPI  C31221552   3.772   2.580   7.895 -0.1171  0.5099 -0.2878
  187SAPI  H12X21553   3.706   2.638   7.828 -0.8047  0.9816  0.7660
  187SAPI  H12Y21554   3.877   2.598   7.864 -0.0177 -2.5703 -2.0963
  187SAPI  C31321555   3.758   2.615   8.044 -0.0938  0.2543  0.0588
  187SAPI  H13X21556   3.699   2.538   8.098  1.9863 -1.1158  0.4897
  187SAPI  H13Y21557   3.698   2.709   8.047 -0.2822  0.1347  0.0125
  187SAPI  C31421558   3.893   2.631   8.111  0.4580 -0.4359 -0.4860
  187SAPI  H14X21559   3.955   2.706   8.058 -0.2056  0.6727  0.2550
  187SAPI  H14Y21560   3.939   2.531   8.103 -0.1713 -1.1914  3.3100
  187SAPI  C31521561   3.877   2.681   8.252  0.2380 -0.1802  0.0814
  187SAPI  H15X21562   3.873   2.792   8.254 -0.8571 -0.2216  0.5458
  187SAPI  H15Y21563   3.970   2.654   8.307 -1.1446 -2.6557  1.3442
  187SAPI  C31621564   3.755   2.630   8.336 -0.3666  1.1172  1.3686
  187SAPI  H16X21565   3.765   2.519   8.342 -0.6929  1.0363  0.5908
  187SAPI  H16Y21566   3.657   2.655   8.289 -0.9084 -1.6677  0.8180
  187SAPI  C31721567   3.746   2.681   8.474 -0.5437 -0.0414  0.8323
  187SAPI  H17X21568   3.724   2.790   8.472 -0.7971 -0.0388  2.2776
  187SAPI  H17Y21569   3.840   2.661   8.530  2.3723  0.8902 -3.2485
  187SAPI  C31821570   3.619   2.624   8.538  0.5056  0.4666 -0.0252
  187SAPI  H18X21571   3.609   2.514   8.542 -0.8486  0.6081  1.9019
  187SAPI  H18Y21572   3.534   2.666   8.480  1.4869  2.4145 -0.1500
  187SAPI  H18Z21573   3.613   2.655   8.645 -2.7160 -2.4317  0.8248
  188SAPI   C1221574   3.924   5.642   5.876 -0.6944  0.1242  0.8058
  188SAPI    H221575   3.909   5.747   5.909  0.3919  0.7024 -0.4503
  188SAPI    O221576   3.794   5.579   5.874 -0.6237  0.1245 -0.0026
  188SAPI   HO221577   3.748   5.596   5.956 -1.1966  1.1805 -0.5239
  188SAPI   C1321578   3.982   5.645   5.736 -0.0931  0.1894 -0.1350
  188SAPI    H321579   4.079   5.697   5.751 -0.6242  0.6634  2.0558
  188SAPI    O321580   3.912   5.737   5.645 -0.1399  0.4243  0.7024
  188SAPI   HO321581   3.858   5.686   5.584 -0.3469 -0.4691  1.6109
  188SAPI   C1421582   3.999   5.504   5.678  0.1625 -0.5301 -0.9960
  188SAPI    H421583   3.900   5.455   5.688  0.6308 -1.0014  2.7220
  188SAPI    O421584   4.039   5.492   5.544 -0.6874 -0.0121  0.1685
  188SAPI   HO421585   4.014   5.407   5.508 -0.8047 -1.3010  3.0483
  188SAPI   C1521586   4.087   5.425   5.777  0.0269 -0.1814 -0.4980
  188SAPI    H521587   4.190   5.466   5.788  0.4436 -1.6776  1.9385
  188SAPI    O521588   4.111   5.295   5.723 -0.5104  0.0921  0.6022
  188SAPI   HO521589   4.037   5.234   5.726  0.3296 -0.9302  1.3893
  188SAPI   C1621590   4.037   5.423   5.918  0.4255  0.1146  0.2303
  188SAPI    H621591   3.942   5.366   5.922  0.0282  0.6590 -1.0281
  188SAPI    O621592   4.137   5.357   6.011  0.2498 -0.3779  0.2312
  188SAPI   HO621593   4.197   5.422   6.047  1.8456 -0.7304 -1.5944
  188SAPI   C1121594   4.011   5.566   5.969  0.5117 -0.4512  0.9133
  188SAPI    H121595   4.108   5.620   5.976  1.4603 -1.9657 -0.0848
  188SAPI     P21596   3.965   5.681   6.208 -0.0554  0.0136  0.2393
  188SAPI   O1321597   3.852   5.676   6.301  0.2434  0.9937 -0.0892
  188SAPI   O1421598   3.980   5.802   6.130 -0.3482 -0.3591 -0.7281
  188SAPI   O1221599   3.954   5.553   6.105  0.3121 -0.7485  0.2680
  188SAPI   O1121600   4.097   5.652   6.288  0.4692  0.5127  0.1225
  188SAPI    C121601   4.148   5.521   6.312  0.0027  0.0434  0.3904
  188SAPI    HA21602   4.070   5.445   6.289 -0.8373  0.9118  0.3370
  188SAPI    HB21603   4.230   5.502   6.240 -0.4363  0.3232 -0.1807
  188SAPI    C221604   4.185   5.488   6.462  0.5534  0.3731 -0.1962
  188SAPI    HS21605   4.191   5.377   6.463 -0.6633  0.2929  0.2768
  188SAPI   O2121606   4.082   5.544   6.545 -0.2740  0.2063  0.4738
  188SAPI   C2121607   3.961   5.487   6.536  0.0927 -0.4142 -0.0717
  188SAPI   O2221608   3.937   5.392   6.463 -0.0101 -0.4745 -0.1748
  188SAPI   C2221609   3.853   5.563   6.622 -0.0807  0.7133  0.7796
  188SAPI   H2R21610   3.896   5.653   6.673  0.4953  0.3684  0.9143
  188SAPI   H2S21611   3.782   5.607   6.549  0.3196  3.8980  2.1429
  188SAPI    C321612   4.317   5.545   6.497  0.0433 -0.5895 -0.3157
  188SAPI    HX21613   4.306   5.649   6.459 -3.3935 -1.0867 -1.0804
  188SAPI    HY21614   4.384   5.488   6.428  1.7231  0.8269  0.1021
  188SAPI   O3121615   4.356   5.539   6.635 -0.6134  0.1404 -0.3698
  188SAPI   C3121616   4.478   5.562   6.659 -0.0539 -0.2787  0.2426
  188SAPI   O3221617   4.562   5.575   6.574  0.2768 -0.2101 -0.3921
  188SAPI   C3221618   4.513   5.565   6.809 -0.6533  0.0549 -0.2381
  188SAPI   H2X21619   4.452   5.648   6.851 -0.9531  0.5249 -1.5406
  188SAPI   H2Y21620   4.623   5.585   6.814 -0.8412  1.5596 -1.4363
  188SAPI   C2321621   3.767   5.471   6.713 -0.1257 -0.4470 -0.0583
  188SAPI   H3R21622   3.826   5.440   6.802  0.0872  1.2373  0.4152
  188SAPI   H3S21623   3.715   5.390   6.658 -2.1757 -0.1053  1.2490
  188SAPI   C2421624   3.656   5.566   6.761  0.1535  0.8668 -0.0635
  188SAPI   H4R21625   3.600   5.598   6.671 -0.4942 -1.7773 -0.6894
  188SAPI   H4S21626   3.695   5.648   6.825  0.7194 -0.4304  1.3122
  188SAPI   C2521627   3.560   5.489   6.844 -0.6548  0.5292  0.5766
  188SAPI   H5R21628   3.544   5.388   6.803 -0.7521  0.2367  1.3107
  188SAPI   C2621629   3.481   5.528   6.943  0.1383  0.0831  0.5303
  188SAPI   H6R21630   3.415   5.453   6.988 -0.0709 -0.8989 -1.3086
  188SAPI   C2721631   3.465   5.675   6.988 -0.4921 -0.1466  0.6339
  188SAPI   H7R21632   3.564   5.726   6.986 -0.7801  0.4283  0.7180
  188SAPI   H7S21633   3.433   5.673   7.094  1.6380  2.3406  1.4306
  188SAPI   C2821634   3.375   5.753   6.897  0.1843 -0.8922  0.0957
  188SAPI   H8R21635   3.395   5.752   6.789 -1.9270  1.1510 -0.4046
  188SAPI   C2921636   3.274   5.840   6.938 -0.4155 -0.2713 -0.2808
  188SAPI   H9R21637   3.218   5.904   6.868 -2.6769 -1.1655  0.6131
  188SAPI  C21021638   3.231   5.881   7.073 -0.4749  0.0110  0.2208
  188SAPI  H10R21639   3.324   5.898   7.132  1.1449  0.0710 -2.2436
  188SAPI  H10S21640   3.187   5.789   7.119 -2.4643  0.9007  0.2129
  188SAPI  C21121641   3.145   6.008   7.087 -0.5904 -0.3346 -0.0177
  188SAPI  H11R21642   3.198   6.096   7.047  0.2412 -0.3373  1.0503
  188SAPI  C21221643   3.027   6.010   7.148  0.0115 -0.3902 -0.8975
  188SAPI  H12R21644   2.971   6.105   7.149 -1.7947 -1.3964 -1.0743
  188SAPI  C21321645   2.948   5.906   7.231 -0.3020 -0.0352 -0.1973
  188SAPI  H13R21646   3.014   5.826   7.272 -1.2663 -1.9114 -2.1036
  188SAPI  H13S21647   2.889   5.854   7.153  0.9657 -0.2789 -1.0158
  188SAPI  C21421648   2.861   5.963   7.339  1.3598  0.1528  0.3955
  188SAPI  H14R21649   2.820   6.065   7.326 -2.4508 -1.0601  1.5154
  188SAPI  C21521650   2.799   5.892   7.440  0.2292  0.3632  0.4825
  188SAPI  H15R21651   2.735   5.947   7.511 -0.6614  0.2846 -0.2413
  188SAPI  C21621652   2.810   5.740   7.447 -0.2473  0.1531 -0.3908
  188SAPI  H16R21653   2.894   5.702   7.385 -1.0346  0.5872 -1.7810
  188SAPI  H16S21654   2.715   5.692   7.416  0.5487  0.0205 -2.7912
  188SAPI  C21721655   2.824   5.706   7.596 -0.3971  0.0032 -1.0258
  188SAPI  H17R21656   2.911   5.761   7.637 -0.9555  0.3350 -0.2507
  188SAPI  H17S21657   2.867   5.604   7.600  0.8453  0.5181 -0.8896
  188SAPI  C21821658   2.701   5.717   7.686 -0.1721  0.1643  0.6725
  188SAPI  H18R21659   2.623   5.651   7.641  0.6345 -0.5755  0.3260
  188SAPI  H18S21660   2.669   5.823   7.679 -1.0490 -0.1234  0.1321
  188SAPI  C21921661   2.741   5.663   7.831  0.7022 -0.3158  0.7963
  188SAPI  H19R21662   2.829   5.712   7.878  0.4403  1.5932 -0.5787
  188SAPI  H19S21663   2.773   5.560   7.807 -4.9848 -2.3245  0.3126
  188SAPI  C22021664   2.624   5.673   7.932 -0.2021 -0.0552  0.2102
  188SAPI  H20R21665   2.588   5.778   7.934 -2.8814 -0.8714 -0.6958
  188SAPI  H20S21666   2.655   5.651   8.037  0.0269 -1.0310 -0.0492
  188SAPI  H20T21667   2.541   5.603   7.909 -0.5864  0.7622 -1.0236
  188SAPI   C3321668   4.492   5.422   6.874 -0.3728  0.7285  0.0952
  188SAPI   H3X21669   4.566   5.350   6.836  0.5569  1.6233  0.1712
  188SAPI   H3Y21670   4.391   5.375   6.865  0.8678 -2.3277  0.9285
  188SAPI   C3421671   4.515   5.405   7.025 -0.0113  0.4833  0.5185
  188SAPI   H4X21672   4.618   5.434   7.053 -0.0854  2.2286 -0.8130
  188SAPI   H4Y21673   4.496   5.299   7.053 -1.0501  0.3454 -0.6199
  188SAPI   C3521674   4.419   5.501   7.102  0.4690  0.4977 -0.7892
  188SAPI   H5X21675   4.314   5.474   7.080  0.3251  1.0905 -0.8572
  188SAPI   H5Y21676   4.425   5.606   7.066 -0.2123  1.3614  1.4502
  188SAPI   C3621677   4.442   5.495   7.260 -0.6141 -0.1200  0.3742
  188SAPI   H6X21678   4.474   5.592   7.302 -1.6568 -0.3409  1.7416
  188SAPI   H6Y21679   4.525   5.421   7.267 -1.2204 -0.8131  0.3848
  188SAPI   C3721680   4.332   5.443   7.352 -0.2016  0.6684  0.3357
  188SAPI   H7X21681   4.310   5.337   7.327  1.4171  0.3143  0.2875
  188SAPI   H7Y21682   4.249   5.515   7.335  0.7364  1.5801 -0.5537
  188SAPI   C3821683   4.370   5.457   7.499 -0.1738  0.2232  0.3068
  188SAPI   H8X21684   4.397   5.564   7.511  0.4048  0.2183 -0.8013
  188SAPI   H8Y21685   4.458   5.395   7.528 -2.3199 -3.1996  0.0395
  188SAPI   C3921686   4.255   5.410   7.592 -0.0934 -0.2140 -0.3067
  188SAPI   H9X21687   4.310   5.340   7.659 -0.0018  0.4127  0.2901
  188SAPI   H9Y21688   4.173   5.359   7.539 -1.1803 -0.2965  1.3745
  188SAPI  C31021689   4.191   5.516   7.677  0.5315 -0.7237  0.5105
  188SAPI  H10X21690   4.154   5.598   7.611  1.1032 -0.5710  0.3803
  188SAPI  H10Y21691   4.282   5.545   7.734  1.4846 -1.8351 -0.4034
  188SAPI  C31121692   4.077   5.468   7.764  0.3525 -0.1368  0.8002
  188SAPI  H11X21693   4.115   5.375   7.811  0.9673 -1.1830 -1.6100
  188SAPI  H11Y21694   3.992   5.433   7.702  0.1862  0.1768  0.8493
  188SAPI  C31221695   4.041   5.586   7.869 -0.7632  0.1576  1.0928
  188SAPI  H12X21696   4.016   5.678   7.811  2.3391  0.3142 -0.1788
  188SAPI  H12Y21697   4.134   5.605   7.928 -0.2724  0.2384  0.2962
  188SAPI  C31321698   3.928   5.556   7.967  0.5611  0.4140  0.2650
  188SAPI  H13X21699   3.911   5.646   8.030  2.6825  0.4056  0.9087
  188SAPI  H13Y21700   3.952   5.470   8.034 -4.0526 -0.4695  1.1381
  188SAPI  C31421701   3.795   5.525   7.896 -0.0439  0.1288  0.1377
  188SAPI  H14X21702   3.808   5.428   7.843  0.9814  0.7278 -0.7473
  188SAPI  H14Y21703   3.777   5.601   7.817 -1.1902 -1.1544 -0.8980
  188SAPI  C31521704   3.675   5.526   7.994 -0.4984 -0.3626 -0.8130
  188SAPI  H15X21705   3.696   5.614   8.058  1.3623  2.2069 -4.5865
  188SAPI  H15Y21706   3.671   5.430   8.050  0.2806  0.8084  1.3726
  188SAPI  C31621707   3.544   5.562   7.918 -0.3865 -0.4682  0.3569
  188SAPI  H16X21708   3.501   5.467   7.878  1.9037 -1.6204  0.4603
  188SAPI  H16Y21709   3.566   5.636   7.837 -0.4975  2.0580  2.5004
  188SAPI  C31721710   3.440   5.625   8.010  0.3329 -0.6450  0.2177
  188SAPI  H17X21711   3.490   5.719   8.042  1.4921 -0.9835 -0.5385
  188SAPI  H17Y21712   3.428   5.567   8.104 -1.1114  2.4955  2.1366
  188SAPI  C31821713   3.304   5.638   7.942  0.2219  0.5056 -0.4653
  188SAPI  H18X21714   3.278   5.537   7.904  3.0183 -0.0604 -1.1141
  188SAPI  H18Y21715   3.313   5.715   7.862  1.0443 -0.7118 -1.5945
  188SAPI  H18Z21716   3.233   5.666   8.023 -1.5061 -2.2159 -0.8790
  189POPC     N21717   1.155   4.693  11.044  0.2654  0.4781  0.4137
  189POPC   C1221718   1.180   4.713  10.893 -0.0789 -0.4508 -0.4807
  189POPC  H12A21719   1.107   4.650  10.843 -0.3788 -0.5497  0.0648
  189POPC  H12B21720   1.272   4.665  10.862 -0.7934 -1.6750 -0.7952
  189POPC   C1321721   1.026   4.752  11.092 -0.3212 -0.9669  0.0060
  189POPC  H13A21722   1.049   4.857  11.085  2.6454 -1.6491 -4.1066
  189POPC  H13B21723   0.945   4.726  11.026  1.9458 -1.4636 -2.7648
  189POPC  H13C21724   1.000   4.716  11.191 -1.1822 -1.1374 -0.2728
  189POPC   C1421725   1.155   4.547  11.073 -0.1115 -0.0194  0.1571
  189POPC  H14A21726   1.088   4.488  11.012  0.3870  0.4361 -0.8556
  189POPC  H14B21727   1.256   4.509  11.066  0.3054  1.3509 -2.7388
  189POPC  H14C21728   1.117   4.527  11.172 -0.3095  0.6881  0.2363
  189POPC   C1521729   1.267   4.754  11.121 -0.6811 -0.2687 -0.9916
  189POPC  H15A21730   1.361   4.704  11.138 -0.6882 -0.0314 -0.2208
  189POPC  H15B21731   1.216   4.770  11.215 -3.1172  0.7490 -2.3932
  189POPC  H15C21732   1.298   4.846  11.075  0.1221  1.0493  1.9813
  189POPC   C1121733   1.170   4.857  10.840 -0.3442  0.3987 -0.6904
  189POPC  H11A21734   1.077   4.910  10.870  0.5251  0.9133  1.3112
  189POPC  H11B21735   1.184   4.852  10.730 -1.9512 -1.7927 -0.8609
  189POPC     P21736   1.412   4.976  10.824 -0.2031 -0.1725 -0.0671
  189POPC   O1321737   1.511   4.861  10.841 -0.2473  0.1374 -0.3314
  189POPC   O1421738   1.460   5.110  10.872  0.2896 -0.7403  0.1158
  189POPC   O1221739   1.280   4.933  10.900 -0.5351  0.3748 -0.2605
  189POPC   O1121740   1.369   4.974  10.672 -0.1032 -0.2316 -0.5385
  189POPC    C121741   1.332   5.098  10.614 -0.0264 -0.0726  0.3353
  189POPC    HA21742   1.414   5.171  10.631 -1.3317  0.8799  2.9970
  189POPC    HB21743   1.236   5.136  10.654 -1.4394 -1.6104 -1.4401
  189POPC    C221744   1.320   5.082  10.463  0.7543 -0.2526 -0.2209
  189POPC    HS21745   1.338   5.177  10.409 -0.4882  0.0505 -0.1290
  189POPC   O2121746   1.189   5.036  10.423 -0.3794 -0.2716 -0.1047
  189POPC   C2121747   1.088   5.126  10.424  0.2174  0.3840  0.1839
  189POPC   O2221748   1.098   5.242  10.448 -0.2943  0.3982 -0.0465
  189POPC   C2221749   0.951   5.062  10.405 -0.6697  0.5928  0.0752
  189POPC   H2R21750   0.919   5.038  10.509  0.1007 -0.1271  0.1638
  189POPC   H2S21751   0.957   4.971  10.342 -3.8497  0.0061  0.4490
  189POPC    C321752   1.419   4.983  10.413  0.1359 -0.3098  0.0115
  189POPC    HX21753   1.389   4.879  10.437 -2.2695  0.0824 -0.9956
  189POPC    HY21754   1.523   5.002  10.445  0.0910 -1.9709  1.2827
  189POPC   O3121755   1.425   5.006  10.267 -0.3733  0.4482  0.3964
  189POPC   C3121756   1.376   4.915  10.182 -0.1693  0.8382 -0.0136
  189POPC   O3221757   1.321   4.808  10.213  0.6176 -0.5716 -0.6534
  189POPC   C3221758   1.424   4.948  10.040  0.0537 -0.2286 -0.8872
  189POPC   H2X21759   1.533   4.963  10.060 -0.3178 -0.1689  1.4298
  189POPC   H2Y21760   1.383   5.044  10.004 -2.6709 -1.4747 -1.3330
  189POPC   C2321761   0.843   5.145  10.326  0.1488 -0.4708 -0.1386
  189POPC   H3R21762   0.830   5.252  10.352  1.8229  0.1061 -1.4808
  189POPC   H3S21763   0.746   5.096  10.347  0.0700 -0.9717 -1.5461
  189POPC   C2421764   0.858   5.140  10.171 -0.0898 -0.0328  0.2991
  189POPC   H4R21765   0.825   5.037  10.144  1.6422 -0.2669 -1.0898
  189POPC   H4S21766   0.958   5.161  10.128 -0.6361 -1.3895 -1.7759
  189POPC   C2521767   0.768   5.250  10.099 -0.4698  0.7609 -0.0026
  189POPC   H5R21768   0.797   5.333  10.166  1.2454 -0.6909  1.1201
  189POPC   H5S21769   0.660   5.224  10.107 -0.7615  2.1888  1.2126
  189POPC   C2621770   0.813   5.289   9.951  0.0434  0.6692 -0.1759
  189POPC   H6R21771   0.822   5.196   9.891 -3.3015 -1.7923  2.6820
  189POPC   H6S21772   0.912   5.333   9.977 -0.6016  1.0833  1.7756
  189POPC   C2721773   0.724   5.388   9.870 -0.6617  0.1400  0.2759
  189POPC   H7R21774   0.672   5.462   9.934 -2.7306 -2.4195  1.7613
  189POPC   H7S21775   0.637   5.331   9.832  0.7371 -2.0404  0.1919
  189POPC   C2821776   0.795   5.457   9.762 -0.8819 -0.0579  0.0203
  189POPC   H8R21777   0.848   5.379   9.704  1.7928  1.3061  0.4745
  189POPC   H8S21778   0.882   5.520   9.791 -1.1325  0.4420 -0.3031
  189POPC   C2921779   0.712   5.537   9.663  0.2234 -0.0588 -0.7458
  189POPC   H9121780   0.642   5.611   9.703 -0.5668 -0.4096 -1.4658
  189POPC  C21021781   0.700   5.505   9.529 -0.2772  0.1648 -1.1897
  189POPC  H10121782   0.646   5.570   9.459 -2.9730  0.1579  0.6977
  189POPC  C21121783   0.769   5.380   9.475 -0.5319  0.1595  0.4113
  189POPC  H11R21784   0.737   5.285   9.522  0.7517 -1.6718 -2.1716
  189POPC  H11S21785   0.879   5.376   9.492 -0.8391 -1.6714  2.4000
  189POPC  C21221786   0.741   5.374   9.327 -0.4326  0.1873  0.2767
  189POPC  H12R21787   0.778   5.469   9.282 -3.8880  0.9521 -1.3418
  189POPC  H12S21788   0.632   5.368   9.304 -0.2938 -1.4585 -0.0889
  189POPC  C21321789   0.817   5.264   9.255 -0.4446 -0.4469  0.2459
  189POPC  H13R21790   0.819   5.168   9.310  0.1627 -0.6141 -0.0591
  189POPC  H13S21791   0.926   5.286   9.243 -0.6255  0.0604 -0.5577
  189POPC  C21421792   0.749   5.238   9.117 -0.5588  0.2918 -0.2749
  189POPC  H14R21793   0.740   5.327   9.052 -0.4843  0.2638 -0.3244
  189POPC  H14S21794   0.646   5.208   9.147  0.1822 -2.6730 -0.2896
  189POPC  C21521795   0.811   5.126   9.043 -0.1847 -0.6221  1.0842
  189POPC  H15R21796   0.778   5.026   9.078  2.2728 -2.6617 -1.8276
  189POPC  H15S21797   0.922   5.129   9.046 -0.0892  0.6128 -1.4224
  189POPC  C21621798   0.773   5.119   8.900  1.2192  0.2332 -1.0874
  189POPC  H16R21799   0.812   5.028   8.849  2.2646  1.4737 -2.5987
  189POPC  H16S21800   0.827   5.200   8.846  1.3655  1.0745  0.2666
  189POPC  C21721801   0.615   5.122   8.866  0.0045 -0.2758 -0.6694
  189POPC  H17R21802   0.567   5.217   8.894 -1.3054 -0.6566 -1.5666
  189POPC  H17S21803   0.567   5.049   8.934 -0.6749  0.6809 -0.1033
  189POPC  C21821804   0.581   5.079   8.727 -0.5504 -0.1443  0.0781
  189POPC  H18R21805   0.625   5.145   8.649 -2.9340  2.2308  0.6273
  189POPC  H18S21806   0.474   5.092   8.704 -0.0731 -0.6388 -2.7434
  189POPC  H18T21807   0.618   4.977   8.703 -1.6990 -0.3779 -0.7731
  189POPC   C3321808   1.399   4.837   9.936  0.5853 -0.9262  1.0284
  189POPC   H3X21809   1.386   4.737   9.984 -0.2474 -0.2692  2.2346
  189POPC   H3Y21810   1.484   4.829   9.866  0.3865  3.2754  0.0361
  189POPC   C3421811   1.269   4.872   9.858 -0.6201  0.1091  0.4970
  189POPC   H4X21812   1.288   4.973   9.817  0.7028  0.0245  0.8516
  189POPC   H4Y21813   1.175   4.877   9.918 -1.3830  3.1194 -0.7685
  189POPC   C3521814   1.235   4.783   9.739  0.1296 -0.2397 -0.3787
  189POPC   H5X21815   1.241   4.679   9.779  0.3227 -0.3435 -0.6827
  189POPC   H5Y21816   1.312   4.797   9.661  0.3974  1.2607  0.1142
  189POPC   C3621817   1.099   4.824   9.681  1.1735 -0.0056 -0.3943
  189POPC   H6X21818   1.113   4.929   9.649  1.5459  0.2028  0.4125
  189POPC   H6Y21819   1.016   4.815   9.755  0.4822 -0.5872 -1.2172
  189POPC   C3721820   1.063   4.742   9.558 -0.5141  0.1334 -0.1931
  189POPC   H7X21821   1.091   4.637   9.579 -1.3206 -0.0992 -0.2146
  189POPC   H7Y21822   1.127   4.776   9.474  0.8549  0.1032  0.8019
  189POPC   C3821823   0.920   4.743   9.513 -0.1046 -0.1051  0.0897
  189POPC   H8X21824   0.882   4.838   9.470 -0.7092 -0.6702 -0.6507
  189POPC   H8Y21825   0.862   4.732   9.606 -0.2589  0.1475  0.0222
  189POPC   C3921826   0.883   4.617   9.426  0.1060 -0.5639 -0.3480
  189POPC   H9X21827   0.775   4.594   9.436  0.3057 -1.2467  0.4238
  189POPC   H9Y21828   0.951   4.532   9.449 -1.1021 -1.8837 -1.4698
  189POPC  C31021829   0.897   4.652   9.272 -0.2284 -0.6909  0.4834
  189POPC  H10X21830   1.003   4.661   9.240 -0.5734 -0.9787 -0.8133
  189POPC  H10Y21831   0.846   4.750   9.260 -1.8174 -1.1472  2.8688
  189POPC  C31121832   0.810   4.556   9.180 -0.8825 -0.2332 -0.6591
  189POPC  H11X21833   0.713   4.566   9.235 -0.0618  2.0866  0.5125
  189POPC  H11Y21834   0.855   4.456   9.191  4.1425  1.7077 -1.0230
  189POPC  C31221835   0.797   4.599   9.030 -0.1835 -0.2521 -0.0116
  189POPC  H12X21836   0.765   4.706   9.026  1.4071  0.2646  0.2460
  189POPC  H12Y21837   0.705   4.549   8.996 -0.5807  1.4244 -1.5444
  189POPC  C31321838   0.920   4.577   8.954 -0.4775  0.1817 -0.5137
  189POPC  H13X21839   0.939   4.468   8.964  0.7370  0.3753 -0.6025
  189POPC  H13Y21840   1.007   4.635   8.991 -1.1108  1.1218 -0.4677
  189POPC  C31421841   0.899   4.598   8.807  0.7188  0.3817 -0.5872
  189POPC  H14X21842   0.859   4.702   8.804  0.6335  0.3510 -0.4826
  189POPC  H14Y21843   0.820   4.528   8.773 -0.4808  0.9053  0.9992
  189POPC  C31521844   1.024   4.579   8.728  0.0792 -0.0173  0.2886
  189POPC  H15X21845   1.110   4.618   8.788  1.3917 -4.2161  1.4923
  189POPC  H15Y21846   1.007   4.642   8.638  0.9264  3.1032  2.1518
  189POPC  C31621847   1.044   4.426   8.698  0.0349 -0.1091  0.2843
  189POPC  H16X21848   1.140   4.397   8.648  0.3203  0.1254  0.6921
  189POPC  H16Y21849   0.962   4.402   8.627 -0.9129 -0.1821  1.3803
  189POPC  H16Z21850   1.025   4.360   8.785 -2.0700 -0.2768 -0.2616
  190POPC     N21851   3.890   2.816  11.370  0.2299  0.5224  0.0844
  190POPC   C1221852   3.904   2.779  11.228  0.5772 -0.0034  0.1235
  190POPC  H12A21853   3.927   2.673  11.225  0.0326 -0.2143  2.2392
  190POPC  H12B21854   3.993   2.828  11.191  0.7262  1.0353  1.7787
  190POPC   C1321855   3.775   2.738  11.429  0.3151 -0.1573  0.1067
  190POPC  H13A21856   3.773   2.633  11.404 -3.6686 -0.8475  2.4779
  190POPC  H13B21857   3.769   2.757  11.535 -1.3407 -0.2231  0.0508
  190POPC  H13C21858   3.688   2.776  11.378  1.4146 -0.2216 -1.9409
  190POPC   C1421859   4.015   2.768  11.443  0.0930  0.1264 -0.1864
  190POPC  H14A21860   4.046   2.665  11.437 -1.6902 -0.4933  0.6927
  190POPC  H14B21861   4.094   2.833  11.410  0.4088  0.2932  0.8412
  190POPC  H14C21862   4.004   2.787  11.549 -0.6789 -1.2102 -0.0036
  190POPC   C1521863   3.859   2.956  11.388  0.0263  0.0207  0.6866
  190POPC  H15A21864   3.782   2.992  11.322  0.9846 -1.1251 -1.1493
  190POPC  H15B21865   3.944   3.019  11.365 -0.7187  0.1028 -2.2755
  190POPC  H15C21866   3.827   2.979  11.489 -1.1405  0.1279  0.3072
  190POPC   C1121867   3.788   2.807  11.124  0.8757  0.3545  0.6525
  190POPC  H11A21868   3.710   2.730  11.144  0.4599  0.5232 -0.2633
  190POPC  H11B21869   3.826   2.787  11.022 -1.9567 -0.3655 -0.3739
  190POPC     P21870   3.780   3.059  11.033 -0.1247 -0.1951 -0.1818
  190POPC   O1321871   3.930   3.067  11.009  0.7257  0.3455  0.5983
  190POPC   O1421872   3.718   3.182  11.077  0.8018 -0.1957  0.2769
  190POPC   O1221873   3.741   2.935  11.137  0.1023 -0.6094  0.4727
  190POPC   O1121874   3.712   3.012  10.900 -0.0041 -0.1156  0.3755
  190POPC    C121875   3.573   2.970  10.892 -0.4378  0.3423 -0.3533
  190POPC    HA21876   3.516   3.040  10.827  0.4363  0.8119 -0.6262
  190POPC    HB21877   3.529   2.965  10.994 -0.8297 -0.6917 -0.5597
  190POPC    C221878   3.570   2.838  10.819  0.8887  0.2043  0.0676
  190POPC    HS21879   3.619   2.760  10.881  0.3249  0.4598  0.8557
  190POPC   O2121880   3.628   2.861  10.693 -0.2087 -0.0624  0.1158
  190POPC   C2121881   3.668   2.748  10.632  0.3994 -0.2632  0.0358
  190POPC   O2221882   3.694   2.645  10.694 -0.0303 -0.2022  0.2184
  190POPC   C2221883   3.689   2.783  10.486  0.3589  0.4365 -0.8269
  190POPC   H2R21884   3.792   2.822  10.496  0.6937 -0.9409  2.2053
  190POPC   H2S21885   3.621   2.867  10.457 -2.3374 -1.2612  0.1558
  190POPC    C321886   3.421   2.801  10.806 -0.3084 -0.0493 -0.3137
  190POPC    HX21887   3.363   2.883  10.757  0.6387 -0.6721 -2.5855
  190POPC    HY21888   3.380   2.784  10.908 -0.0889 -1.5057 -0.4517
  190POPC   O3121889   3.403   2.682  10.720 -0.5741 -0.7826 -0.1096
  190POPC   C3121890   3.411   2.562  10.779 -0.4057  0.1413  0.6313
  190POPC   O3221891   3.450   2.538  10.893  0.1305  0.1417 -0.4130
  190POPC   C3221892   3.358   2.453  10.683 -0.8625 -0.8221  0.8650
  190POPC   H2X21893   3.248   2.453  10.694 -1.1239  0.2453 -1.1526
  190POPC   H2Y21894   3.415   2.364  10.718  0.2460  0.0447  1.3434
  190POPC   C2321895   3.679   2.662  10.388 -0.1361 -0.4989  0.5411
  190POPC   H3R21896   3.577   2.654  10.343  1.2949  0.4342 -3.2500
  190POPC   H3S21897   3.700   2.564  10.437 -3.7736 -1.0904  1.2213
  190POPC   C2421898   3.763   2.681  10.258 -0.0002  0.2653 -0.5865
  190POPC   H4R21899   3.759   2.591  10.193 -0.5050 -1.2565  1.4448
  190POPC   H4S21900   3.870   2.697  10.280  0.4628 -0.3666 -2.1763
  190POPC   C2521901   3.716   2.793  10.164  0.1284 -0.1059 -0.1001
  190POPC   H5R21902   3.707   2.887  10.223 -0.8863 -0.5488  0.4647
  190POPC   H5S21903   3.617   2.774  10.118  0.6538  0.4966 -1.5241
  190POPC   C2621904   3.813   2.819  10.053  0.7795 -0.3695 -0.0636
  190POPC   H6R21905   3.919   2.819  10.089  0.5203 -0.8938  0.7162
  190POPC   H6S21906   3.788   2.921  10.017  1.5311  0.2416  1.1041
  190POPC   C2721907   3.795   2.730   9.934  0.1782  0.5269  0.1972
  190POPC   H7R21908   3.687   2.719   9.910  0.4305  0.3173 -0.9148
  190POPC   H7S21909   3.821   2.625   9.955 -3.1147 -0.5529 -0.4972
  190POPC   C2821910   3.869   2.773   9.801  0.0498  0.3339  0.6036
  190POPC   H8R21911   3.977   2.780   9.824  0.2507  1.0205 -0.4609
  190POPC   H8S21912   3.844   2.881   9.790  0.3585  0.4760  1.2905
  190POPC   C2921913   3.834   2.690   9.680 -0.0574  0.2586  0.1489
  190POPC   H9121914   3.855   2.582   9.686  0.1747  0.3271  0.6908
  190POPC  C21021915   3.791   2.736   9.562  0.8319  0.6085  0.0306
  190POPC  H10121916   3.781   2.667   9.477 -0.5309  0.1928  0.5004
  190POPC  C21121917   3.756   2.875   9.525 -0.5237  0.2883  0.0213
  190POPC  H11R21918   3.781   2.945   9.608  1.9576 -1.3435  0.7715
  190POPC  H11S21919   3.646   2.881   9.515 -0.7628  0.3472  2.1713
  190POPC  C21221920   3.840   2.915   9.398 -0.6626  0.4481 -0.9319
  190POPC  H12R21921   3.949   2.910   9.419 -0.3513  2.5863 -1.7523
  190POPC  H12S21922   3.812   3.021   9.382  1.1816  0.9938 -0.8076
  190POPC  C21321923   3.824   2.819   9.276 -0.0202  0.0672  0.5358
  190POPC  H13R21924   3.714   2.812   9.268  0.0773 -0.0977 -0.8816
  190POPC  H13S21925   3.863   2.719   9.303 -1.2181 -0.2537  1.0952
  190POPC  C21421926   3.859   2.868   9.139 -0.4407 -0.9544 -0.7362
  190POPC  H14R21927   3.783   2.937   9.096 -1.3444 -0.1788  1.8995
  190POPC  H14S21928   3.857   2.784   9.067 -0.7069 -1.7294  0.1644
  190POPC  C21521929   3.995   2.934   9.145 -0.7720 -0.3402  1.3762
  190POPC  H15R21930   4.083   2.874   9.176 -0.4246 -1.5892 -1.6779
  190POPC  H15S21931   3.979   3.027   9.203  1.6346  0.7153  0.4638
  190POPC  C21621932   4.031   2.978   9.002  0.0835 -0.3101 -0.6597
  190POPC  H16R21933   4.034   2.887   8.938  1.8466 -0.5356 -0.3141
  190POPC  H16S21934   4.136   3.012   8.992  0.0012  0.3750  0.6265
  190POPC  C21721935   3.936   3.080   8.931 -0.6698 -0.3961 -0.1140
  190POPC  H17R21936   3.897   3.153   9.005  0.5976 -2.5622  2.9178
  190POPC  H17S21937   3.850   3.018   8.896  0.5740 -1.3052 -1.7049
  190POPC  C21821938   4.012   3.145   8.815 -0.6590  0.3244 -0.0658
  190POPC  H18R21939   4.106   3.185   8.860  2.1335 -2.8594 -2.5527
  190POPC  H18S21940   3.953   3.218   8.756 -0.5066 -0.2323 -0.9185
  190POPC  H18T21941   4.051   3.057   8.759 -0.6757  0.7410 -0.7431
  190POPC   C3321942   3.386   2.467  10.526  0.7278 -0.8342 -0.4213
  190POPC   H3X21943   3.492   2.490  10.507  0.4284  1.1914  0.1837
  190POPC   H3Y21944   3.330   2.559  10.500  3.0123  0.3197 -1.4396
  190POPC   C3421945   3.342   2.351  10.434 -0.4569 -0.2266 -0.1138
  190POPC   H4X21946   3.232   2.335  10.442 -0.4668 -0.2640 -0.3112
  190POPC   H4Y21947   3.392   2.255  10.460  1.3666  0.7864  0.2801
  190POPC   C3521948   3.361   2.380  10.276  0.3674 -0.3636 -0.4940
  190POPC   H5X21949   3.323   2.293  10.219 -3.3770  0.4572  0.4591
  190POPC   H5Y21950   3.468   2.398  10.254  0.2239  1.0681 -0.1194
  190POPC   C3621951   3.283   2.500  10.221 -0.4330 -0.8021  0.5678
  190POPC   H6X21952   3.340   2.594  10.239  0.9691 -1.7207  1.0415
  190POPC   H6Y21953   3.194   2.507  10.288 -0.4052 -4.2327  1.1249
  190POPC   C3721954   3.242   2.486  10.074 -0.6469 -0.2122 -0.3628
  190POPC   H7X21955   3.191   2.579  10.041  1.0140 -0.5115 -4.4380
  190POPC   H7Y21956   3.169   2.404  10.054 -2.5254  1.1884  0.4986
  190POPC   C3821957   3.361   2.484   9.976 -0.1474  0.0233 -0.0447
  190POPC   H8X21958   3.409   2.389  10.009 -1.0251  0.0657  1.4547
  190POPC   H8Y21959   3.436   2.566   9.988 -1.6416  1.5267 -0.6193
  190POPC   C3921960   3.327   2.471   9.828  0.1280 -0.2772 -0.3216
  190POPC   H9X21961   3.256   2.557   9.819  0.0705 -0.1967  0.7482
  190POPC   H9Y21962   3.264   2.382   9.804  0.7719 -1.2384  1.4170
  190POPC  C31021963   3.450   2.493   9.740 -0.3747 -0.2103 -0.6325
  190POPC  H10X21964   3.508   2.399   9.728  0.1479 -0.1609  1.1174
  190POPC  H10Y21965   3.522   2.569   9.777 -2.3461  0.7096  1.6503
  190POPC  C31121966   3.412   2.539   9.600 -0.4375 -0.0989 -0.5386
  190POPC  H11X21967   3.509   2.565   9.552 -0.5741 -0.6092 -1.1041
  190POPC  H11Y21968   3.355   2.633   9.618  0.0698  0.2830 -0.8958
  190POPC  C31221969   3.354   2.435   9.508 -0.5242 -0.9397 -0.0239
  190POPC  H12X21970   3.261   2.394   9.553 -1.5719  0.2520 -1.0214
  190POPC  H12Y21971   3.416   2.345   9.491  2.1711  0.3922  2.1111
  190POPC  C31321972   3.321   2.489   9.362 -0.0827  0.2749 -0.4175
  190POPC  H13X21973   3.238   2.561   9.380  0.1789  0.3603  0.5022
  190POPC  H13Y21974   3.268   2.414   9.300 -0.9509  2.4679 -2.5156
  190POPC  C31421975   3.430   2.544   9.274 -0.6456 -0.5057  0.5004
  190POPC  H14X21976   3.511   2.468   9.266 -0.5535 -0.2636 -1.7378
  190POPC  H14Y21977   3.474   2.634   9.322 -0.9915 -0.6656  1.1202
  190POPC  C31521978   3.389   2.590   9.133 -0.4719 -0.0613 -0.4184
  190POPC  H15X21979   3.296   2.649   9.146  0.9762  1.7082  2.9692
  190POPC  H15Y21980   3.352   2.505   9.071 -1.5254  0.4142 -0.4722
  190POPC  C31621981   3.495   2.655   9.055  0.5061 -0.0576  0.4325
  190POPC  H16X21982   3.521   2.762   9.068  2.8494 -0.6138  0.9488
  190POPC  H16Y21983   3.478   2.658   8.945  2.1192  1.7136  0.1824
  190POPC  H16Z21984   3.594   2.613   9.083  0.1604  0.8454  3.3624
  191POPC     N21985   0.713   4.941   6.111 -0.3607  0.0977  0.9923
  191POPC   C1221986   0.652   4.920   6.248 -0.3688 -0.8057  0.0328
  191POPC  H12A21987   0.546   4.934   6.235 -0.4828  0.5623  1.9717
  191POPC  H12B21988   0.688   4.992   6.321 -3.1173 -0.4649  1.1583
  191POPC   C1321989   0.708   5.088   6.067 -0.0614  0.5780  0.8611
  191POPC  H13A21990   0.729   5.088   5.961 -1.4164 -1.3918  0.5429
  191POPC  H13B21991   0.613   5.134   6.092 -0.6671  1.7750 -2.9348
  191POPC  H13C21992   0.787   5.149   6.108  2.3090 -0.3138 -2.0592
  191POPC   C1421993   0.857   4.902   6.113 -0.7119 -0.4978 -0.5137
  191POPC  H14A21994   0.905   4.899   6.016 -3.4367  3.1136 -2.1992
  191POPC  H14B21995   0.910   4.965   6.183 -0.9649 -1.5817  0.6904
  191POPC  H14C21996   0.861   4.805   6.161 -1.2094 -0.3868 -0.2442
  191POPC   C1521997   0.641   4.860   6.013 -0.0934  0.2765 -0.1289
  191POPC  H15A21998   0.544   4.900   5.987 -0.8857 -0.1475  1.9250
  191POPC  H15B21999   0.637   4.755   6.041  1.6657  0.1404 -0.2727
  191POPC  H15C22000   0.695   4.849   5.920 -0.0948 -1.1183  0.0085
  191POPC   C1122001   0.667   4.788   6.316 -0.2333 -0.1870 -0.1347
  191POPC  H11A22002   0.627   4.799   6.419  0.5415  2.7410 -0.0480
  191POPC  H11B22003   0.774   4.757   6.309 -0.4218 -0.6762 -0.8175
  191POPC     P22004   0.641   4.549   6.220 -0.3229  0.1146  0.0945
  191POPC   O1322005   0.729   4.559   6.100  0.1440 -0.1306  0.0678
  191POPC   O1422006   0.532   4.453   6.201 -0.0265 -0.1153 -0.1827
  191POPC   O1222007   0.585   4.696   6.252  0.2725 -1.2004  0.2829
  191POPC   O1122008   0.722   4.510   6.350 -0.4099  0.4791  0.5240
  191POPC    C122009   0.678   4.411   6.440  0.0324  0.3942  0.1534
  191POPC    HA22010   0.766   4.367   6.490  1.1052  2.1901 -0.0795
  191POPC    HB22011   0.621   4.330   6.389  2.7855 -0.4422 -1.8101
  191POPC    C222012   0.590   4.487   6.547  0.6235 -0.4297  0.0472
  191POPC    HS22013   0.581   4.590   6.507  1.5493 -0.6119 -0.6747
  191POPC   O2122014   0.640   4.468   6.678  0.4289  0.6426  0.0803
  191POPC   C2122015   0.619   4.570   6.756  0.6170  0.3098  0.3092
  191POPC   O2222016   0.577   4.679   6.718 -0.2952  0.4789  0.3793
  191POPC   C2222017   0.646   4.544   6.905  0.1093  0.8233  0.2650
  191POPC   H2R22018   0.750   4.578   6.918 -0.0131  1.5483 -0.5500
  191POPC   H2S22019   0.637   4.436   6.929 -0.3372  0.3070 -1.9967
  191POPC    C322020   0.442   4.432   6.537  0.1115 -1.0133  0.0009
  191POPC    HX22021   0.451   4.321   6.547  2.1548 -0.8253  0.8168
  191POPC    HY22022   0.406   4.457   6.435 -1.1699  1.8233  1.0494
  191POPC   O3122023   0.348   4.485   6.632 -0.4270  0.1566  0.4955
  191POPC   C3122024   0.224   4.462   6.599  0.2992  0.2280  0.0784
  191POPC   O3222025   0.184   4.387   6.503 -0.0906 -1.1524 -0.1224
  191POPC   C3222026   0.134   4.541   6.689 -0.0817 -0.0468 -0.3258
  191POPC   H2X22027   0.092   4.627   6.634  2.1158  2.0870  1.1509
  191POPC   H2Y22028   0.197   4.573   6.775  1.5875  0.6906 -1.7631
  191POPC   C2322029   0.553   4.618   7.004 -0.2929  0.4808  0.9839
  191POPC   H3R22030   0.453   4.570   7.003  1.1554 -2.7479  0.7703
  191POPC   H3S22031   0.544   4.726   6.978  0.8013 -0.0133 -1.6934
  191POPC   C2422032   0.612   4.627   7.143 -0.7124 -0.5844  0.9273
  191POPC   H4R22033   0.717   4.663   7.144 -1.3246  1.2956  0.5856
  191POPC   H4S22034   0.609   4.519   7.172 -0.7282 -1.0211 -0.5925
  191POPC   C2522035   0.530   4.704   7.244  0.2193 -0.3915 -0.5295
  191POPC   H5R22036   0.429   4.656   7.249  0.5391 -1.1215 -0.9291
  191POPC   H5S22037   0.524   4.805   7.199 -1.5933  0.5149  1.5513
  191POPC   C2622038   0.597   4.706   7.381 -0.0197  0.2450 -0.4372
  191POPC   H6R22039   0.703   4.739   7.380  0.1003 -0.1133 -0.0905
  191POPC   H6S22040   0.603   4.599   7.412 -2.4064  0.3140  0.4606
  191POPC   C2722041   0.517   4.775   7.492 -0.0141  0.2618  0.1998
  191POPC   H7R22042   0.418   4.723   7.493  0.5372 -0.8293 -0.2029
  191POPC   H7S22043   0.495   4.877   7.455  0.6008  0.0865 -0.6728
  191POPC   C2822044   0.588   4.768   7.626  0.5575  0.3899 -0.2975
  191POPC   H8R22045   0.632   4.669   7.648  0.4506  0.5706  0.7959
  191POPC   H8S22046   0.515   4.782   7.708 -0.3352  0.6473 -1.1258
  191POPC   C2922047   0.681   4.884   7.638 -0.3639 -0.5949 -0.4944
  191POPC   H9122048   0.679   4.952   7.551 -0.2835  0.4125  0.2747
  191POPC  C21022049   0.768   4.892   7.737  0.1805  0.6163  0.2150
  191POPC  H10122050   0.833   4.980   7.740 -0.5145  1.2416 -1.5459
  191POPC  C21122051   0.784   4.801   7.862 -0.3138 -0.8148  0.3394
  191POPC  H11R22052   0.882   4.750   7.865  0.9392  1.4544  0.2727
  191POPC  H11S22053   0.700   4.730   7.876 -0.4670 -1.0468 -1.5416
  191POPC  C21222054   0.791   4.885   7.995 -0.1840  0.3969 -0.0869
  191POPC  H12R22055   0.695   4.942   8.001 -1.1356 -1.0513 -0.8388
  191POPC  H12S22056   0.867   4.966   7.993 -0.8238  1.0767  1.5564
  191POPC  C21322057   0.797   4.806   8.118  0.6671  0.0105 -0.2620
  191POPC  H13R22058   0.717   4.729   8.114  0.6174  0.1085 -1.4656
  191POPC  H13S22059   0.782   4.864   8.212  1.8097 -0.0718 -0.0034
  191POPC  C21422060   0.928   4.735   8.142  0.0560 -0.5124  0.2457
  191POPC  H14R22061   0.999   4.820   8.149  0.0373 -0.3984 -0.7515
  191POPC  H14S22062   0.958   4.660   8.065  0.1369 -2.4732  2.0956
  191POPC  C21522063   0.936   4.647   8.271 -0.0756  0.3015  0.0720
  191POPC  H15R22064   0.931   4.704   8.366  1.2949 -0.2398  0.4898
  191POPC  H15S22065   1.036   4.599   8.273 -0.7009 -1.0816 -0.6336
  191POPC  C21622066   0.822   4.545   8.278 -0.8416  0.4711 -0.1988
  191POPC  H16R22067   0.821   4.481   8.187  3.1007 -0.8893  0.5295
  191POPC  H16S22068   0.726   4.600   8.269 -1.7693 -0.8525  1.0912
  191POPC  C21722069   0.816   4.455   8.398  0.0291  0.2069 -0.1871
  191POPC  H17R22070   0.825   4.517   8.490  0.9324  1.0609 -0.8301
  191POPC  H17S22071   0.907   4.391   8.409  1.3191  2.2760  2.3446
  191POPC  C21822072   0.687   4.372   8.403  0.5659 -0.2939 -0.2544
  191POPC  H18R22073   0.597   4.437   8.402 -0.9794 -2.3444 -1.4927
  191POPC  H18S22074   0.690   4.294   8.481 -1.7297 -0.7516 -0.5581
  191POPC  H18T22075   0.671   4.314   8.310  1.0519 -0.6017 -0.1461
  191POPC   C3322076   0.015   4.466   6.745  0.3882 -0.0660  0.0080
  191POPC   H3X22077  -0.065   4.452   6.669  1.7021  0.7679 -1.5941
  191POPC   H3Y22078  -0.029   4.531   6.823  1.0927  1.3085 -0.7071
  191POPC   C3422079   0.042   4.321   6.810 -0.5597  0.2822  0.7763
  191POPC   H4X22080   0.090   4.259   6.731  2.9731  2.3754  1.0153
  191POPC   H4Y22081  -0.062   4.298   6.839 -0.3709 -0.2934  0.9936
  191POPC   C3522082   0.130   4.324   6.934  0.1919  0.0440 -0.3372
  191POPC   H5X22083   0.226   4.373   6.906 -0.9448  1.1841 -2.4177
  191POPC   H5Y22084   0.148   4.220   6.969 -2.2278  0.2295  1.7815
  191POPC   C3622085   0.088   4.417   7.052  0.4271 -0.1319 -0.5231
  191POPC   H6X22086  -0.021   4.400   7.067 -0.0565  1.9009 -1.3873
  191POPC   H6Y22087   0.092   4.519   7.009 -1.4808  0.2044 -0.0338
  191POPC   C3722088   0.160   4.396   7.186 -0.1705 -0.0540 -0.1023
  191POPC   H7X22089   0.263   4.439   7.182 -0.4059  0.5455  0.1612
  191POPC   H7Y22090   0.155   4.287   7.209  1.7849 -0.2564 -0.4797
  191POPC   C3822091   0.089   4.473   7.306 -0.2146  0.6130  0.2596
  191POPC   H8X22092  -0.018   4.444   7.310  0.3249 -1.6878 -0.2994
  191POPC   H8Y22093   0.088   4.581   7.279  0.7758  0.6379  0.2810
  191POPC   C3922094   0.166   4.455   7.434  0.0941 -0.4840 -0.5443
  191POPC   H9X22095   0.270   4.484   7.410  0.2910 -1.3701 -0.7800
  191POPC   H9Y22096   0.167   4.355   7.483 -2.0756 -0.6388 -0.6926
  191POPC  C31022097   0.110   4.555   7.542 -0.0435 -0.0659 -0.4163
  191POPC  H10X22098   0.004   4.525   7.553  0.3494 -0.9749  1.2823
  191POPC  H10Y22099   0.122   4.659   7.505  3.1583 -0.7112 -1.5383
  191POPC  C31122100   0.180   4.549   7.684  0.1822  0.1667  0.6416
  191POPC  H11X22101   0.291   4.556   7.681  0.1714  0.1972  0.2692
  191POPC  H11Y22102   0.173   4.451   7.736  1.9332  0.5906  1.7844
  191POPC  C31222103   0.113   4.661   7.769 -0.2435 -0.4282  0.6551
  191POPC  H12X22104   0.024   4.616   7.817 -0.4237 -2.9848 -1.8428
  191POPC  H12Y22105   0.070   4.734   7.696  1.9723 -0.1278 -0.4323
  191POPC  C31322106   0.211   4.729   7.861  0.7799 -0.4679  0.2925
  191POPC  H13X22107   0.155   4.808   7.916  0.7336 -1.3683  1.6056
  191POPC  H13Y22108   0.290   4.781   7.804 -1.5872 -0.6306 -3.4832
  191POPC  C31422109   0.280   4.632   7.963  0.2151  0.1806  0.0246
  191POPC  H14X22110   0.355   4.569   7.910  1.2297 -0.7568  2.4292
  191POPC  H14Y22111   0.203   4.579   8.023 -0.0963 -0.2115 -0.7170
  191POPC  C31522112   0.368   4.703   8.073 -0.3543  0.1806  0.3382
  191POPC  H15X22113   0.444   4.763   8.018 -1.0901 -1.1445 -2.3282
  191POPC  H15Y22114   0.429   4.622   8.117  0.1159 -0.7029 -1.8016
  191POPC  C31622115   0.290   4.772   8.184 -0.2065 -0.5095 -0.1493
  191POPC  H16X22116   0.212   4.709   8.232 -1.5279  0.1031 -1.3992
  191POPC  H16Y22117   0.229   4.860   8.154 -0.9445 -1.4691 -1.5700
  191POPC  H16Z22118   0.361   4.812   8.260  1.7144 -1.3512 -1.4341
  192POPC     N22119   5.066   6.432   6.212  0.4017  0.3641  0.0655
  192POPC   C1222120   5.157   6.363   6.114  0.0083  0.3115  0.6638
  192POPC  H12A22121   5.258   6.402   6.119  2.1229 -3.7462 -3.1380
  192POPC  H12B22122   5.119   6.380   6.014  1.7474  2.5323  0.2991
  192POPC   C1322123   5.121   6.418   6.349 -0.5470 -0.2605 -0.6198
  192POPC  H13A22124   5.080   6.503   6.401 -1.6946 -0.3662 -1.3326
  192POPC  H13B22125   5.099   6.334   6.414  0.5521 -0.6261 -0.6957
  192POPC  H13C22126   5.229   6.417   6.349 -0.5465 -1.1698 -0.7126
  192POPC   C1422127   5.065   6.576   6.176 -0.1574  0.3318 -0.4490
  192POPC  H14A22128   5.163   6.621   6.171 -1.1536  2.5898 -0.9671
  192POPC  H14B22129   5.021   6.595   6.079  0.8928  0.4643 -0.9186
  192POPC  H14C22130   5.006   6.632   6.247  1.5627 -1.6621  2.7758
  192POPC   C1522131   4.920   6.383   6.209 -0.6229 -0.1244  0.3182
  192POPC  H15A22132   4.850   6.454   6.250 -2.3148 -0.7944 -1.2607
  192POPC  H15B22133   4.900   6.288   6.256 -1.3623  0.5348  1.3733
  192POPC  H15C22134   4.893   6.368   6.105  1.0861 -1.1602 -0.0148
  192POPC   C1122135   5.200   6.213   6.136  0.8198 -0.8549 -0.2355
  192POPC  H11A22136   5.249   6.176   6.043  1.6067  0.9527 -0.5789
  192POPC  H11B22137   5.100   6.165   6.138 -0.5006  1.7474  0.6984
  192POPC     P22138   5.427   6.207   6.264  0.0820  0.4661 -0.2765
  192POPC   O1322139   5.451   6.355   6.261  0.1373  0.1307  0.2212
  192POPC   O1422140   5.491   6.127   6.152 -0.2376  0.1031 -0.2672
  192POPC   O1222141   5.267   6.174   6.262 -0.1330 -0.1817  0.2113
  192POPC   O1122142   5.462   6.154   6.399  0.3710 -0.0936  0.4961
  192POPC    C122143   5.386   6.155   6.521 -0.7436 -0.0666  0.5392
  192POPC    HA22144   5.279   6.157   6.491 -1.4130  2.0971  2.7339
  192POPC    HB22145   5.402   6.247   6.581  0.0673 -0.3560  0.7665
  192POPC    C222146   5.419   6.024   6.602  0.2163  0.0224 -0.2464
  192POPC    HS22147   5.349   5.941   6.575  1.2122 -0.5285 -1.2070
  192POPC   O2122148   5.420   6.039   6.740  0.0376 -0.1272  0.2549
  192POPC   C2122149   5.304   6.072   6.803  0.0057 -0.4242 -0.2018
  192POPC   O2222150   5.204   6.109   6.746  0.5503 -0.4628  0.5561
  192POPC   C2222151   5.336   6.065   6.946 -0.4867 -0.4070 -0.1393
  192POPC   H2R22152   5.412   6.144   6.963  0.1039 -1.4292  2.2645
  192POPC   H2S22153   5.368   5.962   6.970 -1.0468 -0.6411 -0.3747
  192POPC    C322154   5.558   5.961   6.572  0.0245  0.3733 -0.2637
  192POPC    HX22155   5.634   6.039   6.589  0.0932  0.6343 -1.6368
  192POPC    HY22156   5.551   5.940   6.463 -1.0410  0.4809 -0.2347
  192POPC   O3122157   5.571   5.832   6.638  0.0128 -0.1950 -0.8419
  192POPC   C3122158   5.696   5.788   6.637 -0.7388 -0.4062  0.1498
  192POPC   O3222159   5.796   5.844   6.588  0.2007 -0.3743 -0.1481
  192POPC   C3222160   5.710   5.653   6.704 -0.2171 -0.0106 -0.4303
  192POPC   H2X22161   5.812   5.612   6.691 -0.5074 -0.7089 -0.5439
  192POPC   H2Y22162   5.636   5.591   6.649  0.7988  0.3249 -2.2487
  192POPC   C2322163   5.214   6.090   7.040 -0.5588  0.2534  0.0074
  192POPC   H3R22164   5.129   6.024   7.014  0.8520 -1.3053 -0.8492
  192POPC   H3S22165   5.182   6.195   7.022  0.4732  0.2967 -1.8157
  192POPC   C2422166   5.252   6.078   7.184  0.2207  0.4771 -0.6350
  192POPC   H4R22167   5.321   6.160   7.211 -1.3450  1.7217 -0.2974
  192POPC   H4S22168   5.294   5.976   7.204  1.6052  1.2286  0.5404
  192POPC   C2522169   5.139   6.092   7.281 -0.2935 -0.3606 -0.1530
  192POPC   H5R22170   5.054   6.033   7.241  0.3759 -0.1161 -2.0489
  192POPC   H5S22171   5.114   6.200   7.272  0.2855 -0.2907 -1.0528
  192POPC   C2622172   5.156   6.069   7.431 -0.1744 -0.2696  0.0223
  192POPC   H6R22173   5.262   6.096   7.455  0.1115 -1.6205  0.3501
  192POPC   H6S22174   5.160   5.961   7.456 -1.7280 -0.5071 -0.6595
  192POPC   C2722175   5.064   6.154   7.523  0.6090 -0.3453  0.0353
  192POPC   H7R22176   5.079   6.263   7.508 -2.1413  0.2716  1.2289
  192POPC   H7S22177   5.099   6.143   7.628 -1.8557 -1.1857  0.8429
  192POPC   C2822178   4.918   6.106   7.519 -0.5990 -0.4190 -0.0874
  192POPC   H8R22179   4.919   5.995   7.528 -0.5096 -0.4763 -0.7661
  192POPC   H8S22180   4.874   6.121   7.418 -0.4203 -0.6308 -0.1966
  192POPC   C2922181   4.834   6.166   7.626  0.1231  0.3501  0.4669
  192POPC   H9122182   4.793   6.265   7.602 -1.1872 -0.3563 -0.3101
  192POPC  C21022183   4.791   6.104   7.737 -0.0988 -0.3363 -0.2918
  192POPC  H10122184   4.702   6.142   7.790  1.0092  0.5419  0.9969
  192POPC  C21122185   4.836   5.968   7.782 -0.0195  0.6762  0.5233
  192POPC  H11R22186   4.940   5.950   7.748  0.3211 -0.1422  1.9129
  192POPC  H11S22187   4.766   5.888   7.752  0.2563  0.4857  0.3916
  192POPC  C21222188   4.834   5.981   7.933  0.7821 -0.2415  0.4750
  192POPC  H12R22189   4.748   6.031   7.983  1.7611  0.0243  1.9512
  192POPC  H12S22190   4.917   6.048   7.962  0.8773 -0.5106  0.8230
  192POPC  C21322191   4.852   5.839   7.993  1.6497 -0.5590 -0.0439
  192POPC  H13R22192   4.934   5.789   7.938  2.0730  0.0558  0.0149
  192POPC  H13S22193   4.759   5.782   7.972  0.4541  0.4666  2.1274
  192POPC  C21422194   4.860   5.861   8.145  0.1381  0.4834  0.0408
  192POPC  H14R22195   4.773   5.910   8.194 -0.2355 -0.3213  0.2031
  192POPC  H14S22196   4.956   5.900   8.186  0.0608  3.8178 -2.5656
  192POPC  C21522197   4.874   5.718   8.210 -0.7447 -0.0399 -0.2244
  192POPC  H15R22198   4.781   5.657   8.209 -1.2525  0.7164 -0.9251
  192POPC  H15S22199   4.895   5.724   8.319 -0.0235  2.3829 -0.4323
  192POPC  C21622200   5.000   5.649   8.157  0.1038 -0.1868  1.4688
  192POPC  H16R22201   5.081   5.725   8.150  0.2894 -0.3672  1.6268
  192POPC  H16S22202   4.990   5.617   8.051  1.8458  1.5524  0.7247
  192POPC  C21722203   5.054   5.539   8.243  0.4506 -0.3679  0.6814
  192POPC  H17R22204   4.981   5.456   8.240 -0.4313  0.4050  0.2265
  192POPC  H17S22205   5.050   5.578   8.347 -0.2892 -1.3995  1.0546
  192POPC  C21822206   5.194   5.484   8.215 -0.4067  0.5572  0.5772
  192POPC  H18R22207   5.196   5.425   8.120  0.7687 -0.1680  1.0300
  192POPC  H18S22208   5.222   5.404   8.287 -2.7969  0.2491  1.2611
  192POPC  H18T22209   5.266   5.568   8.221  0.4110 -0.0239 -0.6856
  192POPC   C3322210   5.673   5.659   6.851 -0.3786  0.4279  0.4749
  192POPC   H3X22211   5.669   5.552   6.880  0.0978  0.6304  1.3162
  192POPC   H3Y22212   5.572   5.697   6.879 -0.0508  0.0665  2.2811
  192POPC   C3422213   5.791   5.711   6.942 -0.2144  0.1771 -0.3147
  192POPC   H4X22214   5.821   5.812   6.907  1.6864  0.0255  0.7430
  192POPC   H4Y22215   5.882   5.649   6.927 -1.9210 -2.4702 -0.2714
  192POPC   C3522216   5.774   5.699   7.095 -0.9355  0.0318  0.8460
  192POPC   H5X22217   5.755   5.591   7.117 -1.3765 -0.3919 -1.3721
  192POPC   H5Y22218   5.684   5.762   7.111 -1.3832 -0.1188 -0.8981
  192POPC   C3622219   5.893   5.758   7.176  0.4666  0.1019  0.5741
  192POPC   H6X22220   5.987   5.745   7.119  0.7081  0.8105  0.8009
  192POPC   H6Y22221   5.910   5.690   7.262  0.6243 -0.0902  0.3913
  192POPC   C3722222   5.869   5.896   7.243  0.5904  0.4142  0.2658
  192POPC   H7X22223   5.781   5.902   7.310 -0.5944 -0.5154 -1.1481
  192POPC   H7Y22224   5.842   5.969   7.164 -1.7853 -0.0786  0.5672
  192POPC   C3822225   5.985   5.925   7.337  0.1014  0.6208 -0.4976
  192POPC   H8X22226   6.080   5.898   7.288 -0.0926  0.4424 -0.7805
  192POPC   H8Y22227   5.970   5.857   7.424 -0.7829 -0.3599 -1.3840
  192POPC   C3922228   5.996   6.073   7.379 -0.2748 -0.1488 -0.0309
  192POPC   H9X22229   5.997   6.135   7.287  1.3406  0.1597  0.1638
  192POPC   H9Y22230   6.092   6.088   7.432 -0.7538 -1.5581  1.3164
  192POPC  C31022231   5.879   6.113   7.470 -0.0383  0.8581 -0.1224
  192POPC  H10X22232   5.781   6.112   7.418 -0.5801  2.7996  0.7458
  192POPC  H10Y22233   5.888   6.221   7.497  1.1623  1.1850 -1.6546
  192POPC  C31122234   5.878   6.022   7.595 -0.0971  0.0744  0.7988
  192POPC  H11X22235   5.986   6.014   7.617  0.2887  3.5685  0.5913
  192POPC  H11Y22236   5.826   5.930   7.559  0.4189 -0.0111  0.2648
  192POPC  C31222237   5.796   6.083   7.721  0.2100  0.7415 -0.1823
  192POPC  H12X22238   5.848   6.177   7.750  0.0358  0.4145  1.2256
  192POPC  H12Y22239   5.796   6.003   7.797 -4.4024 -1.5302 -2.1898
  192POPC  C31322240   5.646   6.114   7.702 -0.5229 -0.1609  0.4918
  192POPC  H13X22241   5.604   6.032   7.640  1.9963 -0.8297 -0.4672
  192POPC  H13Y22242   5.650   6.201   7.633 -1.2010 -2.2992 -2.4006
  192POPC  C31422243   5.579   6.134   7.836 -0.0962 -0.4450  0.0127
  192POPC  H14X22244   5.604   6.046   7.900 -4.1520 -0.8012  1.3688
  192POPC  H14Y22245   5.469   6.129   7.825 -0.3758 -1.3136  2.5172
  192POPC  C31522246   5.605   6.275   7.896 -0.0045  0.2944 -0.3030
  192POPC  H15X22247   5.568   6.348   7.821 -2.8964 -0.2140  0.4905
  192POPC  H15Y22248   5.713   6.294   7.913 -0.6252  3.3322  0.7625
  192POPC  C31622249   5.527   6.285   8.026  0.1592  0.2009 -0.2190
  192POPC  H16X22250   5.549   6.198   8.092 -1.4652  0.7404  1.1198
  192POPC  H16Y22251   5.420   6.277   7.998  0.3443  0.5714 -1.0760
  192POPC  H16Z22252   5.547   6.375   8.088 -0.0868  1.5588 -2.0191
  193SOD    SOD22253   4.998   2.076   6.572 -0.1729 -0.1045 -0.0588
  194SOD    SOD22254   4.477   1.915   5.683  0.6461  0.3843 -0.1595
  195SOD    SOD22255   6.500   3.341  13.919 -0.3165 -0.5592  0.5409
  196SOD    SOD22256   6.088   4.641   1.464 -0.2399 -0.1670 -0.4165
  197SOD    SOD22257   2.275   6.043   0.620  0.0427  0.0683  0.3422
  198SOD    SOD22258   4.989   1.619   2.789 -0.1865  0.5063 -0.5814
  199SOD    SOD22259   5.104   1.718  13.272  0.3645 -0.1130 -0.1098
  200SOD    SOD22260   5.617   4.591   2.201  0.0415 -0.2486 -0.6945
  201SOD    SOD22261   0.454   6.575  14.967  0.7426  0.3790 -0.1550
  202SOD    SOD22262   0.015   2.248   6.429 -0.2451 -0.1876  0.1869
  203SOD    SOD22263   4.258   6.183  10.535 -0.2057  0.0728  0.2062
  204SOD    SOD22264   3.297   0.487   1.793  0.0706  0.3074 -0.3603
  205SOD    SOD22265   5.217   0.109  12.611  0.1433 -0.0638  0.0984
  206SOD    SOD22266   2.211   1.765  16.860 -0.1895 -0.1876  0.0227
  207SOD    SOD22267   0.481   6.673  10.550  0.0134 -0.2746  0.3688
  208SOD    SOD22268   1.913   6.169  12.123 -0.1811 -0.6232  0.1734
  209SOD    SOD22269   6.411   6.736  13.385  0.2957 -0.0572 -0.1490
  210SOD    SOD22270   1.239   5.292  16.797  0.0605  0.3551  0.4502
  211SOD    SOD22271   0.134   6.221  14.058  0.0750  0.4438 -0.1621
  212SOD    SOD22272   5.718   0.694   5.640  0.3226 -0.4992  0.2707
  213SOD    SOD22273   6.588   1.541   1.316 -0.0997 -0.6746  0.2768
  214SOD    SOD22274   3.725   1.962  12.273 -0.5715 -0.1423 -0.0840
  215SOD    SOD22275   6.327   0.485   2.454 -0.4690  0.1473 -0.5648
  216SOD    SOD22276   3.455   6.677  11.185 -0.7638 -0.6705  0.8596
  217SOD    SOD22277   2.329   5.354  11.653  0.2951  0.4768  0.4382
  218SOD    SOD22278   6.100   5.765   6.330 -0.0495  0.0471  0.3746
  219SOD    SOD22279   3.742   5.622  15.067  0.1959  0.3858 -0.3732
  220SOD    SOD22280   6.405   4.095   5.023  0.2634 -0.6828  0.1318
  221SOD    SOD22281   1.360   1.485  14.980  0.0781  0.3636 -0.4429
  222SOD    SOD22282   4.241   6.333   3.286  0.0243  0.5542 -0.0112
  223SOD    SOD22283   1.709   1.152  10.532 -0.2246  0.1580  0.4954
  224SOD    SOD22284   5.788   6.728  11.165  0.0220 -0.4199 -0.1606
  225SOD    SOD22285   5.055   6.154  15.652  0.4798 -0.0146  0.4323
  226SOD    SOD22286   2.157   3.994  11.470 -0.1643  0.5136  0.0245
  227SOD    SOD22287   2.893   1.045  13.786 -0.4841 -0.1787  0.2841
  228SOD    SOD22288   5.998   5.469  10.544 -0.0149 -0.5676  0.0104
  229SOD    SOD22289   2.072   5.145   6.278 -0.0900 -0.2112 -0.2108
  230SOD    SOD22290   5.014   1.195   4.219  0.2808 -0.2467 -0.4901
  231SOD    SOD22291   3.021   5.567  13.598 -0.2213 -0.1269 -0.4051
  232SOD    SOD22292   1.390   2.756  12.685  0.2374 -0.0270  0.1636
  233SOD    SOD22293   5.212   3.542   3.088 -0.2186 -0.1417 -0.4149
  234SOD    SOD22294   2.034   2.140  14.461  0.0206  0.1355  0.3217
  235SOD    SOD22295   0.164   4.198   6.362 -0.2859 -0.4597  0.0419
  236SOD    SOD22296   3.056   2.495   1.462 -0.2189 -0.2685  0.2604
  237SOD    SOD22297   4.889   5.629  16.495 -0.3931 -0.1047 -0.0067
  238SOD    SOD22298   6.462   4.531  10.978 -0.0839 -0.2680  0.6281
  239SOD    SOD22299   5.420   4.034   2.109 -0.1411  0.2201 -0.4346
  240SOD    SOD22300   1.890   5.450  16.091  0.1131  0.0053  0.2805
  241SOD    SOD22301   6.495   3.501   1.004 -0.0612 -0.4204  0.3864
  242SOD    SOD22302   3.978   1.091   0.964  0.0299  0.1061  0.3029
  243SOD    SOD22303   6.796   4.868   3.326  0.1852 -0.3303 -0.1172
  244SOD    SOD22304   3.639   4.576  10.499 -0.2935 -0.2577 -0.1400
  245SOD    SOD22305   2.466   5.094   4.653  0.1483  0.2488 -0.3207
  246SOD    SOD22306   4.462   2.508   1.037  0.5353 -0.2163 -0.5986
  247SOD    SOD22307   5.247   5.389   5.941  0.1300  0.3889 -0.0892
  248SOD    SOD22308   0.033   1.393  13.054 -0.4191 -0.4550  0.4239
  249SOD    SOD22309   5.030   6.574  14.141  0.2086  0.2400 -0.4419
  250SOD    SOD22310   1.005   5.380   2.232 -0.0975 -0.8313  0.3197
  251SOD    SOD22311   2.867   6.302  11.945 -0.0248 -0.1760 -0.2089
  252SOD    SOD22312   2.745   2.876  16.292 -0.1356  0.4212 -0.7948
  253SOD    SOD22313   5.523   2.971   2.550  0.1731  0.1964  0.4910
  254SOD    SOD22314   4.501   4.040   5.489 -0.0569  0.5856  0.1758
  255SOD    SOD22315   3.649   3.225   4.733  0.4318  0.1666 -0.5356
  256SOD    SOD22316   4.696   4.456   4.572  0.6442  0.4291  0.1983
  257SOD    SOD22317   2.100   1.921  11.513 -0.0976 -0.3369 -0.2080
  258SOD    SOD22318   4.127   0.983   3.005 -0.0313  0.3821 -0.0215
  259SOD    SOD22319   3.473   6.004   5.855  0.0826 -0.6464 -0.4306
  260SOD    SOD22320   1.618   4.202  12.487 -0.3114 -0.2001 -0.1082
  261SOD    SOD22321   4.778   3.646   2.347  0.0711  0.0515 -0.2769
  262SOD    SOD22322   0.778   6.621   0.198 -0.2791  0.5371 -0.0451
  263SOD    SOD22323   2.598   1.839   1.440 -0.3385 -0.5224 -0.0684
  264SOD    SOD22324   0.716   2.345   1.268  0.0832 -0.0604  0.0405
  265SOD    SOD22325   3.084   0.296   0.200 -0.0578 -0.1146  0.2365
  266SOD    SOD22326   5.786   4.500   6.357  0.1345  0.0209  0.1160
  267SOD    SOD22327   0.457   5.631   4.178  0.0104  0.2275 -0.7142
  268SOD    SOD22328   1.924   2.082   5.655  0.1877  0.0364 -0.0938
  269SOD    SOD22329   4.748   3.038   6.397  0.0643  0.6473  0.1519
  270CLA    CLA22330   6.746   2.503   4.484 -0.0417 -0.1541 -0.1528
  271CLA    CLA22331   0.018   2.560  14.303 -0.1425  0.2594 -0.1080
  272CLA    CLA22332   0.916   1.567  12.311  0.0900  0.3202 -0.0720
  273CLA    CLA22333   6.129   5.101  11.319  0.3472  0.1458 -0.1754
  274CLA    CLA22334   5.051   0.887  13.011  0.1496  0.2118  0.0196
  275CLA    CLA22335   3.127   0.113   0.406 -0.1375  0.3343 -0.0858
  276CLA    CLA22336   6.297   6.634  14.016  0.1058 -0.0945 -0.5100
  277CLA    CLA22337   0.633   1.241  16.868 -0.3156  0.1365  0.1121
  278CLA    CLA22338   3.679   4.117  12.060 -0.3739  0.2782 -0.0618
  279CLA    CLA22339   0.020   1.438   2.856  0.3631 -0.1146  0.7719
  280CLA    CLA22340   4.743   0.036   4.270  0.3069 -0.0524 -0.1046
  281CLA    CLA22341   4.731   5.770  12.587 -0.0765  0.0338 -0.2585
  282CLA    CLA22342   4.767   4.843  16.528 -0.1666 -0.2428  0.0295
  283CLA    CLA22343   1.496   0.576   1.517 -0.0922  0.4604 -0.1353
  284CLA    CLA22344   5.903   0.522   5.523 -0.2528  0.2308  0.1707
  285CLA    CLA22345   3.099   0.868  12.620  0.0022 -0.4237  0.4067
  286CLA    CLA22346   1.378   2.295   1.319 -0.2659 -0.2492 -0.0049
  287CLA    CLA22347   4.266   5.450   3.208 -0.0499 -0.2474  0.1520
  288CLA    CLA22348   4.651   0.349  16.056 -0.1905 -0.0253 -0.2551
  289CLA    CLA22349   1.671   6.632  13.018  0.2131 -0.2680 -0.0817
  290CLA    CLA22350   5.224   5.187  13.401  0.1605  0.2361 -0.0990
  291CLA    CLA22351   2.550   5.420   4.393  0.1053  0.1630  0.1429
  292CLA    CLA22352   2.565   4.851  13.463  0.2073  0.2035  0.1176
  293CLA    CLA22353   5.471   2.589   3.365  0.0156 -0.1211 -0.0418
  294CLA    CLA22354   4.295   0.796   2.329 -0.0596 -0.1205 -0.3760
  295CLA    CLA22355   2.390   1.426   1.620 -0.4847 -0.2502 -0.2442
  296CLA    CLA22356   4.615   5.561   3.405 -0.1543 -0.2935 -0.1164
  297CLA    CLA22357   1.951   0.913  16.275 -0.0370 -0.1717 -0.2072
  298CLA    CLA22358   4.068   3.778   3.125  0.0129 -0.0470  0.1589
  299CLA    CLA22359   6.082   2.145   1.764  0.2319  0.2602  0.7924
  300CLA    CLA22360   2.719   1.826  14.802  0.0030  0.3221 -0.1228
  301CLA    CLA22361   3.484   1.815   0.881  0.1805 -0.2972  0.0438
  302CLA    CLA22362   6.297   2.123  14.367 -0.5309 -0.0017 -0.0430
  303CLA    CLA22363   0.154   2.581  17.177  0.0630 -0.1871  0.4011
  304CLA    CLA22364   5.986   4.673   1.934 -0.0575  0.0747 -0.2253
  305CLA    CLA22365   0.271   0.801  15.801 -0.1754 -0.4455 -0.1775
  306CLA    CLA22366   1.327   3.802  11.086 -0.0850  0.0206 -0.1167
  307CLA    CLA22367   4.581   6.182  16.038 -0.2744 -0.2803  0.4115
  308CLA    CLA22368   2.467   1.049   1.348 -0.0467  0.0214  0.2445
  309CLA    CLA22369   3.108   6.427   3.635 -0.1618  0.1523  0.1147
  310CLA    CLA22370   2.929   5.634  15.636  0.6195  0.0289  0.0431
  311CLA    CLA22371   0.222   6.480  14.057  0.1807 -0.3488 -0.2757
  312CLA    CLA22372   0.615   0.866   2.002  0.3617 -0.0975  0.0458
  313CLA    CLA22373   5.321   3.742   1.493 -0.2335 -0.4264 -0.0523
  314CLA    CLA22374   3.709   4.936   4.775  0.0046 -0.0513 -0.0471
  315CLA    CLA22375   3.512   1.665   2.785  0.0601 -0.2403  0.0950
  316CLA    CLA22376   2.603   4.598   4.561  0.3011 -0.0556 -0.2976
  317CLA    CLA22377   5.888   0.051  13.803 -0.5449  0.3419  0.1766
  318CLA    CLA22378   4.346   2.313  15.550  0.4424  0.0907  0.4663
  319CLA    CLA22379   3.968   0.831   1.951 -0.0567  0.0529  0.2716
  320CLA    CLA22380   5.497   4.268   2.547  0.2043 -0.1310  0.0677
  321CLA    CLA22381   2.950   2.389   4.395  0.0448  0.1468  0.0780
  322CLA    CLA22382   6.499   5.560   4.864 -0.1101 -0.2016 -0.1594
  323TIP3   OH222383   3.329   5.536   5.477  0.8682  0.1290  0.5205
  323TIP3    H122384   3.407   5.563   5.428  1.1263 -1.0292  0.2445
  323TIP3    H222385   3.284   5.475   5.418 -2.1169  3.2792 -0.7646
  324TIP3   OH222386   2.630   3.978  16.612 -0.1208 -0.4888 -0.3950
  324TIP3    H122387   2.638   3.938  16.699 -0.6189 -0.7459 -0.4575
  324TIP3    H222388   2.605   3.905  16.555  1.4749 -0.5886 -1.0143
  325TIP3   OH222389   1.114   4.734  13.262 -0.3702  0.1375  0.3425
  325TIP3    H122390   1.206   4.749  13.285 -0.6677  3.7300 -0.3193
  325TIP3    H222391   1.118   4.666  13.195  1.6300 -0.7324  1.2296
  326TIP3   OH222392   3.267   0.226   3.619 -0.4884 -0.1580  0.5027
  326TIP3    H122393   3.307   0.300   3.573  0.3530  0.5403  2.2507
  326TIP3    H222394   3.198   0.266   3.673 -2.5466 -1.1573 -1.2514
  327TIP3   OH222395   3.269   1.128  11.433 -0.2801  0.4884 -0.0306
  327TIP3    H122396   3.200   1.098  11.493 -0.7010  1.3666 -0.0553
  327TIP3    H222397   3.241   1.095  11.348 -0.6828  0.8514 -0.0434
  328TIP3   OH222398   3.877   6.368   0.030 -0.3615 -0.4159  0.4958
  328TIP3    H122399   3.893   6.401  -0.059  0.8302  2.1849  1.5796
  328TIP3    H222400   3.939   6.295   0.039  0.8403  0.4755 -0.2170
  329TIP3   OH222401   3.329   5.852   3.718  0.4282 -0.1066  0.4402
  329TIP3    H122402   3.385   5.910   3.665  1.1882 -0.7245  0.5574
  329TIP3    H222403   3.366   5.856   3.806 -1.3953  1.6696  1.2247
  330TIP3   OH222404   1.335   6.162  13.354 -0.2621  0.5773  0.4930
  330TIP3    H122405   1.322   6.202  13.440 -0.8264 -1.1758  1.2678
  330TIP3    H222406   1.403   6.097  13.367  1.2417  1.7780 -0.9338
  331TIP3   OH222407   3.199   1.073   3.308  0.1821  0.0274 -0.0490
  331TIP3    H122408   3.235   1.028   3.384  0.4571 -0.5377 -0.5092
  331TIP3    H222409   3.270   1.129   3.277  0.9621 -1.6198 -1.3874
  332TIP3   OH222410   4.319   6.195  12.980  0.5321  0.2806  0.1845
  332TIP3    H122411   4.281   6.194  12.893  1.7270 -2.3064 -0.3943
  332TIP3    H222412   4.295   6.111  13.019  0.1544  1.2947  2.3317
  333TIP3   OH222413   5.573   1.170   0.304 -0.1081 -0.5135 -0.0774
  333TIP3    H122414   5.596   1.254   0.266 -0.9789 -0.6779 -1.0099
  333TIP3    H222415   5.555   1.189   0.396 -0.7951  0.4176 -0.3918
  334TIP3   OH222416   0.217   4.758   5.601  0.2873 -0.3154 -0.3135
  334TIP3    H122417   0.206   4.776   5.694 -0.6155  1.2459 -0.6765
  334TIP3    H222418   0.219   4.663   5.594  2.4559 -0.4694  1.4942
  335TIP3   OH222419   3.298   5.683  11.628  0.3177 -0.3334 -0.1811
  335TIP3    H122420   3.380   5.659  11.672 -0.0259  0.7097  1.0609
  335TIP3    H222421   3.324   5.698  11.537  1.0151 -2.6620 -0.4533
  336TIP3   OH222422   5.486   0.441  14.210  0.3954  0.1120  0.6589
  336TIP3    H122423   5.552   0.472  14.273  0.6813 -1.5737  1.2479
  336TIP3    H222424   5.403   0.456  14.254  0.5373 -0.0865  1.0014
  337TIP3   OH222425   6.441   3.540  11.537 -0.1810  0.3284 -0.2583
  337TIP3    H122426   6.441   3.524  11.632 -2.0523  0.7530 -0.1383
  337TIP3    H222427   6.378   3.477  11.503 -0.2537  0.8480 -1.0910
  338TIP3   OH222428   3.425   6.723   4.474 -0.3556 -0.0400 -0.0166
  338TIP3    H122429   3.470   6.647   4.511 -0.5297 -0.4609 -0.6405
  338TIP3    H222430   3.494   6.785   4.453 -0.1505 -0.2967 -0.1016
  339TIP3   OH222431   2.121   2.283  14.026  0.4820 -0.1472 -0.2982
  339TIP3    H122432   2.037   2.329  14.025 -0.9322 -2.5530 -1.0614
  339TIP3    H222433   2.183   2.347  14.062 -1.6586  1.6920  0.3725
  340TIP3   OH222434   2.021   6.511   3.646 -0.3151 -0.0054  0.2032
  340TIP3    H122435   2.108   6.501   3.684  0.4477  1.0846 -1.1558
  340TIP3    H222436   2.019   6.602   3.614 -1.4464 -0.4073 -0.9521
  341TIP3   OH222437   3.928   5.715   0.526 -0.0314 -0.0990  0.1109
  341TIP3    H122438   3.891   5.732   0.613 -1.6460  0.5372 -0.6682
  341TIP3    H222439   3.920   5.620   0.515 -1.3768  0.0165 -0.0041
  342TIP3   OH222440   6.614   0.140  15.108 -0.4573 -1.0328  0.5873
  342TIP3    H122441   6.567   0.096  15.037 -0.8861  0.0661  0.1681
  342TIP3    H222442   6.576   0.227  15.111  0.9720 -0.3923  0.8073
  343TIP3   OH222443   2.687   2.541   3.202 -0.1199  0.2808  0.0845
  343TIP3    H122444   2.773   2.502   3.216 -0.1458 -0.5304 -1.7144
  343TIP3    H222445   2.647   2.543   3.289  0.8116 -1.5525  0.6043
  344TIP3   OH222446   3.278   1.426   1.384  0.4236  0.3280  0.1067
  344TIP3    H122447   3.247   1.458   1.468  2.0304  0.8588  0.5405
  344TIP3    H222448   3.203   1.434   1.325 -1.4701 -2.1943  1.9616
  345TIP3   OH222449   2.054   3.296  12.802 -0.8224 -0.0587  0.6508
  345TIP3    H122450   1.991   3.241  12.755 -1.4746  1.0808  0.1297
  345TIP3    H222451   2.140   3.263  12.777 -1.1728  0.1260 -0.8902
  346TIP3   OH222452   5.508   5.310  11.539  0.0114  0.3751  0.2824
  346TIP3    H122453   5.528   5.334  11.449  0.1229  1.9773  0.7128
  346TIP3    H222454   5.533   5.386  11.591  1.6478 -1.1774  1.8987
  347TIP3   OH222455   3.876   6.543  16.030  0.0476  0.1837 -0.7244
  347TIP3    H122456   3.914   6.542  15.942 -0.9515 -0.2387 -1.1617
  347TIP3    H222457   3.890   6.632  16.061  1.5220  0.0128 -0.7988
  348TIP3   OH222458   1.090   5.306   0.397  0.4489  0.3912 -0.2983
  348TIP3    H122459   1.151   5.375   0.372  2.2425 -1.0756 -0.1392
  348TIP3    H222460   1.144   5.228   0.407 -1.3370 -0.7977  0.6600
  349TIP3   OH222461   6.761   4.103   3.142 -0.3706  0.1778  0.2866
  349TIP3    H122462   6.693   4.163   3.174 -0.9209  0.0631 -0.6461
  349TIP3    H222463   6.723   4.062   3.065 -0.5560 -2.4135  1.6399
  350TIP3   OH222464   4.858   1.949  11.798  0.2518  0.0313  0.1741
  350TIP3    H122465   4.765   1.960  11.818  0.2974  0.4277  0.1822
  350TIP3    H222466   4.875   2.016  11.731  0.3283 -0.6173 -0.4643
  351TIP3   OH222467   3.838   6.119  15.959  0.2911 -0.2560  0.6896
  351TIP3    H122468   3.866   6.189  16.019  0.6068 -0.1691  0.4407
  351TIP3    H222469   3.743   6.128  15.955  0.4362  1.0053 -0.3734
  352TIP3   OH222470   2.898   6.340   5.600  0.2543 -0.1612 -0.1741
  352TIP3    H122471   2.937   6.423   5.625  2.2150 -1.6227  2.0178
  352TIP3    H222472   2.962   6.300   5.541 -1.0244  0.1105 -1.8458
  353TIP3   OH222473   2.018   2.442   5.455  0.0333 -0.5670  0.8440
  353TIP3    H122474   1.933   2.462   5.416  0.2404  0.6919  1.0027
  353TIP3    H222475   2.058   2.527   5.471  0.5592 -1.0705  2.4757
  354TIP3   OH222476   1.751   6.367   4.070  0.2143  0.2487 -0.1272
  354TIP3    H122477   1.714   6.456   4.072 -0.5257 -0.0727  1.4125
  354TIP3    H222478   1.801   6.361   4.151 -1.1097 -1.2919  0.6258
  355TIP3   OH222479   4.540   4.478   5.128 -0.0299  0.5136 -1.0042
  355TIP3    H122480   4.587   4.396   5.114  1.1084  0.9698 -0.0274
  355TIP3    H222481   4.532   4.516   5.041 -0.7906 -0.7286 -1.5046
  356TIP3   OH222482   2.747   4.263   1.714 -0.0705  0.4731 -0.6843
  356TIP3    H122483   2.678   4.290   1.653  0.8223  1.7139 -1.1730
  356TIP3    H222484   2.761   4.170   1.694 -0.8831  0.4668 -1.2865
  357TIP3   OH222485   1.397   2.127  15.748 -0.1664 -0.1970  0.0375
  357TIP3    H122486   1.413   2.134  15.654  1.1175 -0.8130  0.1845
  357TIP3    H222487   1.312   2.168  15.762 -0.0022  0.6244 -1.2730
  358TIP3   OH222488   6.470   5.832  15.087  0.2598  0.4036  0.4310
  358TIP3    H122489   6.443   5.899  15.024 -1.6935  0.2263  0.9911
  358TIP3    H222490   6.488   5.755  15.032 -1.9908  0.0710  0.0368
  359TIP3   OH222491   6.074   5.079  10.274  0.0839  0.1147  0.3865
  359TIP3    H122492   5.989   5.037  10.284  0.3200 -0.8385 -1.1431
  359TIP3    H222493   6.115   5.032  10.201  1.8106  0.7240  0.9056
  360TIP3   OH222494   1.802   2.145   3.944  0.3623 -0.5611  0.0779
  360TIP3    H122495   1.871   2.209   3.962  1.2005 -1.4528  0.1154
  360TIP3    H222496   1.758   2.132   4.028 -1.2488  1.5500 -0.3584
  361TIP3   OH222497   4.086   6.557   3.651 -0.1466 -0.4599 -0.1503
  361TIP3    H122498   4.027   6.529   3.722 -0.4684 -0.6649 -0.4985
  361TIP3    H222499   4.028   6.592   3.584  0.1372 -0.5759 -0.4571
  362TIP3   OH222500   3.558   5.024  11.755  0.1002  0.1853  0.5242
  362TIP3    H122501   3.623   5.095  11.758 -1.0540  1.3909 -1.3383
  362TIP3    H222502   3.495   5.047  11.823  0.8415 -0.2323  1.3762
  363TIP3   OH222503   4.810   4.278   3.990  0.0984 -0.7520  0.5484
  363TIP3    H122504   4.742   4.344   4.003 -1.0847 -1.8354  0.0897
  363TIP3    H222505   4.796   4.215   4.060 -0.6138 -1.9557 -0.6278
  364TIP3   OH222506   3.182   6.074  14.696 -0.1390  0.3476 -0.5105
  364TIP3    H122507   3.127   6.151  14.712 -0.8916 -0.3793  0.4799
  364TIP3    H222508   3.127   6.016  14.644 -1.0397 -1.1551  1.9787
  365TIP3   OH222509   3.591   1.341   2.093  0.1487 -0.1282  0.0398
  365TIP3    H122510   3.686   1.326   2.096  0.1020 -0.3583  0.2966
  365TIP3    H222511   3.576   1.408   2.160 -0.0064 -0.7929  0.6799
  366TIP3   OH222512   1.285   6.540  16.705  0.5417 -0.1064 -0.3051
  366TIP3    H122513   1.263   6.471  16.768 -0.8338  0.8057  0.2650
  366TIP3    H222514   1.321   6.493  16.630 -0.3163 -1.4615  0.0876
  367TIP3   OH222515   5.251   1.343   2.587 -0.3459 -0.0382 -0.4903
  367TIP3    H122516   5.307   1.418   2.609 -2.2787  1.4077 -0.1440
  367TIP3    H222517   5.250   1.341   2.491  0.3802 -0.1442 -0.4971
  368TIP3   OH222518   3.042   1.147  15.297  0.3545 -0.1116  0.1749
  368TIP3    H122519   2.949   1.132  15.314  0.1304  1.2541  0.2613
  368TIP3    H222520   3.079   1.164  15.384  0.7070 -0.7178  0.1484
  369TIP3   OH222521   2.192   3.047  11.220  0.4230  0.6041  0.0861
  369TIP3    H122522   2.107   3.004  11.223  0.5044  0.4664  0.6153
  369TIP3    H222523   2.224   3.032  11.131  0.4111 -0.3694  0.2341
  370TIP3   OH222524   0.474   3.978  11.854 -0.7220  0.1395 -0.3040
  370TIP3    H122525   0.423   4.059  11.849  0.5898  1.2600  2.2122
  370TIP3    H222526   0.546   3.991  11.792 -1.0543  0.4760 -0.6233
  371TIP3   OH222527   2.908   6.730  13.612 -0.4050 -0.2335 -0.2710
  371TIP3    H122528   2.893   6.708  13.520 -0.4123 -0.1016 -0.3014
  371TIP3    H222529   2.999   6.759  13.616 -0.0349 -1.3792 -0.0189
  372TIP3   OH222530   2.301   5.781   4.672  0.6237  0.0140 -0.0654
  372TIP3    H122531   2.229   5.719   4.664  0.5409  0.1075 -0.0509
  372TIP3    H222532   2.264   5.864   4.639  0.1082  0.5458  1.7335
  373TIP3   OH222533   2.664   2.776  13.414  0.1263  0.4935 -0.3778
  373TIP3    H122534   2.724   2.717  13.369 -0.1268  0.0791 -0.1691
  373TIP3    H222535   2.713   2.858  13.422  1.0042 -0.0937  0.5705
  374TIP3   OH222536   3.961   5.944  14.658  0.0793 -0.0112 -0.1013
  374TIP3    H122537   3.867   5.958  14.643 -0.0716 -0.2805  0.5880
  374TIP3    H222538   4.000   5.952  14.571 -0.7195 -0.9794 -0.5717
  375TIP3   OH222539   5.272   5.026  10.930  0.1354 -0.5462  0.3580
  375TIP3    H122540   5.264   5.044  10.837  1.3084  1.2741  0.5479
  375TIP3    H222541   5.187   5.049  10.967 -0.7674 -2.5085 -0.3854
  376TIP3   OH222542   0.791   4.779  14.318  0.3298 -0.1790 -1.1407
  376TIP3    H122543   0.765   4.689  14.339  0.4880 -0.4196 -1.9509
  376TIP3    H222544   0.832   4.773  14.231 -0.9994  0.8904 -1.8857
  377TIP3   OH222545   2.765   3.100   5.975 -0.2169  0.2910 -0.4869
  377TIP3    H122546   2.835   3.034   5.978 -0.8190 -0.3333  0.6958
  377TIP3    H222547   2.703   3.071   6.042 -0.6673  1.8876 -0.1773
  378TIP3   OH222548   3.910   4.055   3.100 -0.0886 -0.2421  0.0550
  378TIP3    H122549   3.974   3.985   3.089  0.1037 -0.0301 -0.1798
  378TIP3    H222550   3.871   4.038   3.186 -1.4505 -1.7674 -0.8153
  379TIP3   OH222551   3.552   1.468   1.475 -0.1487  0.6756 -0.4367
  379TIP3    H122552   3.470   1.438   1.436 -0.3723  0.4950  0.1637
  379TIP3    H222553   3.607   1.490   1.400 -0.0436 -1.0376 -0.9088
  380TIP3   OH222554   6.662   2.426   6.465  0.7102 -0.2519 -0.1845
  380TIP3    H122555   6.594   2.420   6.532  1.5530  2.5230  1.0204
  380TIP3    H222556   6.675   2.519   6.452  0.6421 -0.6276 -4.2410
  381TIP3   OH222557   6.538   4.336  12.112  0.6320 -0.3903 -0.4482
  381TIP3    H122558   6.563   4.277  12.183 -0.9428 -0.1694  0.3178
  381TIP3    H222559   6.476   4.286  12.060 -0.0948  0.2875 -0.2537
  382TIP3   OH222560   3.289   5.748  13.188 -0.4834  0.4310  0.2055
  382TIP3    H122561   3.352   5.711  13.126 -1.0308  1.7293 -1.1980
  382TIP3    H222562   3.342   5.774  13.263  0.2733 -0.7736  0.1106
  383TIP3   OH222563   1.723   6.566   2.873  0.5637  0.0070 -0.6700
  383TIP3    H122564   1.792   6.626   2.901  1.1649 -1.1880  0.5459
  383TIP3    H222565   1.657   6.622   2.833  0.8780  1.5374  0.8508
  384TIP3   OH222566   2.197   0.345   4.806 -0.1104 -0.1069  0.8066
  384TIP3    H122567   2.207   0.312   4.895 -1.9995  0.9194  1.4623
  384TIP3    H222568   2.282   0.383   4.784  0.7473 -1.4479  1.6903
  385TIP3   OH222569   5.360   5.673  12.796  0.0687  0.1318 -0.5223
  385TIP3    H122570   5.405   5.591  12.775  1.4326  1.1597 -1.7592
  385TIP3    H222571   5.271   5.646  12.818  1.5440 -2.2144  3.8539
  386TIP3   OH222572   4.575   2.918  12.398 -0.7163  0.5084  0.2329
  386TIP3    H122573   4.589   2.873  12.481  1.0762  1.5293  0.5471
  386TIP3    H222574   4.523   2.995  12.420 -1.6148 -0.0613  0.1243
  387TIP3   OH222575   4.407   5.616  13.648  0.2794  0.6769  0.6502
  387TIP3    H122576   4.312   5.614  13.641  0.2962  1.6579  0.0204
  387TIP3    H222577   4.433   5.524  13.642 -0.6099  0.4102  0.7007
  388TIP3   OH222578   1.930   4.858  12.056  0.1341  0.3611  0.2886
  388TIP3    H122579   1.907   4.897  12.140  2.3285  1.8257  0.2933
  388TIP3    H222580   1.954   4.768  12.077 -1.7458 -0.0475  0.8063
  389TIP3   OH222581   5.511   0.450  15.590  0.5333  0.1120  0.2552
  389TIP3    H122582   5.526   0.485  15.502  2.4239  2.3120  1.3324
  389TIP3    H222583   5.569   0.374  15.596 -1.0572 -1.2677 -0.9803
  390TIP3   OH222584   6.042   6.308  16.436 -0.5619  0.5472 -0.1119
  390TIP3    H122585   6.130   6.282  16.409 -0.1607  0.8432  0.8750
  390TIP3    H222586   6.020   6.250  16.509 -0.0933  2.1502  1.3870
  391TIP3   OH222587   6.716   3.385  15.194  0.1582 -0.2937  0.0202
  391TIP3    H122588   6.778   3.444  15.238 -0.9410  0.5175  0.5066
  391TIP3    H222589   6.767   3.306  15.178  1.1761  0.1457  0.9158
  392TIP3   OH222590   5.837   0.174   5.208 -0.0987 -0.6097 -0.2591
  392TIP3    H122591   5.854   0.263   5.180 -0.2199 -0.3290  0.5261
  392TIP3    H222592   5.885   0.119   5.146 -0.5630 -0.0317 -1.1513
  393TIP3   OH222593   3.437   2.674   1.378  0.2653  0.2732 -0.4129
  393TIP3    H122594   3.361   2.625   1.411  1.1429 -0.7498  0.1822
  393TIP3    H222595   3.463   2.730   1.451 -0.8042  1.7590 -1.1320
  394TIP3   OH222596   6.547   5.104  14.572 -0.0569  0.2707  0.4360
  394TIP3    H122597   6.600   5.035  14.613 -0.4596  0.0367  0.5625
  394TIP3    H222598   6.604   5.182  14.574  0.3146  0.0017  0.4933
  395TIP3   OH222599   4.046   2.026   3.883  0.1659  0.6576 -0.0847
  395TIP3    H122600   4.013   1.947   3.840  0.0468  0.1095  0.9829
  395TIP3    H222601   3.969   2.083   3.891  0.4199  1.2642 -1.6165
  396TIP3   OH222602   2.671   0.633   4.767  0.3093  0.5965 -0.0583
  396TIP3    H122603   2.686   0.595   4.681 -0.5173 -2.4352  1.0105
  396TIP3    H222604   2.601   0.697   4.753  1.6043  1.6796 -1.9191
  397TIP3   OH222605   0.550   4.436  10.692  0.2157  0.6620 -0.3629
  397TIP3    H122606   0.605   4.358  10.690 -0.7825 -0.1556  1.8019
  397TIP3    H222607   0.610   4.508  10.678  1.4761 -0.3604 -0.3764
  398TIP3   OH222608   4.144   5.044   4.322  0.0151  0.3767 -0.0092
  398TIP3    H122609   4.200   5.082   4.389  0.9906  0.6931 -0.9835
  398TIP3    H222610   4.197   4.973   4.285 -0.8205 -0.3099  0.0720
  399TIP3   OH222611   1.211   1.909  15.344  0.5466  0.0695  0.1161
  399TIP3    H122612   1.134   1.861  15.314  1.5671 -0.3698 -2.0117
  399TIP3    H222613   1.233   1.869  15.428 -0.5386 -0.9382 -0.0473
  400TIP3   OH222614   3.223   3.476  13.611  0.2676  0.0748  0.8045
  400TIP3    H122615   3.258   3.388  13.596  0.0927  0.0715  0.4058
  400TIP3    H222616   3.240   3.522  13.529 -1.0248 -0.0511  0.4444
  401TIP3   OH222617   2.745   5.315  13.961 -0.8820  0.1320 -0.0764
  401TIP3    H122618   2.668   5.327  13.905 -0.1701 -1.4550 -1.4727
  401TIP3    H222619   2.729   5.232  14.006 -0.1946  0.0229 -0.0290
  402TIP3   OH222620   5.091   2.263  11.504  0.1703 -0.1902  0.6418
  402TIP3    H122621   5.179   2.248  11.468  0.0333  0.2186  0.1387
  402TIP3    H222622   5.065   2.177  11.539  0.3091 -0.5811 -0.2006
  403TIP3   OH222623   0.525   6.468  14.166  0.2768 -0.0929 -0.0196
  403TIP3    H122624   0.556   6.558  14.157 -0.3073  0.3505  1.9257
  403TIP3    H222625   0.436   6.470  14.132  0.2959  0.0536 -0.0635
  404TIP3   OH222626   1.858   2.896  12.226 -0.4292  0.0388 -0.0139
  404TIP3    H122627   1.878   2.953  12.152 -0.7338 -1.7138 -1.5088
  404TIP3    H222628   1.772   2.860  12.206 -0.4967 -0.5089  1.1760
  405TIP3   OH222629   5.559   1.724  13.410 -0.3386 -0.5376 -0.1790
  405TIP3    H122630   5.619   1.799  13.410 -1.1497  0.1638 -2.0358
  405TIP3    H222631   5.542   1.708  13.503  1.5200  0.2032  0.3344
  406TIP3   OH222632   6.693   4.533   6.274  0.4752 -0.2539  0.6153
  406TIP3    H122633   6.603   4.513   6.248 -0.3375  3.4521  0.0079
  406TIP3    H222634   6.685   4.599   6.343  2.7762 -0.9417  1.6587
  407TIP3   OH222635   6.051   0.669  16.718 -0.2205 -0.6309 -0.3491
  407TIP3    H122636   6.049   0.696  16.810 -0.2446 -1.2214 -0.1724
  407TIP3    H222637   5.962   0.641  16.699 -1.0807  2.4067 -1.4812
  408TIP3   OH222638   0.973   6.287   1.990 -0.0812 -0.1244  0.5206
  408TIP3    H122639   0.948   6.261   1.902 -0.7863 -0.3541  0.7801
  408TIP3    H222640   1.011   6.375   1.979  0.8230 -0.5763 -0.1393
  409TIP3   OH222641   2.194   0.614   4.040 -0.0429  0.1376  0.1199
  409TIP3    H122642   2.290   0.614   4.046  0.0396  1.8529 -0.4457
  409TIP3    H222643   2.174   0.694   3.990 -1.7223 -0.7926 -0.7624
  410TIP3   OH222644   4.081   0.294  15.641  0.0939  0.2473 -0.3702
  410TIP3    H122645   4.036   0.275  15.723  4.1702 -0.4185  1.9617
  410TIP3    H222646   4.095   0.388  15.642 -1.9952  0.6288 -1.6439
  411TIP3   OH222647   6.032   6.632   0.245  0.6093 -0.5210 -0.1019
  411TIP3    H122648   6.065   6.719   0.267 -0.1643 -0.3140  0.2726
  411TIP3    H222649   6.076   6.609   0.163  1.3068 -0.0565  0.1318
  412TIP3   OH222650   6.596   1.868  15.913  0.5234  0.3972  0.6688
  412TIP3    H122651   6.660   1.847  15.846  0.0280  0.4509  0.1712
  412TIP3    H222652   6.538   1.792  15.915 -0.1031  0.8583  0.2651
  413TIP3   OH222653   3.631   6.158   5.926  0.0122 -0.0533 -0.2695
  413TIP3    H122654   3.657   6.235   5.875  0.1563  0.9473  1.2673
  413TIP3    H222655   3.710   6.133   5.974  0.1652 -1.6096 -1.2356
  414TIP3   OH222656   3.839   1.205   2.033  0.2861  0.7344  0.1309
  414TIP3    H122657   3.874   1.124   1.995 -0.5224 -0.2012  1.2839
  414TIP3    H222658   3.893   1.275   1.995  1.2161 -0.3686 -0.6539
  415TIP3   OH222659   0.448   3.204  14.294  0.1090 -0.2738  0.3634
  415TIP3    H122660   0.524   3.157  14.262  0.3970  0.1487  0.4271
  415TIP3    H222661   0.483   3.271  14.354 -0.2565  0.3066 -0.0572
  416TIP3   OH222662   5.195   3.644  13.792  0.1080 -0.2144  0.0518
  416TIP3    H122663   5.145   3.688  13.724 -0.0907  0.4650  0.6186
  416TIP3    H222664   5.166   3.553  13.788 -1.9987  0.3427  1.0504
  417TIP3   OH222665   1.679   6.565  15.309 -0.0721 -0.3705  0.0240
  417TIP3    H122666   1.722   6.616  15.379  0.0463 -1.5891  0.8606
  417TIP3    H222667   1.710   6.606  15.228 -0.0520  0.9435  0.6636
  418TIP3   OH222668   2.480   5.273   2.381 -0.2942  0.8235  0.0645
  418TIP3    H122669   2.539   5.228   2.319 -1.3847  0.0157 -0.4167
  418TIP3    H222670   2.537   5.297   2.454  0.3925 -1.1083  0.2221
  419TIP3   OH222671   0.754   1.957   4.252  0.2888 -0.2479 -0.1818
  419TIP3    H122672   0.807   2.023   4.298  0.0121 -0.3674  0.3192
  419TIP3    H222673   0.815   1.886   4.232  0.9935  0.8632 -2.2521
  420TIP3   OH222674   2.907   4.429  16.500 -0.1083 -0.5322  0.5292
  420TIP3    H122675   2.850   4.499  16.531  1.4020  0.5514  1.0309
  420TIP3    H222676   2.870   4.349  16.538 -1.2415  0.1338  0.8725
  421TIP3   OH222677   1.016   5.436   4.796  0.0454  0.4968 -0.0662
  421TIP3    H122678   0.993   5.415   4.887  3.2314 -0.4290  0.6594
  421TIP3    H222679   1.014   5.532   4.793 -3.9672  0.5678 -0.2855
  422TIP3   OH222680   0.546   4.758  15.428 -0.0712  0.4431 -0.0717
  422TIP3    H122681   0.627   4.808  15.437  0.1190  0.0811  0.2837
  422TIP3    H222682   0.504   4.794  15.351 -0.3272  1.6962  0.6281
  423TIP3   OH222683   3.402   6.797   3.043 -0.5948 -0.5588 -0.0799
  423TIP3    H122684   3.369   6.834   3.125 -1.6777 -1.4507 -0.0892
  423TIP3    H222685   3.449   6.718   3.069 -0.7777 -0.7417 -0.3009
  424TIP3   OH222686   0.034   4.215   0.454 -0.6905 -0.3501 -0.3810
  424TIP3    H122687   0.010   4.261   0.534 -1.3780 -0.1738 -0.6841
  424TIP3    H222688   0.104   4.269   0.416 -1.6240  0.5798 -0.8364
  425TIP3   OH222689   1.199   3.756   0.419 -0.6213 -0.4448  0.5752
  425TIP3    H122690   1.284   3.721   0.445 -0.9602 -1.5093  0.3136
  425TIP3    H222691   1.197   3.745   0.324 -1.3357 -1.1461  0.6573
  426TIP3   OH222692   5.257   4.738  11.322 -0.0102  0.6050  0.2413
  426TIP3    H122693   5.165   4.724  11.344 -0.0429 -0.2813 -0.4143
  426TIP3    H222694   5.254   4.781  11.236  0.1835 -2.7879 -1.6263
  427TIP3   OH222695   2.481   6.626  12.168 -0.7251  0.1677 -0.5832
  427TIP3    H122696   2.494   6.689  12.097  0.9768 -0.9073 -1.3076
  427TIP3    H222697   2.542   6.654  12.237 -2.2148  1.0840  0.4272
  428TIP3   OH222698   5.637   4.794  15.962 -0.1355  0.3618 -0.3155
  428TIP3    H122699   5.608   4.883  15.983  0.2596  0.2316  0.8319
  428TIP3    H222700   5.724   4.806  15.923  0.5323  0.4028  1.1356
  429TIP3   OH222701   3.085   3.772   6.084 -0.3516 -0.5202 -0.2963
  429TIP3    H122702   3.179   3.781   6.069 -0.2086  1.0444  1.2476
  429TIP3    H222703   3.077   3.755   6.178 -1.6344 -0.2270 -0.3366
  430TIP3   OH222704   3.357   1.604  16.416 -0.2262 -0.3253  0.3465
  430TIP3    H122705   3.367   1.547  16.493  0.3827 -0.4431  0.1818
  430TIP3    H222706   3.371   1.547  16.341  0.2216  0.0070  0.1745
  431TIP3   OH222707   2.939   2.531  12.659 -0.3432 -0.4247 -0.1923
  431TIP3    H122708   2.847   2.508  12.647 -0.3119 -0.2761 -0.7618
  431TIP3    H222709   2.962   2.577  12.578  0.1108 -0.0761  0.1330
  432TIP3   OH222710   3.865   6.112  13.196 -0.2290  0.0503 -0.3822
  432TIP3    H122711   3.900   6.023  13.201 -0.6651 -0.0730  0.9808
  432TIP3    H222712   3.874   6.147  13.285  0.6541  1.6656 -1.0622
  433TIP3   OH222713   6.264   2.233   3.558  0.4855 -0.2740 -0.4322
  433TIP3    H122714   6.292   2.142   3.549 -0.6428 -0.5825 -0.9231
  433TIP3    H222715   6.230   2.240   3.647 -1.5304 -0.9542 -1.0990
  434TIP3   OH222716   5.840   2.432  12.833  0.2303 -0.1739 -0.4946
  434TIP3    H122717   5.869   2.413  12.743 -2.4165 -2.3310 -1.0434
  434TIP3    H222718   5.763   2.488  12.821  0.5509  0.5002  0.5272
  435TIP3   OH222719   2.807   5.686   1.593 -0.1052  0.0074  0.4174
  435TIP3    H122720   2.753   5.759   1.563 -1.1554 -1.0221 -0.2671
  435TIP3    H222721   2.878   5.681   1.529  0.3953  0.8702  0.8830
  436TIP3   OH222722   2.626   0.283   0.927 -0.6710  0.0146 -0.4542
  436TIP3    H122723   2.669   0.343   0.866  0.3120  1.0324  1.1424
  436TIP3    H222724   2.557   0.335   0.968 -0.6899 -0.3558 -0.0046
  437TIP3   OH222725   5.803   2.359  11.671  0.6152  0.5485 -0.5691
  437TIP3    H122726   5.774   2.359  11.580  0.6130  3.2596 -0.6481
  437TIP3    H222727   5.735   2.407  11.718 -0.4819 -2.6067  1.3493
  438TIP3   OH222728   1.398   1.401  12.753 -0.2516 -0.2360  0.2030
  438TIP3    H122729   1.394   1.485  12.706  0.1812  0.5676  1.5304
  438TIP3    H222730   1.441   1.423  12.835 -1.1049 -1.5564  1.0277
  439TIP3   OH222731   6.295   6.709   2.797  0.2349  0.2081 -0.1617
  439TIP3    H122732   6.290   6.663   2.713 -0.2725 -0.9139  0.4654
  439TIP3    H222733   6.221   6.770   2.795 -0.4356 -0.5767 -0.1129
  440TIP3   OH222734   3.732   5.669  14.506 -0.0739 -0.5031 -0.1949
  440TIP3    H122735   3.717   5.761  14.528  0.7228 -0.2922 -0.4879
  440TIP3    H222736   3.644   5.631  14.500 -0.4408  0.4203 -0.8490
  441TIP3   OH222737   0.202   3.340  11.135  0.0548  0.9279  0.5228
  441TIP3    H122738   0.209   3.402  11.062 -0.6235  0.4408  0.0414
  441TIP3    H222739   0.108   3.326  11.147  0.1775  0.5675  1.1223
  442TIP3   OH222740   6.442   3.433   0.803 -0.0884 -0.2524  0.4348
  442TIP3    H122741   6.493   3.505   0.765 -0.4316 -0.0732  0.3173
  442TIP3    H222742   6.442   3.365   0.736 -0.0973 -0.2112  0.3933
  443TIP3   OH222743   4.673   6.208   2.173 -0.9962  0.4502 -0.1871
  443TIP3    H122744   4.587   6.179   2.144 -0.9999 -0.3066  0.5471
  443TIP3    H222745   4.729   6.197   2.096 -1.1461 -0.8922 -0.1135
  444TIP3   OH222746   6.152   1.155  11.179 -0.2429  0.6806  0.0959
  444TIP3    H122747   6.247   1.167  11.174 -0.1714 -0.1307 -1.0003
  444TIP3    H222748   6.118   1.206  11.106 -0.9182  3.0431  1.9411
  445TIP3   OH222749   1.562   2.759   1.481 -0.7083  0.6308  0.0872
  445TIP3    H122750   1.542   2.676   1.525  0.7608 -0.0857 -0.5389
  445TIP3    H222751   1.612   2.809   1.546  0.2786  0.1288 -0.2716
  446TIP3   OH222752   2.917   1.634  13.108 -0.0550  0.1923 -0.3235
  446TIP3    H122753   2.862   1.558  13.094  0.8505 -0.6096  0.3500
  446TIP3    H222754   2.983   1.630  13.039  0.1302  0.2442 -0.1509
  447TIP3   OH222755   5.002   1.053  16.527 -0.4618  0.3293 -0.3633
  447TIP3    H122756   4.910   1.068  16.504  0.1149 -0.1318 -3.2808
  447TIP3    H222757   5.050   1.068  16.446  1.7395 -2.2607  0.3267
  448TIP3   OH222758   0.908   2.864   4.056  0.4533  0.2392  0.3802
  448TIP3    H122759   0.907   2.945   4.107 -3.4834 -0.6168  1.9634
  448TIP3    H222760   0.947   2.799   4.114 -2.7726 -0.4188  2.0355
  449TIP3   OH222761   4.798   1.493  12.621  0.3380 -0.1717  0.1909
  449TIP3    H122762   4.854   1.416  12.618  0.5028 -0.1492  1.9604
  449TIP3    H222763   4.811   1.535  12.535  1.5387 -1.1863 -0.1538
  450TIP3   OH222764   4.889   2.304   4.054  0.0415  0.7344  0.4332
  450TIP3    H122765   4.860   2.344   4.136 -0.9443  0.1336  0.3932
  450TIP3    H222766   4.908   2.213   4.078  1.2739  0.9366  0.3075
  451TIP3   OH222767   3.684   0.006   0.612  0.4543  0.5794  0.1920
  451TIP3    H122768   3.665   0.067   0.684 -2.0970 -1.9383  1.9089
  451TIP3    H222769   3.598  -0.025   0.584  1.5092 -0.1482 -2.5655
  452TIP3   OH222770   1.694   3.306   0.876  0.0917  0.2187 -0.1408
  452TIP3    H122771   1.696   3.269   0.788 -2.4687  1.6115 -0.8704
  452TIP3    H222772   1.668   3.233   0.932  0.4769 -0.3750 -0.7169
  453TIP3   OH222773   0.826   3.348  16.646 -0.0486 -0.1431  0.4868
  453TIP3    H122774   0.773   3.412  16.693 -0.1346  0.1101  0.0454
  453TIP3    H222775   0.778   3.266  16.656 -0.3426  0.0167  0.3835
  454TIP3   OH222776   6.376   3.236  13.340 -0.1627 -0.5643 -0.4046
  454TIP3    H122777   6.321   3.313  13.352  2.0219  1.0195  0.1898
  454TIP3    H222778   6.346   3.174  13.406 -0.8334  0.4732  0.3005
  455TIP3   OH222779   4.287   3.203  12.961 -0.1244  0.4490 -0.5834
  455TIP3    H122780   4.284   3.282  13.016  1.2808 -0.4614  0.8899
  455TIP3    H222781   4.348   3.145  13.006  2.0409  0.0493 -3.6696
  456TIP3   OH222782   4.825   4.893   3.213 -0.0497  0.8685  0.1037
  456TIP3    H122783   4.826   4.849   3.128  0.0770 -0.1925  0.6366
  456TIP3    H222784   4.733   4.917   3.226 -0.2339  0.2170  0.0627
  457TIP3   OH222785   4.498   4.838  16.787  0.0431 -0.1169  0.1815
  457TIP3    H122786   4.492   4.931  16.766 -0.0729 -0.0564  0.4801
  457TIP3    H222787   4.577   4.831  16.841 -1.5513  0.3135  2.7759
  458TIP3   OH222788   4.696   6.517  13.904  0.2748  0.2430 -0.3037
  458TIP3    H122789   4.607   6.513  13.868  0.6385  1.2440 -1.3754
  458TIP3    H222790   4.737   6.590  13.858  1.2275  0.6757  1.1660
  459TIP3   OH222791   2.535   1.561  17.176 -0.0558 -0.6934  0.6226
  459TIP3    H122792   2.578   1.580  17.093 -1.2186 -0.5347  0.0289
  459TIP3    H222793   2.555   1.469  17.193 -0.9338 -1.1244 -0.5568
  460TIP3   OH222794   0.097   4.687  11.515 -0.1401  0.0724  0.4547
  460TIP3    H122795   0.116   4.672  11.608  0.0968 -1.5909  0.1579
  460TIP3    H222796   0.176   4.661  11.469 -0.4248  0.4375 -0.2582
  461TIP3   OH222797   2.118   6.069  12.075  0.1528  0.4669  0.0072
  461TIP3    H122798   2.211   6.083  12.093  0.1112  1.3568 -0.4378
  461TIP3    H222799   2.114   5.979  12.040  1.0945  1.0027 -1.5995
  462TIP3   OH222800   3.141   6.318   4.365 -0.2329  0.5816 -0.3039
  462TIP3    H122801   3.109   6.403   4.393 -1.6833 -0.2711  0.7624
  462TIP3    H222802   3.064   6.261   4.366  0.7985 -0.8844 -0.3960
  463TIP3   OH222803   5.236   1.599   4.965 -0.3651 -0.2659 -0.3683
  463TIP3    H122804   5.167   1.541   4.998 -0.6269 -0.8131 -1.8083
  463TIP3    H222805   5.312   1.579   5.019 -0.6364 -1.5018 -0.4039
  464TIP3   OH222806   2.487   3.201  12.444  0.0096 -0.1944  0.5061
  464TIP3    H122807   2.578   3.185  12.422  0.0807  2.1623 -1.2875
  464TIP3    H222808   2.478   3.296  12.442 -2.6274 -0.3759 -0.1312
  465TIP3   OH222809   3.951   2.360   4.071 -0.2684 -0.1690  0.5816
  465TIP3    H122810   4.022   2.418   4.043  1.6323 -2.1430  0.9932
  465TIP3    H222811   3.973   2.336   4.161 -1.5267 -0.7346  0.7607
  466TIP3   OH222812   4.490   2.355  10.948  0.0627  0.4921  0.2468
  466TIP3    H122813   4.454   2.296  11.014 -1.0869  0.7744 -0.1180
  466TIP3    H222814   4.418   2.412  10.924  0.9252  1.4910 -0.0413
  467TIP3   OH222815   6.121   4.232  11.974 -0.0973 -0.1524  0.4179
  467TIP3    H122816   6.030   4.260  11.970 -0.4520 -1.3734 -0.2503
  467TIP3    H222817   6.121   4.141  11.944  1.3783 -0.0912  0.1280
  468TIP3   OH222818   6.196   5.563  13.998  0.0989  0.3099  0.0365
  468TIP3    H122819   6.238   5.536  13.916 -1.1878  0.7585 -0.8065
  468TIP3    H222820   6.190   5.658  13.991  0.6993  0.4277  1.0289
  469TIP3   OH222821   3.623   2.528  14.025  0.3833  0.3454  0.0433
  469TIP3    H122822   3.674   2.609  14.017  0.6348  0.1482 -0.4045
  469TIP3    H222823   3.566   2.543  14.100 -1.8299  2.1938 -1.8136
  470TIP3   OH222824   4.880   4.906   3.566 -0.2168  0.1816  0.1761
  470TIP3    H122825   4.802   4.957   3.543 -0.5597 -0.4373 -0.0570
  470TIP3    H222826   4.874   4.827   3.513 -0.0068 -0.3832  0.9634
  471TIP3   OH222827   5.011   6.016   4.481  0.5004 -0.3902 -0.2928
  471TIP3    H122828   4.968   6.031   4.397 -2.4606 -0.5165  1.0842
  471TIP3    H222829   5.025   5.921   4.484  1.5271 -0.2766 -1.0099
  472TIP3   OH222830   5.838   5.556   0.280  0.3239  0.1664 -1.1053
  472TIP3    H122831   5.853   5.487   0.344  1.2466 -0.1154 -1.5967
  472TIP3    H222832   5.914   5.552   0.222 -0.1495  0.8659 -1.8073
  473TIP3   OH222833   0.469   2.541  15.556  0.1630 -0.4836 -0.0011
  473TIP3    H122834   0.555   2.503  15.573 -0.0742 -0.5887  1.0103
  473TIP3    H222835   0.468   2.622  15.606 -0.5941 -0.8495  0.6007
  474TIP3   OH222836   1.712   4.898  12.793 -0.3669  0.3347  0.0550
  474TIP3    H122837   1.665   4.961  12.739 -1.9063 -0.6386  0.1886
  474TIP3    H222838   1.744   4.949  12.868 -0.3335  1.2123 -0.5507
  475TIP3   OH222839   5.146   2.617   6.374 -0.0971 -0.3415 -0.0380
  475TIP3    H122840   5.176   2.639   6.462 -0.2224 -2.0030  0.4451
  475TIP3    H222841   5.087   2.544   6.386  0.2397 -0.9045 -1.5487
  476TIP3   OH222842   5.769   1.364   1.841 -0.1634  0.1038 -0.1370
  476TIP3    H122843   5.685   1.359   1.795  0.4220 -0.9194 -1.1621
  476TIP3    H222844   5.764   1.444   1.893 -1.2390  0.7664 -1.2269
  477TIP3   OH222845   4.470   4.283   5.859  0.4514 -0.1993  0.2430
  477TIP3    H122846   4.530   4.315   5.926  1.0736  0.5251 -0.6438
  477TIP3    H222847   4.440   4.362   5.814 -0.5096 -0.6185  0.1115
  478TIP3   OH222848   5.774   4.220  13.126  0.1530 -0.3372 -0.3907
  478TIP3    H122849   5.758   4.246  13.217  1.9479 -3.2782  0.9146
  478TIP3    H222850   5.708   4.153  13.108  0.9129 -1.0521 -0.5840
  479TIP3   OH222851   2.450   5.322   4.669  0.1404  0.2321 -0.3821
  479TIP3    H122852   2.494   5.366   4.596 -0.9666  0.8316 -0.6967
  479TIP3    H222853   2.444   5.388   4.737  0.5459 -0.1253  0.0081
  480TIP3   OH222854   5.456   5.061   4.304 -0.9923 -0.0878 -0.2047
  480TIP3    H122855   5.503   5.042   4.222  0.4348  0.6056  0.4104
  480TIP3    H222856   5.470   4.984   4.358  0.8533  0.7211  0.5619
  481TIP3   OH222857   3.743   3.696   3.354  0.5056  0.1584 -0.4698
  481TIP3    H122858   3.832   3.665   3.336  1.1116  0.7500  1.3070
  481TIP3    H222859   3.690   3.617   3.353  1.6719 -0.7557  1.8919
  482TIP3   OH222860   1.848   2.477  14.750  0.2225  0.0510 -0.3133
  482TIP3    H122861   1.802   2.518  14.823  0.3513 -0.8159  0.2678
  482TIP3    H222862   1.896   2.404  14.790  1.2487  0.2811 -1.0737
  483TIP3   OH222863   0.499   0.779  12.781 -0.2495 -0.2185 -0.1998
  483TIP3    H122864   0.470   0.718  12.849 -1.1796 -1.0587 -1.3210
  483TIP3    H222865   0.593   0.759  12.770 -0.1639 -0.2838  0.6159
  484TIP3   OH222866   6.654   0.962  15.006 -0.2165 -0.0893 -0.1611
  484TIP3    H122867   6.724   0.904  14.976 -0.4639 -0.6368  0.2951
  484TIP3    H222868   6.697   1.020  15.069  0.9801  2.9895 -3.4969
  485TIP3   OH222869   4.135   5.640   1.403 -0.1537 -0.2610 -0.5517
  485TIP3    H122870   4.114   5.700   1.475  1.4711  0.0907 -0.3210
  485TIP3    H222871   4.072   5.569   1.412 -1.3549  0.8026 -0.0912
  486TIP3   OH222872   4.746   1.887   2.184 -0.5317 -0.1814 -0.2407
  486TIP3    H122873   4.715   1.975   2.208 -0.7846 -0.2358 -0.3683
  486TIP3    H222874   4.790   1.900   2.100 -0.9612 -0.2548 -0.4779
  487TIP3   OH222875   0.035   3.831   1.214 -0.5097 -0.3395  0.2276
  487TIP3    H122876   0.128   3.840   1.235  0.0915 -2.1746 -1.2319
  487TIP3    H222877   0.028   3.742   1.179 -2.9603 -0.4692  0.9058
  488TIP3   OH222878   0.203   4.064   2.483 -0.1942  0.2566  0.1814
  488TIP3    H122879   0.249   3.983   2.461 -0.6633  0.4276 -1.5802
  488TIP3    H222880   0.148   4.041   2.558  1.4024 -0.4013  1.2282
  489TIP3   OH222881   2.347   5.889   2.261  0.7542  0.4330 -0.2313
  489TIP3    H122882   2.365   5.797   2.284  1.8475  0.8971  0.8676
  489TIP3    H222883   2.342   5.934   2.345  0.3795  1.4118 -0.7694
  490TIP3   OH222884   6.011   4.287   4.490  0.7304  0.1409  0.0562
  490TIP3    H122885   5.962   4.257   4.567 -0.1193  0.0712 -0.5009
  490TIP3    H222886   5.971   4.240   4.417  0.0163  1.8622 -0.7137
  491TIP3   OH222887   0.450   1.055   0.516  0.1062  0.4368 -0.1851
  491TIP3    H122888   0.380   1.092   0.569 -0.2943 -1.4536  0.6646
  491TIP3    H222889   0.406   1.021   0.438 -0.0600 -1.2166  0.5841
  492TIP3   OH222890   1.870   5.788   4.061  0.3241 -0.0304  0.2615
  492TIP3    H122891   1.882   5.732   3.984  0.9831  1.5895 -0.8744
  492TIP3    H222892   1.945   5.848   4.060 -1.0129  1.7576  0.6121
  493TIP3   OH222893   0.746   1.609   4.771  0.2685 -0.4952 -0.0444
  493TIP3    H122894   0.840   1.600   4.758  0.1650  0.2354 -1.4082
  493TIP3    H222895   0.738   1.660   4.851  1.0841  1.1186 -0.9463
  494TIP3   OH222896   5.913   5.115  14.735 -0.0562  0.2667  0.2338
  494TIP3    H122897   6.009   5.111  14.736 -0.0811 -1.1192 -0.1360
  494TIP3    H222898   5.893   5.191  14.681  0.8463  0.3540 -0.0011
  495TIP3   OH222899   0.110   2.333   2.866 -0.7551  0.3614 -0.7641
  495TIP3    H122900   0.199   2.297   2.872 -0.4540  1.1398 -0.4248
  495TIP3    H222901   0.088   2.327   2.773 -1.9447 -3.5294 -0.4224
  496TIP3   OH222902   6.026   5.710   4.538  0.2059 -0.0125  0.3778
  496TIP3    H122903   6.022   5.626   4.493 -1.0538  0.1528  0.1382
  496TIP3    H222904   6.047   5.687   4.629  2.3820 -0.3678 -0.1572
  497TIP3   OH222905   0.137   1.591   2.273 -0.0305 -0.3317 -0.4668
  497TIP3    H122906   0.157   1.498   2.268  0.6604 -0.1655 -0.9413
  497TIP3    H222907   0.209   1.628   2.324  0.7547  0.2293 -1.9266
  498TIP3   OH222908   0.729   3.102  14.694  0.2877  0.2226 -0.2011
  498TIP3    H122909   0.659   3.167  14.687 -1.6076 -1.7985 -1.2540
  498TIP3    H222910   0.711   3.054  14.775 -0.2201 -0.9885 -0.9990
  499TIP3   OH222911   3.224   0.688  14.180  0.3177 -0.4732 -0.2345
  499TIP3    H122912   3.182   0.674  14.095 -1.8143  0.6779  0.5431
  499TIP3    H222913   3.295   0.749  14.162  0.1873 -0.6218 -1.2791
  500TIP3   OH222914   6.513   2.743   1.759  0.4903  0.3683  0.4380
  500TIP3    H122915   6.463   2.812   1.715  1.0574  0.2844 -0.3514
  500TIP3    H222916   6.459   2.719   1.834 -0.7017  0.2407 -0.4276
  501TIP3   OH222917   3.330   5.078   3.795 -0.6932  0.0651  0.0804
  501TIP3    H122918   3.252   5.133   3.809 -0.4457  0.3555  0.3304
  501TIP3    H222919   3.356   5.097   3.705 -0.5711  0.4157  0.1862
  502TIP3   OH222920   6.056   3.832   1.644  0.1230  0.2826  0.4591
  502TIP3    H122921   6.008   3.897   1.695  1.3122  1.5900 -0.0339
  502TIP3    H222922   5.993   3.762   1.629 -0.9268  0.9031  1.7619
  503TIP3   OH222923   1.182   0.407  13.037  0.0955  0.3856 -0.6970
  503TIP3    H122924   1.195   0.501  13.045 -0.5161  0.5511 -1.4843
  503TIP3    H222925   1.229   0.369  13.111  0.9996  1.2547 -0.8073
  504TIP3   OH222926   2.566   0.827  12.093  0.2835  0.2126  0.3257
  504TIP3    H122927   2.516   0.819  12.174  0.7419 -0.1193  0.5804
  504TIP3    H222928   2.577   0.921  12.081  0.5304  0.2531  0.8481
  505TIP3   OH222929   1.419   5.900  14.824 -0.2575  0.0244  0.1830
  505TIP3    H122930   1.463   5.828  14.869  3.1094  1.6741 -0.2035
  505TIP3    H222931   1.418   5.874  14.732 -1.9398 -0.8329  0.4052
  506TIP3   OH222932   3.444   3.686   2.625  0.5230  0.4972  0.4477
  506TIP3    H122933   3.459   3.770   2.580  2.1867 -0.3107 -0.6268
  506TIP3    H222934   3.469   3.620   2.560 -0.2280 -0.8225  1.4641
  507TIP3   OH222935   4.259   0.898  15.318  0.2697 -0.1576 -0.0792
  507TIP3    H122936   4.249   0.907  15.223  0.4655  0.1212 -0.0742
  507TIP3    H222937   4.261   0.804  15.333 -0.8290 -0.2224 -0.2397
  508TIP3   OH222938   3.235   4.941   0.539 -0.1830  0.3573  0.1479
  508TIP3    H122939   3.146   4.918   0.563 -0.5726  0.5787 -1.0648
  508TIP3    H222940   3.287   4.863   0.562 -0.9070 -0.3108 -0.4422
  509TIP3   OH222941   1.312   4.153  12.791 -0.2978  0.1967 -0.0823
  509TIP3    H122942   1.337   4.071  12.748  0.8234  0.6280 -0.2824
  509TIP3    H222943   1.262   4.125  12.867 -1.5111 -0.6115 -1.1277
  510TIP3   OH222944   4.488   2.217  14.124  0.3907 -0.2213 -0.0097
  510TIP3    H122945   4.537   2.242  14.202 -0.9583  1.7938  0.2750
  510TIP3    H222946   4.476   2.299  14.076 -0.9888 -0.9917 -1.0478
  511TIP3   OH222947   0.725   4.525  14.245 -0.1957  0.4999 -0.2857
  511TIP3    H122948   0.629   4.523  14.252 -0.1403 -0.4968  0.5717
  511TIP3    H222949   0.744   4.483  14.161 -0.5386  2.0837 -1.1948
  512TIP3   OH222950   3.706   3.137  10.656 -0.3209  0.2875 -0.1888
  512TIP3    H122951   3.682   3.069  10.719  0.3290  0.6267  0.4451
  512TIP3    H222952   3.747   3.090  10.583  2.3271  0.1178  1.2842
  513TIP3   OH222953   4.988   4.096   6.469  0.5376  0.3423 -0.1383
  513TIP3    H122954   5.053   4.041   6.426  1.4460  1.1409  0.1772
  513TIP3    H222955   5.019   4.105   6.559  0.2368  1.1015 -0.0989
  514TIP3   OH222956   3.298   0.551   2.511  0.5533 -0.0352  0.2994
  514TIP3    H122957   3.392   0.539   2.515  0.5283 -0.5240 -0.4229
  514TIP3    H222958   3.266   0.477   2.459  0.0836  1.6859 -1.9625
  515TIP3   OH222959   2.445   6.767   3.790  0.0154 -0.0448  0.0622
  515TIP3    H122960   2.491   6.851   3.781  0.9644 -0.5230  0.3045
  515TIP3    H222961   2.515   6.703   3.805 -0.5372 -1.1457 -1.7686
  516TIP3   OH222962   5.755   0.254   5.823 -0.6738 -0.0875 -0.0568
  516TIP3    H122963   5.739   0.277   5.732 -0.6884  0.1294 -0.0016
  516TIP3    H222964   5.668   0.240   5.860 -0.7075  0.4343  0.0760
  517TIP3   OH222965   3.910   5.847  15.746 -0.1091 -0.1955 -0.2077
  517TIP3    H122966   3.984   5.786  15.751  1.1328  1.3114  0.5316
  517TIP3    H222967   3.932   5.917  15.806 -3.2323 -0.7665  1.8562
  518TIP3   OH222968   5.925   3.754   1.113  0.4542 -0.4404 -0.0512
  518TIP3    H122969   6.003   3.772   1.061  0.2093 -0.2818 -0.3667
  518TIP3    H222970   5.951   3.773   1.203  1.1111 -1.4426 -0.0162
  519TIP3   OH222971   1.974   6.781   4.172 -0.0290  0.1072 -0.1939
  519TIP3    H122972   2.060   6.766   4.134  1.2626  2.7580  1.3290
  519TIP3    H222973   1.918   6.803   4.098  1.2526  0.7362 -1.0090
  520TIP3   OH222974   1.821   1.300  12.973  0.0632 -0.6347  0.2573
  520TIP3    H122975   1.768   1.327  12.898  0.4008 -1.4635 -0.2990
  520TIP3    H222976   1.867   1.379  13.000  2.5025 -0.9347 -2.5181
  521TIP3   OH222977   1.999   5.384   0.347  0.1835  0.2927  0.8182
  521TIP3    H122978   2.064   5.362   0.414  0.6838  0.6605  0.4645
  521TIP3    H222979   2.024   5.331   0.271 -1.0578 -0.9976  1.2526
  522TIP3   OH222980   6.591   1.116   1.560  0.3814  0.1852  0.5865
  522TIP3    H122981   6.638   1.159   1.632  0.7349  1.4201 -0.3421
  522TIP3    H222982   6.620   1.025   1.564 -0.9003 -0.2050  3.0446
  523TIP3   OH222983   1.878   0.238   3.560  0.7481 -0.1681  0.7871
  523TIP3    H122984   1.802   0.223   3.617  0.2001  1.5429  0.5833
  523TIP3    H222985   1.941   0.282   3.616  0.3211  1.2630  0.1951
  524TIP3   OH222986   2.629   2.487  11.805 -0.1137  0.6263 -0.5395
  524TIP3    H122987   2.570   2.444  11.867 -0.3396  1.7364  0.0457
  524TIP3    H222988   2.621   2.436  11.725 -1.6398  0.5609 -0.3774
  525TIP3   OH222989   0.058   0.632  13.703 -0.1602  0.5878  0.5512
  525TIP3    H122990   0.060   0.639  13.798 -1.8465 -1.9267  0.8715
  525TIP3    H222991  -0.034   0.644  13.680  0.2993  1.6812 -0.8533
  526TIP3   OH222992   2.667   1.310   5.561 -0.1903  0.0271 -0.2541
  526TIP3    H122993   2.695   1.401   5.550 -1.6689  0.5977  0.4380
  526TIP3    H222994   2.571   1.315   5.568 -0.2201 -1.4628  0.8999
  527TIP3   OH222995   1.698   6.246  16.967  0.1121  0.7065 -0.0950
  527TIP3    H122996   1.782   6.208  16.990 -0.3275 -0.7349 -0.7676
  527TIP3    H222997   1.680   6.213  16.879 -2.0217 -0.5738  0.7486
  528TIP3   OH222998   5.748   3.749   0.753  0.0719 -0.5476  0.2647
  528TIP3    H122999   5.653   3.754   0.743 -0.1252 -1.1313  1.6272
  528TIP3    H223000   5.766   3.656   0.766  0.9673 -0.5840 -1.0368
  529TIP3   OH223001   1.739   3.173  14.591  1.1925  0.4184  0.6039
  529TIP3    H123002   1.767   3.132  14.510  2.0886 -0.3410  1.2759
  529TIP3    H223003   1.810   3.234  14.613  0.2555  1.7789  0.0451
  530TIP3   OH223004   3.143   0.252  11.579  0.8796 -0.0917 -0.0559
  530TIP3    H123005   3.192   0.330  11.608  2.0375 -0.8474  0.0717
  530TIP3    H223006   3.197   0.178  11.607 -0.8228 -1.0034  0.9689
  531TIP3   OH223007   3.597   4.451  10.705  0.7777 -0.0860 -0.1002
  531TIP3    H123008   3.655   4.412  10.771 -0.2612  0.5748  1.2272
  531TIP3    H223009   3.509   4.423  10.730  0.1209  2.0069  0.1559
  532TIP3   OH223010   0.799   6.043   2.591  0.2660 -0.3489 -0.1055
  532TIP3    H123011   0.803   6.125   2.641  0.7553  0.3415 -1.2334
  532TIP3    H223012   0.718   6.002   2.619 -1.6205  1.9908 -1.7017
  533TIP3   OH223013   5.602   3.930  10.611  0.0340 -0.1525 -0.8369
  533TIP3    H123014   5.525   3.987  10.610 -0.6731 -0.9487  1.5280
  533TIP3    H223015   5.675   3.987  10.586 -0.8280  1.5111  0.2836
  534TIP3   OH223016   0.700   4.087   2.933  0.1615 -0.8168  0.2929
  534TIP3    H123017   0.650   4.053   3.006  0.2816  0.9684  1.2623
  534TIP3    H223018   0.788   4.050   2.944  0.3066 -0.1952  1.3564
  535TIP3   OH223019   0.317   5.074   0.497 -0.3365 -0.1243 -0.3856
  535TIP3    H123020   0.368   5.130   0.439 -1.7713  1.2542 -0.3728
  535TIP3    H223021   0.383   5.029   0.551  0.8821  1.1082 -0.7926
  536TIP3   OH223022   6.254   2.843  16.073 -0.3173 -0.3668 -0.0292
  536TIP3    H123023   6.323   2.845  16.139  0.2728 -1.9656 -0.5631
  536TIP3    H223024   6.299   2.827  15.991 -1.1357  0.6949 -0.7132
  537TIP3   OH223025   4.968   2.804   5.524 -0.1398 -0.1818 -0.3317
  537TIP3    H123026   5.047   2.762   5.558 -0.9774 -2.9067 -1.5053
  537TIP3    H223027   4.901   2.785   5.589 -0.0691  1.5249  0.3098
  538TIP3   OH223028   5.658   1.904   1.778  0.6738  0.2763  0.0627
  538TIP3    H123029   5.686   1.901   1.869 -1.2082  2.6106  0.8169
  538TIP3    H223030   5.739   1.897   1.728  1.7605 -0.9770  1.8826
  539TIP3   OH223031   3.851   3.610  15.599  0.1956  0.4741 -0.8133
  539TIP3    H123032   3.757   3.603  15.612  0.4612 -0.0598  1.0653
  539TIP3    H223033   3.862   3.691  15.548 -1.3269 -0.0842 -2.0926
  540TIP3   OH223034   1.419   4.962   1.206 -0.6064  0.0403  0.6863
  540TIP3    H123035   1.459   4.927   1.126 -1.2205 -0.4452  0.5905
  540TIP3    H223036   1.483   5.026   1.237 -0.2387  0.0525 -0.0519
  541TIP3   OH223037   6.031   0.255   5.850  0.0341  0.1415 -0.4535
  541TIP3    H123038   6.074   0.221   5.928  1.2789  1.8042 -0.3507
  541TIP3    H223039   5.938   0.247   5.868  0.2587  1.5797  1.7588
  542TIP3   OH223040   3.344   6.147   5.697  0.6626  1.0290  0.0618
  542TIP3    H123041   3.320   6.073   5.641 -1.5466  0.1420  2.0185
  542TIP3    H223042   3.348   6.221   5.637 -1.9766  0.2054 -1.2833
  543TIP3   OH223043   1.841   0.178  15.115 -0.2954  0.0154  0.5918
  543TIP3    H123044   1.757   0.222  15.101 -0.6204 -1.1466 -1.4752
  543TIP3    H223045   1.893   0.200  15.038  1.1261  0.2577  1.5807
  544TIP3   OH223046   5.664   4.559   4.086 -0.3550 -0.1428  0.7356
  544TIP3    H123047   5.673   4.468   4.058 -3.2275  0.0793 -1.3722
  544TIP3    H223048   5.592   4.558   4.149 -0.1552  0.6367  0.9952
  545TIP3   OH223049   3.098   2.666   2.491 -0.5664  1.0346  0.2192
  545TIP3    H123050   3.028   2.722   2.457 -0.0263  2.2780  1.0641
  545TIP3    H223051   3.063   2.632   2.574 -2.4345 -3.1013 -1.9973
  546TIP3   OH223052   1.243   4.717  12.650 -0.0358 -0.2926 -0.0265
  546TIP3    H123053   1.174   4.684  12.708  0.3718 -0.5077  0.3417
  546TIP3    H223054   1.253   4.649  12.583  0.3241 -0.6045  0.3384
  547TIP3   OH223055   2.030   1.543  15.723 -0.1527 -0.2008  0.0307
  547TIP3    H123056   2.083   1.465  15.707  0.8508  0.2449  1.0624
  547TIP3    H223057   2.061   1.607  15.658 -0.2010 -0.3050 -0.0940
  548TIP3   OH223058   2.362   5.846   4.214  0.3137  0.1448 -1.1310
  548TIP3    H123059   2.339   5.789   4.141  0.0101  1.2797 -1.9577
  548TIP3    H223060   2.421   5.794   4.268 -1.0613 -1.4349 -1.0809
  549TIP3   OH223061   3.638   1.102   0.605  0.2783 -0.0055  0.0508
  549TIP3    H123062   3.622   1.111   0.511 -2.1120 -1.9760  0.1754
  549TIP3    H223063   3.587   1.172   0.645 -1.0393 -0.8869 -0.0258
  550TIP3   OH223064   1.508   2.240  15.952  0.7466 -0.3775 -0.4131
  550TIP3    H123065   1.487   2.198  15.869 -0.0170 -2.3181  0.6899
  550TIP3    H223066   1.423   2.250  15.996  1.1464  0.4873  0.2045
  551TIP3   OH223067   4.832   6.251  12.777 -0.3196  0.4560 -0.6588
  551TIP3    H123068   4.799   6.168  12.741  1.2976 -0.0992 -0.9443
  551TIP3    H223069   4.924   6.252  12.753 -0.1323  1.9794  0.0502
  552TIP3   OH223070   1.875   4.587  14.200  0.2730 -0.0630  0.1660
  552TIP3    H123071   1.825   4.644  14.141 -2.5176 -2.3769  0.0932
  552TIP3    H223072   1.856   4.621  14.288  0.7557  0.6489  0.0040
  553TIP3   OH223073   3.740   1.853   2.837 -0.3368 -0.2386 -0.2163
  553TIP3    H123074   3.797   1.793   2.885 -0.3779 -0.2035 -0.1236
  553TIP3    H223075   3.681   1.796   2.788  0.7071 -0.3142 -1.4667
  554TIP3   OH223076   4.948   4.228  10.630  0.8209 -0.2303  0.8236
  554TIP3    H123077   4.910   4.315  10.620  2.1251  0.1645 -1.3780
  554TIP3    H223078   5.001   4.234  10.710  4.2486  2.4570 -1.3416
  555TIP3   OH223079   4.023   0.053  10.867 -0.8996  0.7572 -0.6411
  555TIP3    H123080   4.027   0.136  10.819 -2.1251  1.7894  0.9276
  555TIP3    H223081   4.065   0.073  10.951  0.2728 -0.7109 -0.8399
  556TIP3   OH223082   5.417   0.756  15.946  0.2504 -0.2089  0.3063
  556TIP3    H123083   5.463   0.733  15.865 -0.1055  0.0930  0.0176
  556TIP3    H223084   5.337   0.704  15.944  0.9127 -1.3015  1.1688
  557TIP3   OH223085   5.102   5.606  11.899  0.6216  0.0494 -0.4761
  557TIP3    H123086   5.125   5.660  11.974 -0.2407 -0.2085 -0.0012
  557TIP3    H223087   5.045   5.662  11.846  0.1612 -0.2047 -0.2566
  558TIP3   OH223088   2.823   2.340   4.815  0.3261 -0.9016 -0.6450
  558TIP3    H123089   2.876   2.286   4.874  0.9628 -0.8691 -1.1698
  558TIP3    H223090   2.883   2.363   4.744  0.6722  2.0984  0.4671
  559TIP3   OH223091   5.925   0.884  13.290 -0.5511 -0.6841 -0.3690
  559TIP3    H123092   5.905   0.823  13.219 -1.4435 -1.1521  0.2537
  559TIP3    H223093   5.863   0.860  13.359 -0.5275  0.5760  0.1010
  560TIP3   OH223094   4.937   3.541  14.016 -0.4833 -0.1507 -0.4228
  560TIP3    H123095   4.895   3.616  13.973  0.9856  2.8332  2.8819
  560TIP3    H223096   4.864   3.490  14.049 -1.5361  0.2330 -2.0199
  561TIP3   OH223097   2.465   2.957   1.854 -0.3234  0.6643 -0.5129
  561TIP3    H123098   2.387   2.963   1.910 -0.0401  1.1134 -0.1634
  561TIP3    H223099   2.450   2.879   1.801 -0.9316  0.6445 -0.3202
  562TIP3   OH223100   6.394   6.542  11.409  0.1295  0.1712  0.2014
  562TIP3    H123101   6.384   6.610  11.342 -0.3013  0.0602  0.1502
  562TIP3    H223102   6.438   6.586  11.481 -0.2103  0.5226  0.1949
  563TIP3   OH223103   0.678   2.127  14.496  0.3473  0.3566  0.3888
  563TIP3    H123104   0.662   2.191  14.426  2.6893  1.1708  0.5074
  563TIP3    H223105   0.734   2.061  14.455  0.2280 -0.1480  1.0261
  564TIP3   OH223106   3.983   6.198  14.773 -0.0814  0.1979 -0.0248
  564TIP3    H123107   3.984   6.128  14.707  0.7157  1.0980 -1.0047
  564TIP3    H223108   4.067   6.190  14.818 -0.2930  0.0838  0.3571
  565TIP3   OH223109   3.081   3.512   1.838  0.3523 -0.0007  0.2531
  565TIP3    H123110   3.083   3.447   1.768 -2.3365  0.9331 -0.8254
  565TIP3    H223111   3.151   3.573   1.817  2.1954 -1.8654  0.6732
  566TIP3   OH223112   2.194   1.555   4.864 -0.5222 -1.0010  0.1549
  566TIP3    H123113   2.108   1.514   4.860 -1.0644  0.1635 -0.6073
  566TIP3    H223114   2.186   1.634   4.811  1.1333 -1.0633 -0.2615
  567TIP3   OH223115   1.016   2.585  12.039 -0.2708  0.2889 -0.5873
  567TIP3    H123116   0.998   2.492  12.029 -0.8082  0.0112  2.0506
  567TIP3    H223117   0.959   2.612  12.111  0.3225  2.5268 -0.8852
  568TIP3   OH223118   2.270   4.952   3.402 -0.2152  0.2305  0.0742
  568TIP3    H123119   2.347   4.945   3.458 -0.3418  0.6971  0.3184
  568TIP3    H223120   2.212   4.882   3.432 -0.1759  0.3184  0.3605
  569TIP3   OH223121   3.524   4.178   3.243 -0.0355 -0.6353  0.0623
  569TIP3    H123122   3.523   4.212   3.333 -1.4178 -0.2345 -0.0781
  569TIP3    H223123   3.531   4.083   3.253  1.4688 -0.5002  0.5275
  570TIP3   OH223124   2.963   0.971  10.677  0.3917 -0.1744  0.2613
  570TIP3    H123125   2.920   0.887  10.694 -1.2325  0.7012  0.5918
  570TIP3    H223126   3.000   0.997  10.761 -2.7745  1.4267  1.3013
  571TIP3   OH223127   0.179   2.312   6.252 -0.0193 -0.0509 -0.2807
  571TIP3    H123128   0.230   2.357   6.319  0.4238  0.1109 -0.7215
  571TIP3    H223129   0.241   2.255   6.207 -0.2350  0.0897 -0.7683
  572TIP3   OH223130   5.612   1.964  12.960 -0.5271 -0.0764  0.6959
  572TIP3    H123131   5.703   1.940  12.976  0.2574  0.7418 -1.9856
  572TIP3    H223132   5.586   2.014  13.037  1.4289  0.0463  1.3256
  573TIP3   OH223133   3.058   6.658   3.253 -1.0409  0.2613  0.7480
  573TIP3    H123134   3.106   6.703   3.323 -1.3014 -0.1935  1.2279
  573TIP3    H223135   3.095   6.570   3.251 -1.1250  0.2309  0.3969
  574TIP3   OH223136   5.866   4.287  11.967  0.0023 -0.4598  0.0145
  574TIP3    H123137   5.855   4.195  11.945  0.7066 -0.6320  0.3560
  574TIP3    H223138   5.799   4.332  11.915 -1.3272 -1.2910  0.9295
  575TIP3   OH223139   5.172   5.026   0.561 -0.4285 -0.4498 -0.7635
  575TIP3    H123140   5.244   5.082   0.593 -1.0127  1.1691 -2.1395
  575TIP3    H223141   5.206   4.937   0.570  1.2182  0.1867 -0.0921
  576TIP3   OH223142   2.428   5.631   5.172  0.1703 -0.7141  0.0241
  576TIP3    H123143   2.422   5.724   5.193  2.7075 -0.6547  0.8159
  576TIP3    H223144   2.339   5.598   5.185 -1.2310  1.8802 -1.9630
  577TIP3   OH223145   0.846   4.756  15.758 -0.3216  0.0350 -0.0712
  577TIP3    H123146   0.910   4.695  15.722  0.1291 -0.5936  1.6776
  577TIP3    H223147   0.767   4.705  15.769  0.0308 -0.2549  1.3171
  578TIP3   OH223148   3.586   6.537   4.249 -0.6791 -0.8518 -0.1406
  578TIP3    H123149   3.559   6.614   4.200 -0.5324 -0.9201 -0.3299
  578TIP3    H223150   3.677   6.553   4.273 -1.0580 -0.3551  1.0222
  579TIP3   OH223151   2.106   2.223   5.599  0.5528 -0.3616  0.6332
  579TIP3    H123152   2.181   2.248   5.654  1.5399 -1.3230 -0.2227
  579TIP3    H223153   2.073   2.306   5.565  2.7161 -0.0153 -0.8327
  580TIP3   OH223154   1.936   5.081  11.577 -0.0141 -0.0375  0.4408
  580TIP3    H123155   2.004   5.016  11.558  0.9514  1.1428 -0.2668
  580TIP3    H223156   1.873   5.071  11.507 -0.3011 -0.7547  0.7896
  581TIP3   OH223157   0.603   0.929  16.950 -0.0139  0.2857 -0.7316
  581TIP3    H123158   0.584   1.023  16.947 -2.2994  0.0528  2.5746
  581TIP3    H223159   0.566   0.895  16.869 -2.2320  1.7974 -0.4286
  582TIP3   OH223160   1.648   4.672  13.738 -0.1176 -0.3849  0.4004
  582TIP3    H123161   1.652   4.623  13.820 -0.8834  0.8902  1.2302
  582TIP3    H223162   1.698   4.752  13.755 -1.5784  0.6168  0.1774
  583TIP3   OH223163   5.799   2.799   5.214 -0.6406  0.2506  0.2888
  583TIP3    H123164   5.877   2.752   5.185 -0.4408  1.9422 -2.2065
  583TIP3    H223165   5.727   2.736   5.203  0.0434 -0.5396  0.2592
  584TIP3   OH223166   5.269   4.816  15.830 -1.2197 -0.3033  0.0787
  584TIP3    H123167   5.252   4.836  15.922  0.1381  0.1208  0.2598
  584TIP3    H223168   5.314   4.894  15.796  0.1604 -1.2671 -0.3831
  585TIP3   OH223169   0.693   2.914   0.131  0.1328 -0.4038  0.3258
  585TIP3    H123170   0.656   2.865   0.058  0.1934 -0.7436  0.5175
  585TIP3    H223171   0.641   2.994   0.135  2.0561  1.0726 -2.0051
  586TIP3   OH223172   2.641   3.698   5.216  0.0920 -0.0698  0.6618
  586TIP3    H123173   2.662   3.697   5.309  1.7559 -1.4287  0.3125
  586TIP3    H223174   2.659   3.788   5.188 -0.6223  0.4044  1.6631
  587TIP3   OH223175   1.392   2.821  15.952 -0.4134  0.0028  0.2606
  587TIP3    H123176   1.451   2.894  15.936 -0.1248 -0.1749  0.4971
  587TIP3    H223177   1.307   2.851  15.921 -0.4588  0.7151  1.0263
  588TIP3   OH223178   2.122   5.055  12.670 -0.3573  0.1896 -0.0604
  588TIP3    H123179   2.147   5.141  12.637  0.9218 -0.1642 -0.0818
  588TIP3    H223180   2.136   5.061  12.765 -0.4052  0.0499 -0.0439
  589TIP3   OH223181   2.955   4.237  13.937  0.1205 -0.6440  0.2305
  589TIP3    H123182   2.988   4.147  13.935  0.6958 -0.4727 -2.2107
  589TIP3    H223183   2.940   4.256  14.029 -1.9418 -3.9059  0.7297
  590TIP3   OH223184   5.076   3.329   6.234  0.1689  0.4114 -0.3157
  590TIP3    H123185   4.990   3.332   6.193 -0.1928 -2.1132  0.1295
  590TIP3    H223186   5.118   3.411   6.207 -2.5593  2.0335 -0.0245
  591TIP3   OH223187   6.358   6.294  14.073  0.2169 -0.5826  0.4609
  591TIP3    H123188   6.298   6.364  14.048  0.9196 -0.0106  0.3404
  591TIP3    H223189   6.386   6.256  13.990 -0.5552 -1.3540  0.5431
  592TIP3   OH223190   3.558   6.126  16.181  0.3926 -0.2461 -0.4223
  592TIP3    H123191   3.470   6.111  16.216 -0.7147  1.7429 -2.1074
  592TIP3    H223192   3.614   6.066  16.230 -2.0229 -2.2760  0.1022
  593TIP3   OH223193   4.247   3.195   0.848 -0.3653 -0.2907  0.1814
  593TIP3    H123194   4.295   3.276   0.831 -0.2096 -0.6146 -1.0244
  593TIP3    H223195   4.312   3.125   0.837 -0.6737 -0.6211  0.4271
  594TIP3   OH223196   3.132   6.075   2.684 -0.3735  0.4610 -0.3880
  594TIP3    H123197   3.182   6.071   2.765  1.4605 -0.6846 -1.5024
  594TIP3    H223198   3.159   6.157   2.643  1.5771 -0.6820 -1.5222
  595TIP3   OH223199   0.182   3.090   5.498 -0.1186  0.0222  0.1696
  595TIP3    H123200   0.177   2.998   5.471 -2.9333  0.0370  0.2585
  595TIP3    H223201   0.109   3.132   5.451  0.2638  1.9137  1.1778
  596TIP3   OH223202   3.828   1.598   3.963 -0.5545  0.4209  0.5507
  596TIP3    H123203   3.791   1.681   3.934 -1.4654 -0.2999 -0.4027
  596TIP3    H223204   3.919   1.619   3.984 -0.7138  1.6163  0.1340
  597TIP3   OH223205   6.425   6.372  11.897 -0.2712  0.2615 -0.7004
  597TIP3    H123206   6.334   6.373  11.924 -0.1244  0.6042 -0.2118
  597TIP3    H223207   6.456   6.284  11.919 -0.8114 -0.2933 -2.0140
  598TIP3   OH223208   6.467   5.214  11.289 -0.1781  0.1413  0.5509
  598TIP3    H123209   6.495   5.249  11.374  0.4580 -0.5662  0.6447
  598TIP3    H223210   6.377   5.186  11.303  0.9087 -3.1250  2.0306
  599TIP3   OH223211   3.862   6.494   2.493 -0.0740 -0.4528 -0.1063
  599TIP3    H123212   3.921   6.532   2.559  0.2539  1.4020 -1.3691
  599TIP3    H223213   3.908   6.417   2.461  0.8793  0.0133  0.1130
  600TIP3   OH223214   3.211   1.880  14.725 -0.4469 -0.2032 -0.6560
  600TIP3    H123215   3.124   1.883  14.688 -1.0494 -0.9038  0.6191
  600TIP3    H223216   3.198   1.854  14.816  0.9770  1.1264 -0.0176
  601TIP3   OH223217   3.108   3.215  15.780  0.1808  0.2551 -0.3749
  601TIP3    H123218   3.187   3.256  15.812 -1.3786  2.5680  0.7713
  601TIP3    H223219   3.048   3.216  15.854 -2.1329  1.9584 -2.1079
  602TIP3   OH223220   0.105   1.612  12.537  0.2309  0.3696 -0.1903
  602TIP3    H123221   0.122   1.705  12.527  2.9048  0.0176  0.2887
  602TIP3    H223222   0.156   1.571  12.467  2.2157 -0.8666  1.8391
  603TIP3   OH223223   4.973   6.674  16.030 -0.4221  0.5034  0.0805
  603TIP3    H123224   4.884   6.639  16.037 -0.1467 -0.5027 -1.0100
  603TIP3    H223225   4.962   6.767  16.010 -1.2164  0.4212  0.1308
  604TIP3   OH223226   4.585   6.465  16.610  0.4366 -0.9452  0.0020
  604TIP3    H123227   4.657   6.502  16.662  1.5897 -1.1444 -1.3975
  604TIP3    H223228   4.506   6.493  16.656  1.3052  1.6244  0.1131
  605TIP3   OH223229   4.211   3.839  13.147  0.0675  0.9226  0.0503
  605TIP3    H123230   4.218   3.889  13.065 -2.2143  0.9412 -0.1979
  605TIP3    H223231   4.302   3.828  13.176  0.9371  1.0203 -2.3978
  606TIP3   OH223232   1.793   0.029   2.509 -0.4114  0.3084 -0.7183
  606TIP3    H123233   1.744   0.107   2.482 -0.3142  0.4848 -0.3861
  606TIP3    H223234   1.854   0.060   2.576 -0.5294 -0.0955 -0.4185
  607TIP3   OH223235   4.689   4.448   3.204  0.1318 -0.1479  0.3859
  607TIP3    H123236   4.655   4.454   3.293 -1.4760  1.5093 -0.2729
  607TIP3    H223237   4.657   4.528   3.161  0.0529 -1.3499 -1.9443
  608TIP3   OH223238   5.009   2.049   4.319 -0.4914  0.0270  0.3292
  608TIP3    H123239   5.007   2.145   4.329 -1.3180  0.0672 -0.1561
  608TIP3    H223240   4.999   2.035   4.225 -1.6447 -0.5661  0.5306
  609TIP3   OH223241   5.002   3.673   2.353 -0.3057  0.1722  0.0903
  609TIP3    H123242   5.016   3.733   2.280 -1.0679  1.6567  1.1057
  609TIP3    H223243   5.055   3.710   2.424 -2.4293  0.9273  1.3701
  610TIP3   OH223244   6.697   0.303  13.416 -0.4401 -0.1900 -0.5128
  610TIP3    H123245   6.776   0.253  13.433  0.0723 -0.0418 -2.2400
  610TIP3    H223246   6.729   0.386  13.380 -1.3400  0.5587  0.3499
  611TIP3   OH223247   4.831   5.101   2.947  0.0118  0.4067  0.2496
  611TIP3    H123248   4.795   5.150   3.021 -1.2215  0.2217 -0.1997
  611TIP3    H223249   4.812   5.009   2.968 -0.5700  0.3711 -0.4018
  612TIP3   OH223250   5.439   6.054   1.002 -0.4242  0.4073  0.6753
  612TIP3    H123251   5.397   6.045   0.916  0.8056 -0.2330  0.1113
  612TIP3    H223252   5.469   5.966   1.022  1.0297  0.9222  0.8425
  613TIP3   OH223253   2.586   3.458  13.755  0.1916 -0.6836 -0.8663
  613TIP3    H123254   2.564   3.543  13.717  0.7734 -0.0888  0.0849
  613TIP3    H223255   2.539   3.395  13.700 -0.7397  0.2821 -1.2329
  614TIP3   OH223256   2.404   2.542  14.192  0.5715 -0.4361  0.4982
  614TIP3    H123257   2.406   2.460  14.241  0.1673  0.1016  1.4490
  614TIP3    H223258   2.417   2.610  14.258 -1.2299  0.3811  0.0798
  615TIP3   OH223259   4.292   5.597  11.433  0.1578  0.1473 -0.7232
  615TIP3    H123260   4.225   5.538  11.398 -0.0509  1.0606 -1.9342
  615TIP3    H223261   4.273   5.681  11.392  1.4271  0.6726 -0.2751
  616TIP3   OH223262   4.616   1.789   1.419 -0.5157 -0.0815 -0.1209
  616TIP3    H123263   4.631   1.700   1.389 -1.6617 -0.8814  1.5426
  616TIP3    H223264   4.627   1.843   1.340  0.3304 -1.6542 -1.1246
  617TIP3   OH223265   4.152   2.429   2.348  0.3277 -0.0097 -0.3038
  617TIP3    H123266   4.151   2.496   2.279  1.4882 -0.8588 -1.1750
  617TIP3    H223267   4.106   2.355   2.310 -1.9138  0.5963  1.0507
  618TIP3   OH223268   4.712   1.251  11.474  0.0333 -0.7882  0.4572
  618TIP3    H123269   4.622   1.225  11.456 -0.3705 -0.3447  1.7079
  618TIP3    H223270   4.723   1.236  11.568  1.1493 -0.5068  0.3840
  619TIP3   OH223271   1.843   1.598   6.266 -0.2504  0.6686 -0.1578
  619TIP3    H123272   1.757   1.620   6.229 -0.1592 -0.2592 -0.9655
  619TIP3    H223273   1.838   1.504   6.283  0.0234  0.9135  1.4150
  620TIP3   OH223274   5.560   0.203   5.158 -0.1800  0.2202 -0.3197
  620TIP3    H123275   5.576   0.122   5.110  0.8150  0.7282 -0.8693
  620TIP3    H223276   5.646   0.244   5.166 -0.1613 -0.1843  2.5486
  621TIP3   OH223277   5.529   2.735  11.758  0.0400 -0.4185  0.7988
  621TIP3    H123278   5.455   2.762  11.705  0.5840 -0.3153  0.0679
  621TIP3    H223279   5.519   2.641  11.768  1.3533 -0.9397 -1.8508
  622TIP3   OH223280   6.241   5.032  11.031  0.7590 -0.3359 -0.2153
  622TIP3    H123281   6.333   5.021  11.054  0.4899  0.4699  1.3806
  622TIP3    H223282   6.195   5.040  11.114 -1.0578 -2.5773 -0.9018
  623TIP3   OH223283   3.365   3.665  13.142  0.0794  0.0891 -0.6082
  623TIP3    H123284   3.302   3.624  13.200  0.3765 -1.9654 -1.6420
  623TIP3    H223285   3.330   3.650  13.054  2.0228 -1.2704 -1.2284
  624TIP3   OH223286   2.307   1.663   2.225  0.5333  0.3003 -0.4401
  624TIP3    H123287   2.232   1.718   2.205 -2.2913 -2.1779  2.3305
  624TIP3    H223288   2.317   1.606   2.149 -1.2658 -0.1268 -0.3888
  625TIP3   OH223289   5.348   0.947   1.600  0.1932 -0.4157 -0.1649
  625TIP3    H123290   5.299   0.867   1.621  0.5392 -0.9260 -1.2414
  625TIP3    H223291   5.429   0.916   1.560  0.2736  0.4736 -0.7202
  626TIP3   OH223292   0.816   6.598   1.714 -0.2367 -0.1287  0.2871
  626TIP3    H123293   0.864   6.661   1.661  1.7161 -2.1652 -0.5471
  626TIP3    H223294   0.876   6.574   1.785 -0.8443 -1.1601  0.4853
  627TIP3   OH223295   3.759   5.455   3.274  0.7373  0.5031 -0.5901
  627TIP3    H123296   3.667   5.433   3.260  0.7416 -0.7501  1.1777
  627TIP3    H223297   3.767   5.472   3.367  2.7950 -2.0555 -0.1715
  628TIP3   OH223298   0.139   1.235  10.911  0.2734 -0.2924 -0.0902
  628TIP3    H123299   0.164   1.180  10.837 -1.6664 -1.0676 -0.2200
  628TIP3    H223300   0.097   1.175  10.973 -0.6720  0.7972  0.3727
  629TIP3   OH223301   6.375   2.143   0.259  0.5171  0.4656  0.0703
  629TIP3    H123302   6.372   2.142   0.163  1.0972  0.8758  0.0404
  629TIP3    H223303   6.360   2.052   0.284  1.6576  0.1101 -0.4631
  630TIP3   OH223304   2.114   5.446  15.541  0.0720 -0.7483  0.1406
  630TIP3    H123305   2.146   5.404  15.621 -0.2282 -0.5162  0.3879
  630TIP3    H223306   2.194   5.471  15.494  0.2633 -2.4221 -0.4748
  631TIP3   OH223307   0.325   6.401  16.686 -0.2741  0.5105 -0.3723
  631TIP3    H123308   0.246   6.367  16.728  0.9045  0.6558  2.1321
  631TIP3    H223309   0.302   6.491  16.662 -0.6890  0.7778  0.9407
  632TIP3   OH223310   3.208   5.004   3.462  0.0594  0.1875  0.1082
  632TIP3    H123311   3.140   4.961   3.410  0.7732 -0.1948 -0.5262
  632TIP3    H223312   3.180   5.096   3.467 -0.2856  0.1180 -0.5033
  633TIP3   OH223313   0.995   3.171  14.046  0.0061  0.2565 -0.4832
  633TIP3    H123314   1.090   3.162  14.036  0.2922 -0.3268  2.1026
  633TIP3    H223315   0.960   3.154  13.959  2.1599 -1.5604 -1.0686
  634TIP3   OH223316   4.751   3.718   3.690 -0.7360  0.4797 -0.0524
  634TIP3    H123317   4.730   3.664   3.766  0.7173 -0.1588 -0.0761
  634TIP3    H223318   4.688   3.690   3.623 -1.6927  0.6882  0.7487
  635TIP3   OH223319   0.986   6.764   1.563  0.3273 -0.1464 -0.2592
  635TIP3    H123320   1.018   6.787   1.476  0.3103  2.5055  0.3437
  635TIP3    H223321   1.061   6.780   1.621 -0.5286  1.2282  0.5387
  636TIP3   OH223322   5.500   2.903   2.324 -0.0273  0.0360 -0.0009
  636TIP3    H123323   5.505   2.892   2.229  0.0648 -1.3842  0.1405
  636TIP3    H223324   5.419   2.858   2.349  1.4442 -2.3330  0.8893
  637TIP3   OH223325   4.555   4.104  11.808 -0.1554  0.3075  0.1619
  637TIP3    H123326   4.475   4.153  11.829 -0.8576 -0.5436 -0.4315
  637TIP3    H223327   4.552   4.094  11.713  0.1712 -0.5509  0.2387
  638TIP3   OH223328   5.397   1.216   3.259  0.0473  0.0820 -0.6213
  638TIP3    H123329   5.450   1.291   3.286 -1.0787  0.8030 -0.3299
  638TIP3    H223330   5.404   1.215   3.164  0.7319  0.0585 -0.5704
  639TIP3   OH223331   4.738   3.430   2.453 -0.1551 -1.1026 -0.4845
  639TIP3    H123332   4.752   3.449   2.546 -0.0667 -0.0883 -0.7002
  639TIP3    H223333   4.665   3.367   2.453 -0.4554 -0.7707  0.2443
  640TIP3   OH223334   2.992   2.179  16.946  0.2235  0.2453 -0.3517
  640TIP3    H123335   2.937   2.203  16.872  2.1367  2.6654 -1.0909
  640TIP3    H223336   2.934   2.127  17.003 -2.4118  1.5763 -1.6620
  641TIP3   OH223337   3.916   5.721   3.842  0.5326 -0.1124 -0.4005
  641TIP3    H123338   4.001   5.716   3.884  1.3652 -1.2318 -2.0930
  641TIP3    H223339   3.892   5.630   3.825  1.1754  0.2273 -3.9483
  642TIP3   OH223340   4.174   1.657  13.622 -0.7037 -0.0798 -0.0984
  642TIP3    H123341   4.152   1.652  13.529 -1.7076  0.3236  0.1029
  642TIP3    H223342   4.226   1.578  13.639 -1.5592 -0.7936 -0.7207
  643TIP3   OH223343   0.244   2.169  15.052  0.3861 -0.4805  0.2555
  643TIP3    H123344   0.217   2.260  15.069 -0.7561 -0.7765  0.0907
  643TIP3    H223345   0.271   2.169  14.960  0.1898 -0.3483  0.1962
  644TIP3   OH223346   3.236   4.311  13.962 -0.3346  0.2337  0.2212
  644TIP3    H123347   3.286   4.302  14.043 -0.4172 -0.7960  0.1744
  644TIP3    H223348   3.145   4.298  13.989 -0.2673 -1.3684 -0.1889
  645TIP3   OH223349   3.704   1.636   1.904  0.1170  0.5734  0.2156
  645TIP3    H123350   3.786   1.655   1.858 -0.4580  0.3729 -0.9287
  645TIP3    H223351   3.731   1.599   1.988  1.1970  0.4107 -0.1959
  646TIP3   OH223352   2.657   4.921  12.277 -0.7835 -0.0041 -0.3183
  646TIP3    H123353   2.690   4.854  12.337  0.6257 -0.0329 -1.0885
  646TIP3    H223354   2.593   4.875  12.223  1.4393 -1.2558 -2.0232
  647TIP3   OH223355   5.636   6.692   1.591 -0.0801 -0.1110 -0.3741
  647TIP3    H123356   5.541   6.682   1.586 -0.3482  1.7872  0.2143
  647TIP3    H223357   5.655   6.766   1.533  0.9779 -0.2038 -0.1613
  648TIP3   OH223358   2.342   2.737   1.687 -0.0577  0.4474 -0.5517
  648TIP3    H123359   2.305   2.675   1.750  0.4724 -0.1018 -0.7677
  648TIP3    H223360   2.354   2.685   1.607 -1.6026  1.3559 -1.4250
  649TIP3   OH223361   5.292   0.522   2.566 -0.0166  0.3679  0.6260
  649TIP3    H123362   5.283   0.441   2.617 -0.1838 -0.5890 -0.8644
  649TIP3    H223363   5.354   0.499   2.497 -1.3030  1.0017 -0.7947
  650TIP3   OH223364   0.178   5.922   0.735 -0.5743  0.4339  0.3849
  650TIP3    H123365   0.223   5.874   0.666 -0.3332  1.2769 -0.0561
  650TIP3    H223366   0.085   5.902   0.722 -0.6733  1.5985 -1.0221
  651TIP3   OH223367   2.092   4.976   1.176 -0.0101  0.1873  0.0201
  651TIP3    H123368   2.133   4.890   1.174 -1.1395 -0.3738 -2.3839
  651TIP3    H223369   2.087   4.998   1.269  1.8537 -1.5579  0.6025
  652TIP3   OH223370   3.578   6.038  10.267  0.7561  0.8192 -0.4634
  652TIP3    H123371   3.527   6.117  10.250 -0.9185 -0.5620 -2.2886
  652TIP3    H223372   3.612   6.050  10.356 -1.2872  2.5816  0.1574
  653TIP3   OH223373   2.645   0.853  14.596 -0.1971 -0.0591 -0.2024
  653TIP3    H123374   2.713   0.877  14.534 -0.4731  1.9795  0.1984
  653TIP3    H223375   2.634   0.931  14.651 -3.1391 -0.1134 -0.5391
  654TIP3   OH223376   5.220   4.085   5.550  0.6008 -0.4320 -0.1446
  654TIP3    H123377   5.158   4.146   5.589  0.1432 -0.4962 -0.7630
  654TIP3    H223378   5.229   4.015   5.615 -1.4053 -1.3599 -0.7915
  655TIP3   OH223379   1.189   2.458   4.845 -0.1010  0.0985 -0.1581
  655TIP3    H123380   1.188   2.550   4.871 -1.7381 -0.1794  0.9429
  655TIP3    H223381   1.127   2.454   4.771 -0.9041 -0.2743  0.5152
  656TIP3   OH223382   0.409   3.900  16.304  0.5980  0.3639 -0.6466
  656TIP3    H123383   0.323   3.941  16.305  0.2737 -0.3009 -0.4148
  656TIP3    H223384   0.432   3.889  16.396  1.0031  0.6747 -0.7056
  657TIP3   OH223385   4.066   5.507  11.592 -0.4396 -0.0911 -0.0830
  657TIP3    H123386   4.040   5.554  11.513  0.0513  0.2234 -0.0623
  657TIP3    H223387   4.132   5.563  11.633 -1.8988  0.5773  1.4475
  658TIP3   OH223388   6.009   0.337  11.096 -0.3206 -0.0433 -0.3087
  658TIP3    H123389   6.062   0.409  11.061 -2.0932  0.0239 -3.1597
  658TIP3    H223390   5.953   0.378  11.161  0.6972  0.5438  0.2227
  659TIP3   OH223391   0.587   1.561  14.418  0.4502 -0.1000 -0.6438
  659TIP3    H123392   0.543   1.645  14.426  1.7979  0.5957 -0.2034
  659TIP3    H223393   0.555   1.509  14.493  0.8056  0.5915 -0.0053
  660TIP3   OH223394   5.268   4.245   4.147 -0.2501 -0.5802  0.1779
  660TIP3    H123395   5.322   4.215   4.220 -1.7700  0.0155  1.5855
  660TIP3    H223396   5.217   4.169   4.121 -2.4522  0.0962  2.2621
  661TIP3   OH223397   4.091   0.553  11.863 -0.4408  0.0345  0.2713
  661TIP3    H123398   4.084   0.497  11.786  1.5373  0.7202 -0.4719
  661TIP3    H223399   4.185   0.570  11.872 -0.5719 -0.2582  3.0296
  662TIP3   OH223400   4.069   4.359  14.141 -0.4519  0.2983  0.6889
  662TIP3    H123401   4.065   4.434  14.200  2.7280  1.1743 -0.0032
  662TIP3    H223402   4.098   4.286  14.197  1.5639  0.8906  0.5032
  663TIP3   OH223403   4.548   2.178   3.886  0.0741  0.3793  0.5736
  663TIP3    H123404   4.527   2.087   3.907 -0.5603  0.3071 -0.3010
  663TIP3    H223405   4.509   2.228   3.958 -1.6743  0.1107 -0.1175
  664TIP3   OH223406   4.885   1.268   6.166 -0.0771 -0.1140 -0.2612
  664TIP3    H123407   4.845   1.290   6.250  0.0045  0.9027 -0.4684
  664TIP3    H223408   4.936   1.189   6.183 -0.7114 -0.3803  0.4411
  665TIP3   OH223409   6.749   2.393  14.566 -0.1468  0.1351  0.2682
  665TIP3    H123410   6.730   2.432  14.480  0.5454 -1.2034 -0.5249
  665TIP3    H223411   6.747   2.467  14.626 -0.0002  1.2153 -1.0026
  666TIP3   OH223412   3.431   1.871   3.621 -0.0627  0.1326 -0.7908
  666TIP3    H123413   3.371   1.921   3.565  0.9039  0.8540 -1.2146
  666TIP3    H223414   3.479   1.938   3.669  0.2779 -0.4445 -0.3167
  667TIP3   OH223415   5.237   5.387  12.153 -0.1063  0.2974  0.0737
  667TIP3    H123416   5.226   5.440  12.232 -2.2723 -1.1115  0.8213
  667TIP3    H223417   5.232   5.296  12.184  2.3703 -0.3855 -1.2873
  668TIP3   OH223418   2.307   3.619  16.712  0.0119 -0.0287 -0.1071
  668TIP3    H123419   2.281   3.710  16.725 -0.1428 -0.1645  0.6213
  668TIP3    H223420   2.251   3.588  16.641  0.9418  0.7830 -1.2397
  669TIP3   OH223421   1.176   0.979   2.809  0.0051 -0.3201 -0.1823
  669TIP3    H123422   1.194   0.963   2.902 -0.5495 -0.6222 -0.1188
  669TIP3    H223423   1.262   0.983   2.768  0.2650  0.1242  0.3954
  670TIP3   OH223424   5.784   1.838   4.568  0.7440  0.2330 -0.4554
  670TIP3    H123425   5.776   1.933   4.568  0.6120  0.2396 -1.6957
  670TIP3    H223426   5.787   1.814   4.660  2.5150  1.5917 -0.0927
  671TIP3   OH223427   0.047   4.116   1.560  0.7996  0.4567  0.0061
  671TIP3    H123428   0.107   4.102   1.486 -0.6324  0.7377 -1.2692
  671TIP3    H223429   0.047   4.032   1.606  0.4247 -0.3079 -1.3285
  672TIP3   OH223430   0.484   6.331   3.162  0.2342 -0.5089 -0.0522
  672TIP3    H123431   0.423   6.383   3.109  2.1132  0.2533 -1.6154
  672TIP3    H223432   0.493   6.380   3.243 -2.7740 -1.7394  1.2031
  673TIP3   OH223433   6.631   2.943   5.220  0.0618  0.4357 -0.2065
  673TIP3    H123434   6.710   2.997   5.214  0.7241 -0.4315  0.3886
  673TIP3    H223435   6.641   2.880   5.149 -0.8586  1.2591 -1.0950
  674TIP3   OH223436   0.096   3.499  13.689 -0.1888 -0.3894 -0.1195
  674TIP3    H123437   0.052   3.558  13.750 -1.4726 -0.5916 -0.8224
  674TIP3    H223438   0.189   3.514  13.705 -0.4864  1.1612  0.3501
  675TIP3   OH223439   2.674   6.591  13.525 -0.9124 -0.0509  0.3353
  675TIP3    H123440   2.621   6.520  13.489  0.6436 -0.3100 -1.5997
  675TIP3    H223441   2.748   6.599  13.465  0.1796  1.6635  1.7991
  676TIP3   OH223442   0.666   6.588   6.367 -0.5200  0.1193 -0.3086
  676TIP3    H123443   0.612   6.531   6.314  1.8308 -1.9048 -0.6956
  676TIP3    H223444   0.721   6.529   6.418 -0.1967  2.0386  1.7408
  677TIP3   OH223445   0.404   2.279   2.908  0.0081  0.0182  0.4134
  677TIP3    H123446   0.455   2.262   2.988  0.9188  1.0905  0.0725
  677TIP3    H223447   0.431   2.366   2.880 -1.4577  0.2947 -0.2159
  678TIP3   OH223448   4.548   4.095  14.092 -0.5414  0.1424  0.1281
  678TIP3    H123449   4.627   4.119  14.140 -0.6813  2.0551 -0.5137
  678TIP3    H223450   4.572   4.104  14.000 -0.9795 -1.0790 -0.1161
  679TIP3   OH223451   2.654   0.871   5.694 -0.6089  0.4965 -0.0560
  679TIP3    H123452   2.567   0.897   5.664  0.6209  4.4530 -0.7787
  679TIP3    H223453   2.664   0.781   5.664 -3.5552  0.6801 -2.0095
  680TIP3   OH223454   6.378   4.694  12.736  0.3374 -0.4032  0.0559
  680TIP3    H123455   6.314   4.710  12.667  0.8241  0.2512 -0.2414
  680TIP3    H223456   6.349   4.748  12.809  0.7914  0.2211 -0.2251
  681TIP3   OH223457   1.096   0.122   1.340  0.0445  0.0224  0.5950
  681TIP3    H123458   1.008   0.136   1.305 -0.4878 -1.6532  1.2045
  681TIP3    H223459   1.153   0.124   1.264 -0.6104  0.2895  0.1021
  682TIP3   OH223460   2.761   5.519   1.935  0.1121  0.6540 -0.1431
  682TIP3    H123461   2.761   5.540   1.842 -1.7614  0.3505 -0.2521
  682TIP3    H223462   2.755   5.423   1.938  3.4925  0.3289  0.3500
  683TIP3   OH223463   4.278   6.168   4.286  0.3240  0.1438 -0.0936
  683TIP3    H123464   4.337   6.216   4.228  1.2545 -0.7431  0.0792
  683TIP3    H223465   4.202   6.148   4.233  0.3137  1.0163 -0.4268
  684TIP3   OH223466   1.466   4.482  11.077 -0.2669  0.1579 -0.0216
  684TIP3    H123467   1.426   4.439  11.002 -2.6131  2.2752 -0.1290
  684TIP3    H223468   1.533   4.540  11.039 -0.7604  0.4923 -0.3862
  685TIP3   OH223469   2.258   6.137   0.302 -0.6258 -0.2488  0.1851
  685TIP3    H123470   2.197   6.122   0.375 -1.6814  0.6577 -0.4721
  685TIP3    H223471   2.204   6.124   0.224  0.6708 -1.9947 -0.4740
  686TIP3   OH223472   3.406   2.882   4.872  0.3113 -0.0468  0.3295
  686TIP3    H123473   3.322   2.927   4.878  1.0992  2.1217 -2.5989
  686TIP3    H223474   3.397   2.823   4.797  1.1719 -0.3969  0.4828
  687TIP3   OH223475   2.846   0.748   0.714 -0.1325  0.5252 -0.0974
  687TIP3    H123476   2.829   0.683   0.645  0.9067  0.7245 -0.5572
  687TIP3    H223477   2.864   0.696   0.792 -0.8482  0.2924 -0.0738
  688TIP3   OH223478   1.931   5.487  11.050  0.4953 -0.0498 -0.0513
  688TIP3    H123479   1.909   5.421  10.984  0.8741  0.5574 -0.7966
  688TIP3    H223480   1.962   5.562  11.000 -0.5592  0.9609  0.7494
  689TIP3   OH223481   4.574   6.545  12.858 -0.1244  0.2615  0.2140
  689TIP3    H123482   4.625   6.549  12.777  0.2252  0.3547  0.4352
  689TIP3    H223483   4.538   6.456  12.859  0.7042 -0.0789  0.4543
  690TIP3   OH223484   2.895   3.304   2.369 -0.1984 -0.1190  0.0261
  690TIP3    H123485   2.932   3.288   2.456 -1.0249 -0.7095  0.2814
  690TIP3    H223486   2.969   3.338   2.318 -0.0485  1.7092  1.3588
  691TIP3   OH223487   1.297   5.453   4.866  0.3072 -0.2855 -0.4674
  691TIP3    H123488   1.351   5.532   4.863  1.4558 -1.0123  0.1836
  691TIP3    H223489   1.207   5.484   4.857  0.8440  0.9266 -2.1711
  692TIP3   OH223490   1.276   5.488   0.316 -0.3057 -0.1586  0.0754
  692TIP3    H123491   1.317   5.467   0.231 -1.7463 -0.9788 -0.4482
  692TIP3    H223492   1.347   5.477   0.380  0.5433 -0.5345 -0.8992
  693TIP3   OH223493   6.123   4.414  13.766 -0.0356 -0.0201 -0.3217
  693TIP3    H123494   6.085   4.418  13.678  0.2445 -0.6899 -0.4805
  693TIP3    H223495   6.055   4.449  13.823 -0.9047 -1.1938 -0.6009
  694TIP3   OH223496   1.067   1.815   3.213 -0.0172 -0.2497  0.0881
  694TIP3    H123497   1.017   1.892   3.187 -0.7567 -0.9928 -0.7137
  694TIP3    H223498   1.094   1.834   3.303 -2.4826 -0.1762  0.8863
  695TIP3   OH223499   6.603   2.780  15.325  0.3454  0.3024  0.0116
  695TIP3    H123500   6.697   2.799  15.329  0.0829  1.6346  0.0499
  695TIP3    H223501   6.565   2.827  15.399 -0.4204  0.1299 -0.2606
  696TIP3   OH223502   0.937   1.226  13.531 -0.3867  0.0150 -0.1742
  696TIP3    H123503   0.871   1.283  13.571 -0.3228  1.8424 -2.4263
  696TIP3    H223504   1.015   1.281  13.526  1.3301 -1.9954  2.1260
  697TIP3   OH223505   3.446   2.479  15.665 -0.1503  0.5425 -0.3537
  697TIP3    H123506   3.429   2.413  15.732 -1.7104  1.0030 -0.2653
  697TIP3    H223507   3.536   2.461  15.636 -0.3285 -1.2420  0.0762
  698TIP3   OH223508   6.347   2.326   1.683  0.2088 -0.3772 -0.7408
  698TIP3    H123509   6.301   2.407   1.662 -0.8244 -0.5797  0.5934
  698TIP3    H223510   6.286   2.278   1.740  2.1087 -0.6058  1.2078
  699TIP3   OH223511   6.578   2.947  14.839  0.2042  0.1496 -0.3476
  699TIP3    H123512   6.583   2.909  14.751  0.5261  0.0700 -0.2962
  699TIP3    H223513   6.561   3.040  14.824 -2.5518 -0.2984 -0.4416
  700TIP3   OH223514   6.267   3.836  15.267 -0.0266 -0.2733  0.6564
  700TIP3    H123515   6.197   3.781  15.232  0.7679  0.0074 -1.5266
  700TIP3    H223516   6.324   3.775  15.314 -1.1353 -0.6729  1.5233
  701TIP3   OH223517   3.164   5.382   1.982  0.5931 -0.3881  0.0175
  701TIP3    H123518   3.097   5.397   2.049 -0.7480  0.1217 -1.3791
  701TIP3    H223519   3.168   5.286   1.973  1.3171 -0.5106  1.2836
  702TIP3   OH223520   3.410   1.737   1.559  0.1203 -0.2493 -0.2864
  702TIP3    H123521   3.399   1.705   1.648  1.8025  0.4625  0.2074
  702TIP3    H223522   3.337   1.799   1.547  0.5688  0.5694  1.0443
  703TIP3   OH223523   1.464   5.766  11.351  0.4353 -1.0562 -0.1349
  703TIP3    H123524   1.475   5.826  11.424  1.3951 -0.1989 -0.9744
  703TIP3    H223525   1.553   5.747  11.320  0.0340 -0.8877 -1.4854
  704TIP3   OH223526   2.381   3.349  13.507 -0.4287  0.2283  0.2506
  704TIP3    H123527   2.375   3.415  13.438  2.7052 -0.8004 -1.2299
  704TIP3    H223528   2.370   3.265  13.461 -0.8111 -0.4002  1.4506
  705TIP3   OH223529   5.769   0.081  13.175 -0.7520 -0.1772 -0.5678
  705TIP3    H123530   5.754   0.117  13.088 -1.3823  1.5133  0.2096
  705TIP3    H223531   5.746  -0.012  13.166  0.2669 -0.3130 -2.4462
  706TIP3   OH223532   3.432   0.225   0.341  0.1941 -0.0583 -0.6622
  706TIP3    H123533   3.349   0.179   0.334  1.3032 -2.5381  0.7573
  706TIP3    H223534   3.418   0.290   0.410 -0.3851 -0.9689  0.1006
  707TIP3   OH223535   3.142   2.945  16.216  0.8179  0.1087  0.0958
  707TIP3    H123536   3.083   2.943  16.141  1.6844  0.2986 -0.6173
  707TIP3    H223537   3.087   2.970  16.290  0.0641  0.5517 -0.5982
  708TIP3   OH223538   4.606   3.682  12.092  0.1239 -0.6238 -0.0730
  708TIP3    H123539   4.609   3.735  12.012 -0.0846  0.3844  0.5673
  708TIP3    H223540   4.637   3.741  12.161 -2.4248 -0.5015  1.0843
  709TIP3   OH223541   2.951   5.874   4.433  0.3291  0.0375 -0.1766
  709TIP3    H123542   2.948   5.797   4.489 -0.9413  0.1923 -0.0044
  709TIP3    H223543   2.860   5.897   4.419  0.6824  2.0805  0.5583
  710TIP3   OH223544   3.019   5.702   5.141  0.1419  0.4023 -0.3484
  710TIP3    H123545   2.974   5.786   5.140  0.5911  0.6475 -1.3300
  710TIP3    H223546   2.974   5.649   5.076 -2.4704 -1.4461  2.6782
  711TIP3   OH223547   6.417   2.057   5.665  0.1398  0.3530  0.2177
  711TIP3    H123548   6.377   1.993   5.725 -0.7108  0.1416 -0.5504
  711TIP3    H223549   6.352   2.069   5.596  0.9019  0.9581 -0.4165
  712TIP3   OH223550   1.857   0.261   3.883 -0.1830  0.5295 -0.6761
  712TIP3    H123551   1.793   0.329   3.863  0.3099  1.3359  0.4018
  712TIP3    H223552   1.919   0.303   3.943  0.1808 -0.8466 -0.0476
  713TIP3   OH223553   4.684   2.455   1.784  0.1897  0.1897  0.2063
  713TIP3    H123554   4.687   2.367   1.747 -1.0574  0.4911 -0.6742
  713TIP3    H223555   4.592   2.480   1.778  0.9003  2.6984 -2.3296
  714TIP3   OH223556   2.077   1.144  17.062 -0.3983 -0.4140 -0.2975
  714TIP3    H123557   2.014   1.072  17.057  0.4977 -1.1592 -1.6378
  714TIP3    H223558   2.082   1.165  17.155 -3.8778  0.8655 -0.2778
  715TIP3   OH223559   5.468   0.377  12.691  0.1620 -0.1313 -0.0291
  715TIP3    H123560   5.549   0.412  12.652 -0.1566  0.6150 -0.0448
  715TIP3    H223561   5.410   0.364  12.617  0.1718 -0.4168  0.0117
  716TIP3   OH223562   2.655   0.856   5.187  0.5540  0.3604  0.0989
  716TIP3    H123563   2.624   0.908   5.261  0.0921  1.6982 -0.9800
  716TIP3    H223564   2.743   0.889   5.170  0.3645  0.6215 -0.4105
  717TIP3   OH223565   1.705   1.611  12.147  0.0179  0.3317  0.3643
  717TIP3    H123566   1.750   1.567  12.074 -1.4045  0.4439 -0.6135
  717TIP3    H223567   1.640   1.547  12.177 -0.5280  0.9158  0.4280
  718TIP3   OH223568   4.944   2.487  12.615  0.5134  0.3985  0.6694
  718TIP3    H123569   5.030   2.504  12.654 -0.4917  3.0613  1.9871
  718TIP3    H223570   4.938   2.549  12.542 -0.2199  0.1299  0.4931
  719TIP3   OH223571   6.174   1.120   3.325 -0.5297 -0.2359 -0.3842
  719TIP3    H123572   6.261   1.147   3.354 -1.1988  0.9532  0.6046
  719TIP3    H223573   6.117   1.194   3.348 -1.9167 -1.2736 -0.3759
  720TIP3   OH223574   2.438   0.126   0.654 -0.3304  0.0506  0.3895
  720TIP3    H123575   2.392   0.120   0.738 -1.9528  0.8666 -0.3852
  720TIP3    H223576   2.428   0.039   0.615  1.5773 -0.7456  1.5571
  721TIP3   OH223577   2.091   1.031   2.662 -0.0201  0.0153  0.2742
  721TIP3    H123578   2.042   0.949   2.663  0.3355 -0.2701 -1.9704
  721TIP3    H223579   2.183   1.005   2.660  0.1342  0.5050  0.7002
  722TIP3   OH223580   3.678   5.571   2.078  0.1518  0.2217 -0.9148
  722TIP3    H123581   3.710   5.487   2.110 -0.2160  0.1098 -0.8333
  722TIP3    H223582   3.590   5.553   2.046 -0.0619  0.6423 -0.5789
  723TIP3   OH223583   6.702   4.999  11.196  0.2565  0.3618  0.6042
  723TIP3    H123584   6.733   5.064  11.260  0.3235 -2.0502  3.2538
  723TIP3    H223585   6.763   4.926  11.206  1.3327  0.4617 -3.6313
  724TIP3   OH223586   0.550   4.171  12.288 -0.3288 -0.4800 -0.4574
  724TIP3    H123587   0.481   4.198  12.228 -1.6010  0.5480  1.3807
  724TIP3    H223588   0.504   4.149  12.369  1.3850 -1.2034  0.3624
  725TIP3   OH223589   5.073   3.172  12.921 -0.1793 -0.1890  0.1960
  725TIP3    H123590   5.140   3.130  12.866 -2.3538 -1.6996 -1.4816
  725TIP3    H223591   5.076   3.265  12.895  2.8205  0.3264  1.9539
  726TIP3   OH223592   2.103   3.764   5.657  0.1999  0.3175 -0.9310
  726TIP3    H123593   2.072   3.788   5.570 -0.4472  1.3675 -0.4186
  726TIP3    H223594   2.097   3.844   5.708  0.2251 -0.3725  0.1893
  727TIP3   OH223595   6.286   4.560  11.361  0.4193  0.3766 -0.1888
  727TIP3    H123596   6.252   4.648  11.346 -1.0017 -0.0297  0.4770
  727TIP3    H223597   6.338   4.541  11.283  1.5178  2.1398  0.0808
  728TIP3   OH223598   0.006   5.048  16.583 -0.0715 -0.0771  0.1984
  728TIP3    H123599  -0.013   5.053  16.676 -0.2379 -2.7748  0.3752
  728TIP3    H223600   0.084   4.993  16.577 -1.6200 -2.2509 -1.3349
  729TIP3   OH223601   2.940   1.854   1.276 -0.6447  0.5405  0.1368
  729TIP3    H123602   2.885   1.811   1.211 -0.2833  1.5003 -0.8199
  729TIP3    H223603   2.954   1.787   1.343 -0.3726 -0.7154 -1.1494
  730TIP3   OH223604   3.501   6.169  12.192  0.4985  0.6614 -0.2514
  730TIP3    H123605   3.476   6.172  12.100 -1.3449 -1.9922  0.0342
  730TIP3    H223606   3.594   6.144  12.190  0.2213 -0.3961 -1.4271
  731TIP3   OH223607   3.367   3.827  14.821  0.4011  0.1654  0.3056
  731TIP3    H123608   3.406   3.842  14.735  0.9715 -1.1982  0.2994
  731TIP3    H223609   3.434   3.853  14.884 -0.1563  1.5243  0.3644
  732TIP3   OH223610   5.626   1.101  13.581 -0.0244  0.2453  0.0234
  732TIP3    H123611   5.607   1.085  13.489  0.3577 -0.3102  0.0338
  732TIP3    H223612   5.554   1.060  13.628  0.2643 -0.3080 -0.0014
  733TIP3   OH223613   3.109   2.255  15.862 -0.3222  0.2188 -0.1898
  733TIP3    H123614   3.173   2.186  15.846 -0.0340  0.0812  1.4424
  733TIP3    H223615   3.030   2.208  15.889 -0.3981  0.4853  0.0548
  734TIP3   OH223616   2.382   3.426   5.770 -1.0601  0.2694 -0.1808
  734TIP3    H123617   2.352   3.516   5.762 -0.6759  0.2836 -2.1745
  734TIP3    H223618   2.430   3.423   5.853  1.5379  2.7680 -1.4178
  735TIP3   OH223619   3.619   0.735   1.700  0.3182  0.3147  0.2830
  735TIP3    H123620   3.634   0.657   1.753 -1.6328  0.1641  0.6629
  735TIP3    H223621   3.654   0.713   1.614 -0.4200 -1.0842  0.3183
  736TIP3   OH223622   1.253   6.655   0.237  0.2579  0.3475  0.0217
  736TIP3    H123623   1.224   6.700   0.158 -0.6006  0.4717  0.3891
  736TIP3    H223624   1.280   6.569   0.207 -0.9106  0.0721 -0.3038
  737TIP3   OH223625   6.681   5.237   0.353 -0.0074  0.4451  0.3012
  737TIP3    H123626   6.707   5.193   0.434  1.0179  0.6535  0.0969
  737TIP3    H223627   6.761   5.279   0.321 -0.6398  1.2618 -0.2642
  738TIP3   OH223628   1.037   0.909  11.951 -0.0638  0.2032 -0.2196
  738TIP3    H123629   0.977   0.837  11.932 -0.8666  0.4190  1.3803
  738TIP3    H223630   0.986   0.988  11.932 -0.2243  0.3828  0.9196
  739TIP3   OH223631   0.678   5.684   4.142  0.1133  0.2881  0.3456
  739TIP3    H123632   0.720   5.599   4.156  0.0474  0.4526  1.7677
  739TIP3    H223633   0.747   5.739   4.106  0.6360  0.0689  0.9820
  740TIP3   OH223634   3.739   5.768   0.745 -0.2686  0.1957 -0.3599
  740TIP3    H123635   3.646   5.779   0.725 -0.0973  2.9376 -0.0586
  740TIP3    H223636   3.765   5.852   0.783  2.4044 -0.4128 -0.6706
  741TIP3   OH223637   0.547   5.218   0.366 -0.2552 -0.1075 -0.2205
  741TIP3    H123638   0.519   5.309   0.375 -0.1576  0.3459 -3.2841
  741TIP3    H223639   0.641   5.219   0.383 -0.3528  0.2271  0.3200
  742TIP3   OH223640   1.433   6.041   3.086  0.0828  0.0481 -0.3615
  742TIP3    H123641   1.372   5.973   3.057  2.1048 -2.0441  0.0639
  742TIP3    H223642   1.447   6.023   3.179  0.9961  0.7961 -0.3431
  743TIP3   OH223643   3.213   6.726   4.740 -0.6895 -0.0726  0.1569
  743TIP3    H123644   3.184   6.706   4.830  0.6314 -0.5367  0.4931
  743TIP3    H223645   3.261   6.648   4.712 -0.4350  0.3747 -0.6780
  744TIP3   OH223646   2.639   6.718  15.673 -0.7165 -0.1615 -0.3750
  744TIP3    H123647   2.731   6.702  15.650 -0.3811 -0.2206  0.8855
  744TIP3    H223648   2.597   6.743  15.591  0.0428 -1.8240 -1.3176
  745TIP3   OH223649   2.778   1.546   3.791  0.4229 -0.1565 -0.1522
  745TIP3    H123650   2.772   1.559   3.886  2.0165  1.2670 -0.2173
  745TIP3    H223651   2.745   1.627   3.753 -1.6501 -1.2760 -0.9062
  746TIP3   OH223652   5.800   5.812   4.041 -0.1278 -0.0518  0.2262
  746TIP3    H123653   5.847   5.853   3.968 -0.7558  2.3914  1.0944
  746TIP3    H223654   5.856   5.740   4.067  1.0944  0.2382 -1.3906
  747TIP3   OH223655   6.676   5.044   4.342  0.3033 -0.2819  0.6300
  747TIP3    H123656   6.769   5.047   4.361  0.4249  3.5572  0.3318
  747TIP3    H223657   6.635   5.093   4.414 -0.7734  2.4479 -1.6265
  748TIP3   OH223658   3.250   3.258  14.713 -0.1296 -0.0358  0.6526
  748TIP3    H123659   3.345   3.247  14.709 -0.2484 -1.2974  0.7578
  748TIP3    H223660   3.216   3.191  14.653 -0.9182  1.4786 -0.6836
  749TIP3   OH223661   4.998   1.658   4.813 -0.2504  0.4970  0.2612
  749TIP3    H123662   5.088   1.663   4.781 -0.6332  1.2180 -0.7485
  749TIP3    H223663   4.982   1.564   4.824  1.2133  0.3999  2.2840
  750TIP3   OH223664   3.911   3.836   4.489 -0.0682  0.0768  0.3190
  750TIP3    H123665   3.945   3.871   4.571  0.7406  1.2611 -0.4936
  750TIP3    H223666   3.817   3.829   4.503 -0.0203  0.8594  1.1300
  751TIP3   OH223667   6.051   4.816   4.601  0.2644 -0.5607  0.0882
  751TIP3    H123668   6.059   4.727   4.634  1.7724 -0.0791  1.1078
  751TIP3    H223669   6.137   4.835   4.563 -0.3155  0.1649 -0.9101
  752TIP3   OH223670   1.191   1.937   5.392  0.0207 -0.1578 -0.7298
  752TIP3    H123671   1.177   2.011   5.332 -1.1357 -1.0501 -1.6034
  752TIP3    H223672   1.220   1.865   5.336 -0.3214 -0.7962 -0.1020
  753TIP3   OH223673   1.215   3.389   2.784 -0.0125  0.2750  0.4314
  753TIP3    H123674   1.290   3.433   2.825 -0.2063  0.4277  0.6193
  753TIP3    H223675   1.208   3.430   2.697 -0.2441  0.6743  0.6374
  754TIP3   OH223676   5.440   6.469  16.770  0.5281 -0.6234 -1.0894
  754TIP3    H123677   5.367   6.527  16.789 -0.4868 -1.6304 -1.7649
  754TIP3    H223678   5.518   6.522  16.787 -0.3402  0.4010 -0.1222
  755TIP3   OH223679   0.427   3.230   4.941 -0.1776  0.1388 -0.1653
  755TIP3    H123680   0.415   3.321   4.970 -1.1731  0.5815 -1.8610
  755TIP3    H223681   0.375   3.179   5.003 -3.3406  1.1817 -1.7164
  756TIP3   OH223682   2.830   5.379   1.280 -0.1457 -0.0979 -0.5094
  756TIP3    H123683   2.753   5.431   1.256  1.1436  0.8494 -3.0494
  756TIP3    H223684   2.894   5.443   1.310  0.0640 -0.7440  0.4696
  757TIP3   OH223685   3.314   6.704   0.280  0.0317  0.2040 -0.1460
  757TIP3    H123686   3.347   6.726   0.193  0.7038 -0.3346 -0.0294
  757TIP3    H223687   3.263   6.781   0.305 -1.8980 -0.4226 -1.8485
  758TIP3   OH223688   4.258   6.332  15.440 -0.0677  0.5214 -0.5575
  758TIP3    H123689   4.172   6.301  15.468  0.8477 -1.5190  0.1948
  758TIP3    H223690   4.268   6.297  15.352  1.0316 -1.6223  0.3511
  759TIP3   OH223691   5.620   0.521  14.447  0.3332 -0.0502  0.3998
  759TIP3    H123692   5.635   0.612  14.474  0.3208  0.4386 -1.1010
  759TIP3    H223693   5.702   0.476  14.468  1.9940  1.2876 -2.4963
  760TIP3   OH223694   5.422   4.118  13.509  0.1657 -0.4306  0.0042
  760TIP3    H123695   5.386   4.035  13.479  1.0004 -0.2632 -1.6038
  760TIP3    H223696   5.516   4.110  13.494  0.3968  0.3604  0.9550
  761TIP3   OH223697   1.734   3.009   0.513 -0.1667  0.1410  0.3424
  761TIP3    H123698   1.727   3.009   0.609  0.0468 -1.1950  0.3813
  761TIP3    H223699   1.646   2.984   0.483 -0.3971  1.1428  0.1572
  762TIP3   OH223700   2.684   4.132   3.047 -0.5227  0.1528  0.2839
  762TIP3    H123701   2.606   4.153   2.996  0.2427  0.0761 -0.9734
  762TIP3    H223702   2.727   4.216   3.061 -0.0957  0.0353 -0.2884
  763TIP3   OH223703   3.259   4.059  15.640 -0.1410  0.7732  0.0699
  763TIP3    H123704   3.182   4.019  15.680  1.5719  0.1654  3.1047
  763TIP3    H223705   3.263   4.021  15.552 -3.2032  0.8005 -0.1716
  764TIP3   OH223706   2.367   4.851  16.182  0.6032  0.0510 -0.6354
  764TIP3    H123707   2.311   4.776  16.204 -0.4419  0.1332 -2.7509
  764TIP3    H223708   2.441   4.813  16.136 -1.3363  0.3621 -4.3797
  765TIP3   OH223709   3.013   6.125   4.166  0.0854  0.3095 -0.3285
  765TIP3    H123710   2.981   6.215   4.161  2.2436  1.0722 -1.7965
  765TIP3    H223711   3.102   6.129   4.131  0.9565 -2.0728  1.3730
  766TIP3   OH223712   6.451   5.195  16.374  0.1430 -0.0678  0.1023
  766TIP3    H123713   6.355   5.200  16.378  0.2389  1.5534  0.9602
  766TIP3    H223714   6.475   5.246  16.296  0.4515  2.7675  1.9197
  767TIP3   OH223715   6.380   2.879  14.166 -0.4592 -0.4699  0.3521
  767TIP3    H123716   6.323   2.809  14.133  1.5929 -2.0496 -0.0052
  767TIP3    H223717   6.456   2.833  14.201  1.1816  1.6161 -0.3109
  768TIP3   OH223718   0.935   1.356   2.164  0.1145 -0.3329  0.2438
  768TIP3    H123719   0.883   1.432   2.189 -0.7525 -1.0495  0.6679
  768TIP3    H223720   1.009   1.356   2.224  0.5647  0.6350 -0.2940
  769TIP3   OH223721   3.371   3.471   3.832 -0.5645 -0.4275  0.6275
  769TIP3    H123722   3.401   3.466   3.922 -3.4151  0.4128  1.7242
  769TIP3    H223723   3.347   3.382   3.809  2.5099 -1.1339 -0.2982
  770TIP3   OH223724   5.498   3.413  17.163  0.6797 -0.2681 -0.6594
  770TIP3    H123725   5.593   3.406  17.162  1.0426  2.3018  2.0053
  770TIP3    H223726   5.469   3.352  17.231  0.1326 -2.3172 -2.6025
  771TIP3   OH223727   0.436   5.485  15.140  0.1930  0.2305  0.2940
  771TIP3    H123728   0.364   5.515  15.084 -0.0212 -0.8370 -0.0169
  771TIP3    H223729   0.413   5.517  15.227  0.7585  2.3083 -0.2618
  772TIP3   OH223730   4.510   6.467  14.698 -0.9446  0.0062 -0.4569
  772TIP3    H123731   4.566   6.544  14.693  0.6428 -1.1613 -1.8187
  772TIP3    H223732   4.443   6.481  14.632 -2.1829  1.2955  1.0013
  773TIP3   OH223733   3.866   2.085  16.658 -0.2944 -0.0910  0.0187
  773TIP3    H123734   3.878   2.028  16.734 -0.7187  0.1774  0.2915
  773TIP3    H223735   3.821   2.163  16.692 -0.4788  0.0395 -0.4991
  774TIP3   OH223736   2.799   3.612   3.110  0.3514 -0.2567  0.5421
  774TIP3    H123737   2.864   3.545   3.094 -0.1828 -0.5483 -0.4774
  774TIP3    H223738   2.783   3.652   3.025  0.4881  1.0244  1.0853
  775TIP3   OH223739   4.452   1.995   6.363 -0.8078 -0.0816 -0.4052
  775TIP3    H123740   4.419   1.906   6.376 -1.2751 -0.1934 -2.0944
  775TIP3    H223741   4.547   1.985   6.357 -0.9213 -0.6334 -1.5961
  776TIP3   OH223742   3.013   6.025   5.122  0.2593 -0.0352  0.3450
  776TIP3    H123743   3.017   6.043   5.216 -0.9478  0.3392  0.3450
  776TIP3    H223744   2.920   6.038   5.100  0.6160  0.3525 -0.9823
  777TIP3   OH223745   4.468   6.132   0.619 -0.0864 -0.0830  0.2140
  777TIP3    H123746   4.528   6.144   0.692 -0.1581 -0.9953  0.4328
  777TIP3    H223747   4.381   6.144   0.657 -0.2090 -2.0634  0.6296
  778TIP3   OH223748   0.274   4.073   6.544  0.5647  0.0982 -0.4581
  778TIP3    H123749   0.366   4.060   6.565  0.4677  0.5548  0.2849
  778TIP3    H223750   0.228   4.013   6.602  0.3300  0.8087  0.0987
  779TIP3   OH223751   1.064   0.921   1.209 -0.2305  0.4145  0.0271
  779TIP3    H123752   1.108   1.006   1.210 -1.1548  0.9299  2.3476
  779TIP3    H223753   1.124   0.863   1.162  1.6944  1.6952  0.8024
  780TIP3   OH223754   1.529   3.884  14.837 -0.2353 -0.0590 -0.2587
  780TIP3    H123755   1.602   3.839  14.879  0.9898  1.8778 -0.1799
  780TIP3    H223756   1.564   3.970  14.814 -1.8405  0.1226 -2.3093
  781TIP3   OH223757   2.728   3.420   3.736  0.0116  0.2420  0.4176
  781TIP3    H123758   2.746   3.383   3.822 -1.8400 -0.2951  0.6120
  781TIP3    H223759   2.757   3.511   3.743  0.3356  0.0776  1.4340
  782TIP3   OH223760   3.522   3.810  15.038  0.4772  0.0125  0.5067
  782TIP3    H123761   3.483   3.777  15.119 -0.5537 -0.3766 -0.1166
  782TIP3    H223762   3.588   3.745  15.014  0.7576  0.1091  1.0037
  783TIP3   OH223763   0.904   6.663  11.770  0.6329 -0.0971 -0.0486
  783TIP3    H123764   0.987   6.693  11.733  1.2471  0.8530  1.9513
  783TIP3    H223765   0.849   6.741  11.774 -0.3362 -0.6963 -1.2380
  784TIP3   OH223766   2.137   3.068  14.257  0.1031  0.3058 -0.6353
  784TIP3    H123767   2.211   3.072  14.317  1.6776  0.5540 -2.5033
  784TIP3    H223768   2.116   2.975  14.251  1.8206 -0.0477 -1.8437
  785TIP3   OH223769   3.429   5.754   1.310  0.1236  0.4765 -0.1589
  785TIP3    H123770   3.375   5.828   1.282 -0.7935 -0.0649  0.1301
  785TIP3    H223771   3.389   5.726   1.393 -0.2179 -1.0146 -0.8013
  786TIP3   OH223772   0.796   5.547   5.760 -0.0676 -0.5804 -0.2453
  786TIP3    H123773   0.810   5.469   5.815 -0.9248  0.1845  1.1174
  786TIP3    H223774   0.867   5.544   5.696  0.9199 -1.5845  0.8400
  787TIP3   OH223775   5.714   0.934   2.535 -0.0772  0.0009  0.0908
  787TIP3    H123776   5.663   0.994   2.589 -0.4554 -0.4791  0.2651
  787TIP3    H223777   5.715   0.852   2.583  1.1850  0.0981  0.2749
  788TIP3   OH223778   0.668   3.484  13.565 -0.1612 -0.2396  1.6109
  788TIP3    H123779   0.670   3.529  13.480 -2.0845  0.4398  1.8750
  788TIP3    H223780   0.758   3.455  13.579  0.8857  2.3577  0.8039
  789TIP3   OH223781   1.122   2.876  15.881  0.5435 -0.0535 -0.0860
  789TIP3    H123782   1.072   2.897  15.802  0.6441  1.3068  0.1890
  789TIP3    H223783   1.076   2.802  15.920 -0.5489  0.3970 -0.4841
  790TIP3   OH223784   1.043   2.010  12.876  0.2280 -0.3321  0.5869
  790TIP3    H123785   1.059   2.025  12.969 -0.3296 -0.4610  0.7074
  790TIP3    H223786   1.036   1.915  12.868  2.5407 -0.5288  0.0237
  791TIP3   OH223787   2.032   5.044   3.817  0.3251 -0.9114  0.1592
  791TIP3    H123788   2.121   5.077   3.811 -0.2722  1.0975  1.3566
  791TIP3    H223789   1.999   5.049   3.727  0.4160  1.5213  0.1917
  792TIP3   OH223790   2.019   0.838  13.117  0.3663  0.0500  0.2741
  792TIP3    H123791   1.942   0.792  13.152  1.3520 -0.7870  1.4292
  792TIP3    H223792   1.988   0.928  13.103 -1.1997 -0.5864 -0.6549
  793TIP3   OH223793   1.152   4.847   4.827 -0.0247  0.6792 -0.2456
  793TIP3    H123794   1.105   4.905   4.887 -0.5705 -0.7658  0.7916
  793TIP3    H223795   1.084   4.815   4.767  0.1027  0.4678 -0.2791
  794TIP3   OH223796   3.588   5.605   4.019  0.2230  0.2605  0.8927
  794TIP3    H123797   3.668   5.579   3.973 -0.0933 -0.3052  0.6541
  794TIP3    H223798   3.519   5.551   3.981 -0.4939  1.5350  0.2974
  795TIP3   OH223799   3.667   4.545  16.360  0.0771 -0.2319  0.0586
  795TIP3    H123800   3.760   4.527  16.349 -0.1647 -1.6836  0.0733
  795TIP3    H223801   3.640   4.584  16.277  0.4406 -1.0960 -0.4900
  796TIP3   OH223802   1.979   1.851  12.821  0.2708 -0.0838 -0.2337
  796TIP3    H123803   2.028   1.769  12.812 -1.9504 -1.7247  1.5194
  796TIP3    H223804   1.957   1.876  12.731  0.9068 -1.4623 -0.8027
  797TIP3   OH223805   5.854   3.369  17.025 -0.5615 -0.3531 -0.2924
  797TIP3    H123806   5.826   3.456  16.996  0.6372 -0.2093 -1.0745
  797TIP3    H223807   5.850   3.315  16.946  1.3181 -0.3300 -0.4345
  798TIP3   OH223808   3.903   5.127   4.319  0.3411 -0.1859  0.2312
  798TIP3    H123809   3.882   5.148   4.228 -0.6428 -1.0584  0.2372
  798TIP3    H223810   3.992   5.092   4.315  0.6877  0.7075 -0.2422
  799TIP3   OH223811   4.394   4.189   3.547 -0.1554 -0.4752  0.2079
  799TIP3    H123812   4.403   4.225   3.635  1.2433  0.2313 -0.1948
  799TIP3    H223813   4.348   4.257   3.498  0.0733 -0.3855  0.1167
  800TIP3   OH223814   5.380   4.569   4.886  0.4114 -0.3649  0.2436
  800TIP3    H123815   5.354   4.477   4.893 -0.2672 -0.2211 -0.2985
  800TIP3    H223816   5.470   4.571   4.918  0.6475 -1.3289 -0.3094
  801TIP3   OH223817   3.567   1.140   5.098  0.0654 -0.1910  0.2919
  801TIP3    H123818   3.600   1.216   5.051  0.8435 -0.3621  0.5380
  801TIP3    H223819   3.543   1.173   5.184  1.9625 -0.4772  0.9920
  802TIP3   OH223820   1.168   3.014  12.426  0.3942 -0.2271 -0.1096
  802TIP3    H123821   1.129   3.050  12.346  1.3810  1.6869  0.2097
  802TIP3    H223822   1.110   3.044  12.496  0.3014 -0.6934  0.0103
  803TIP3   OH223823   5.211   1.881   4.956 -0.2115 -0.1881  0.1248
  803TIP3    H123824   5.194   1.788   4.966  0.7198 -0.3762  0.0289
  803TIP3    H223825   5.144   1.911   4.894 -0.1954 -0.8917 -0.2382
  804TIP3   OH223826   4.063   1.101  17.111  0.3574 -0.1506 -0.2565
  804TIP3    H123827   4.147   1.143  17.093  0.4005  0.7500  1.7319
  804TIP3    H223828   4.083   1.008  17.118  1.5685  0.1821  1.7473
  805TIP3   OH223829   6.674   3.049   5.478  0.0419 -0.9690  0.6870
  805TIP3    H123830   6.642   3.005   5.400  0.8661 -0.9121  0.3073
  805TIP3    H223831   6.693   2.978   5.540  1.4800 -1.1741  0.0360
  806TIP3   OH223832   2.667   4.843  11.178  0.0243 -0.0247  0.1250
  806TIP3    H123833   2.709   4.845  11.264 -0.3255  0.2602  0.2894
  806TIP3    H223834   2.596   4.907  11.184 -1.3834 -1.5223  0.3441
  807TIP3   OH223835   1.329   1.220  13.644 -0.2575 -0.5315  0.5578
  807TIP3    H123836   1.244   1.265  13.645 -1.0636 -2.0026  1.5359
  807TIP3    H223837   1.393   1.291  13.652 -1.3678  0.6255 -0.2239
  808TIP3   OH223838   5.267   5.069   4.579 -0.2797 -0.1237 -0.4677
  808TIP3    H123839   5.279   5.089   4.672  1.0410 -2.7238  0.0051
  808TIP3    H223840   5.174   5.086   4.562 -0.7689 -0.5388  1.5890
  809TIP3   OH223841   5.169   6.054   0.323  0.1690  0.4111 -0.4886
  809TIP3    H123842   5.158   5.971   0.368 -1.1180 -0.3011 -2.0203
  809TIP3    H223843   5.081   6.078   0.294  0.7429  1.5011 -1.4390
  810TIP3   OH223844   6.033   1.882  15.168  0.3930  0.5807 -0.7133
  810TIP3    H123845   5.999   1.896  15.257  0.2967  0.7364 -0.7744
  810TIP3    H223846   6.025   1.968  15.126 -0.4854  0.2797 -1.1884
  811TIP3   OH223847   1.415   2.026  13.676  0.3676 -0.4400  0.4512
  811TIP3    H123848   1.481   1.970  13.636  0.1726 -0.2828 -0.1114
  811TIP3    H223849   1.433   2.023  13.770  1.3746 -0.1325  0.2758
  812TIP3   OH223850   6.269   5.510  17.003  0.5157 -0.4022  0.9026
  812TIP3    H123851   6.312   5.446  16.947  0.0475 -1.1495  1.3835
  812TIP3    H223852   6.181   5.519  16.968  1.0508  1.1567 -0.1027
  813TIP3   OH223853   3.155   1.692  12.620 -0.1294 -0.1598 -0.3723
  813TIP3    H123854   3.241   1.698  12.579 -0.2797 -0.9224 -0.8120
  813TIP3    H223855   3.169   1.727  12.708  0.3378  0.8986 -0.8436
  814TIP3   OH223856   4.809   3.920  14.416 -0.3502  0.3886  0.1801
  814TIP3    H123857   4.897   3.887  14.434  0.5999  1.5493 -1.9655
  814TIP3    H223858   4.770   3.856  14.357 -0.4909  0.4628  0.1906
  815TIP3   OH223859   6.752   4.341   5.137  0.3068  0.2677 -0.1710
  815TIP3    H123860   6.686   4.410   5.143  0.8990  0.7597  0.7859
  815TIP3    H223861   6.818   4.364   5.202  0.6781 -1.0298 -0.0541
  816TIP3   OH223862   5.777   0.321   1.020 -0.4024  0.1065  0.4300
  816TIP3    H123863   5.715   0.277   1.079  0.0854  1.6455  2.1815
  816TIP3    H223864   5.729   0.397   0.988 -1.0070 -1.2116 -2.0571
  817TIP3   OH223865   4.219   6.533  15.947 -0.0987  0.0118  0.4741
  817TIP3    H123866   4.199   6.607  16.004 -1.1560  0.0576  0.0737
  817TIP3    H223867   4.283   6.567  15.884 -2.2694  1.3451 -1.1741
  818TIP3   OH223868   3.832   1.014   0.803 -0.0271  0.4389 -0.1561
  818TIP3    H123869   3.801   0.929   0.836 -1.4772  0.7630 -0.5788
  818TIP3    H223870   3.782   1.028   0.722  1.7235  0.7545 -1.2316
  819TIP3   OH223871   1.978   4.731   5.055  0.1739 -0.9395  0.4249
  819TIP3    H123872   1.946   4.725   4.965 -1.4973 -0.1508  0.9244
  819TIP3    H223873   1.970   4.643   5.090 -0.4126 -0.9944  0.1705
  820TIP3   OH223874   4.921   2.035   0.871 -0.0089  0.4797 -0.3500
  820TIP3    H123875   5.015   2.025   0.884  0.0990  0.2893 -1.1782
  820TIP3    H223876   4.914   2.084   0.788 -0.6446 -1.5199 -1.5411
  821TIP3   OH223877   1.299   4.579  14.504  0.4291  0.4170 -0.0139
  821TIP3    H123878   1.234   4.612  14.441 -0.4245  2.0233  1.6231
  821TIP3    H223879   1.322   4.492  14.471 -2.8722 -0.4115 -0.4770
  822TIP3   OH223880   2.503   5.763   4.445  0.0667  0.3576  0.0652
  822TIP3    H123881   2.431   5.787   4.503 -0.7551 -0.4914 -0.5804
  822TIP3    H223882   2.520   5.671   4.465  0.4395  0.3335 -0.3552
  823TIP3   OH223883   4.647   5.013   1.159 -0.3869 -0.0855 -0.3178
  823TIP3    H123884   4.628   5.106   1.147 -2.9539 -0.3698  0.8888
  823TIP3    H223885   4.735   5.012   1.198 -0.4555  1.8473 -0.0127
  824TIP3   OH223886   6.556   1.915   4.420 -0.0772 -0.1358 -0.1640
  824TIP3    H123887   6.495   1.988   4.435 -1.3574 -0.8220 -1.7089
  824TIP3    H223888   6.639   1.946   4.456 -1.3072  0.8462  2.0000
  825TIP3   OH223889   0.510   6.792   5.115 -0.0871  0.6901 -0.2040
  825TIP3    H123890   0.455   6.717   5.136 -0.8403  1.0990 -0.6850
  825TIP3    H223891   0.457   6.868   5.137  1.4855  1.1368  2.4532
  826TIP3   OH223892   0.692   2.427   5.412 -0.5959 -0.3189 -0.1953
  826TIP3    H123893   0.601   2.414   5.385 -0.9156  1.9049 -0.3995
  826TIP3    H223894   0.686   2.485   5.487  0.6644 -0.2671 -0.1194
  827TIP3   OH223895   2.715   5.597   4.572 -0.0183 -0.2017 -0.3868
  827TIP3    H123896   2.662   5.634   4.644  0.7883  1.3665 -0.5488
  827TIP3    H223897   2.653   5.545   4.521 -0.8011 -0.6236  0.9501
  828TIP3   OH223898   4.490   2.831   2.270 -0.5602 -0.0501  0.2439
  828TIP3    H123899   4.410   2.779   2.272 -1.9080  1.9168  0.7278
  828TIP3    H223900   4.467   2.911   2.318  1.5417  0.7971 -0.0775
  829TIP3   OH223901   2.011   3.819  11.366  0.1884  0.0781  0.4518
  829TIP3    H123902   1.978   3.731  11.385 -0.4367  0.3599  0.7300
  829TIP3    H223903   2.026   3.819  11.271  1.0761 -0.6092  0.5825
  830TIP3   OH223904   1.899   5.538  15.872 -0.1593  0.4440  0.3062
  830TIP3    H123905   1.840   5.510  15.802  1.3792  0.6785 -1.1678
  830TIP3    H223906   1.896   5.634  15.870 -1.1120  0.4603  1.4961
  831TIP3   OH223907   0.158   6.221   2.313  0.8093  0.4231 -0.0203
  831TIP3    H123908   0.164   6.313   2.288 -0.9883  0.4826 -0.3576
  831TIP3    H223909   0.230   6.179   2.266  3.8378  2.1008  2.7395
  832TIP3   OH223910   6.042   1.555  10.631 -0.0642 -0.0477 -0.4339
  832TIP3    H123911   6.078   1.538  10.718 -1.7107 -1.0015  0.0858
  832TIP3    H223912   6.069   1.645  10.612  0.8313 -0.0297  0.7782
  833TIP3   OH223913   6.544   6.571   4.711  0.2814  0.3463 -0.2710
  833TIP3    H123914   6.637   6.591   4.697  0.6912 -0.2384  1.4369
  833TIP3    H223915   6.533   6.483   4.675  0.0716  0.8876 -1.5932
  834TIP3   OH223916   6.694   2.991  11.152 -0.1724 -0.2757 -0.0551
  834TIP3    H123917   6.752   2.916  11.142  0.6511  0.3751 -0.2821
  834TIP3    H223918   6.684   3.026  11.064 -0.3527  0.0195  0.0796
  835TIP3   OH223919   0.140   3.758  13.939  0.2444 -0.3117 -0.1198
  835TIP3    H123920   0.050   3.749  13.971  0.1660  1.2148  0.1813
  835TIP3    H223921   0.181   3.674  13.958 -0.1453  0.0751  2.9268
  836TIP3   OH223922   6.077   4.609   5.429 -0.0249  0.0719 -0.1456
  836TIP3    H123923   6.005   4.570   5.479 -1.2230  1.3135 -0.8201
  836TIP3    H223924   6.055   4.590   5.338  0.7277  0.1143 -0.3340
  837TIP3   OH223925   3.237   5.699  16.190 -0.1960 -0.2289 -0.0710
  837TIP3    H123926   3.190   5.722  16.110 -1.0827 -0.1321  0.4675
  837TIP3    H223927   3.322   5.743  16.180 -0.2793 -0.2353 -0.9597
  838TIP3   OH223928   5.003   3.453  11.322 -0.5967  0.5880  0.4791
  838TIP3    H123929   4.994   3.396  11.399  0.0453 -1.0615 -0.6102
  838TIP3    H223930   4.964   3.403  11.251  1.1321  0.9285 -0.7747
  839TIP3   OH223931   2.020   4.354  14.124  0.0268  0.1907 -0.6958
  839TIP3    H123932   1.961   4.429  14.125 -1.8327 -1.2139 -1.2183
  839TIP3    H223933   1.965   4.279  14.143  1.8102 -1.1019 -0.3487
  840TIP3   OH223934   4.542   5.735  13.852  0.9542 -0.0527 -0.0912
  840TIP3    H123935   4.633   5.710  13.833  0.4615 -2.2167  0.1264
  840TIP3    H223936   4.490   5.682  13.792 -0.1597  1.8426 -0.8466
  841TIP3   OH223937   6.782   1.421   1.230 -0.0403  0.1111  0.2003
  841TIP3    H123938   6.771   1.328   1.251 -1.4762  0.6541  2.1270
  841TIP3    H223939   6.794   1.423   1.135  1.3527 -2.1211  0.2424
  842TIP3   OH223940   0.001   0.796  16.444 -0.4289  0.2760 -0.0700
  842TIP3    H123941  -0.056   0.771  16.371 -1.2662  0.1130  0.6218
  842TIP3    H223942  -0.050   0.776  16.522 -0.4236  2.4357  0.5495
  843TIP3   OH223943   4.379   1.794  15.348  0.1275 -0.1951  0.2592
  843TIP3    H123944   4.405   1.886  15.339  1.4486 -0.3523  1.8402
  843TIP3    H223945   4.443   1.746  15.295  1.0061 -0.3354  1.3928
  844TIP3   OH223946   1.039   6.717  15.183 -0.7194 -0.5260 -0.3422
  844TIP3    H123947   1.129   6.745  15.197 -1.1706  1.3054 -0.8996
  844TIP3    H223948   1.028   6.642  15.241  0.2717  1.0431  2.0176
  845TIP3   OH223949   0.576   3.390   0.670  0.2498 -0.2946 -0.5627
  845TIP3    H123950   0.505   3.455   0.676 -1.2603 -1.9080 -0.0003
  845TIP3    H223951   0.606   3.380   0.761 -0.4374 -1.3199 -0.4367
  846TIP3   OH223952   5.421   0.711  10.846  0.0460 -0.2899  0.3608
  846TIP3    H123953   5.505   0.674  10.872  0.0053  0.2113  1.2436
  846TIP3    H223954   5.356   0.653  10.885 -0.0276  1.0191  2.3441
  847TIP3   OH223955   4.719   6.703  16.253  0.5608 -0.0430  0.5898
  847TIP3    H123956   4.734   6.769  16.185  1.5945 -1.5639 -0.7276
  847TIP3    H223957   4.649   6.648  16.218  0.2855 -0.1633  1.3030
  848TIP3   OH223958   3.079   2.646   5.851 -0.2957 -0.0922  0.6928
  848TIP3    H123959   3.075   2.597   5.768  0.4090 -1.6250  1.5132
  848TIP3    H223960   2.995   2.628   5.893  0.7406 -2.5154  1.9549
  849TIP3   OH223961   4.127   5.421  11.322  0.4213  0.6561 -0.2090
  849TIP3    H123962   4.038   5.456  11.322  0.9628  2.0946  0.3575
  849TIP3    H223963   4.142   5.395  11.231 -0.3700  0.9343 -0.4304
  850TIP3   OH223964   4.332   4.275  11.803  0.3761 -0.1879 -0.2099
  850TIP3    H123965   4.258   4.303  11.856  0.5346  0.4019 -0.2969
  850TIP3    H223966   4.293   4.239  11.724  0.1860  0.2288 -0.3081
  851TIP3   OH223967   3.508   2.793  13.982  0.2168  0.2306  0.1856
  851TIP3    H123968   3.513   2.773  14.076  0.6313  1.2462  0.3908
  851TIP3    H223969   3.549   2.878  13.974 -0.2156  0.3476 -0.8715
  852TIP3   OH223970   5.706   1.427  15.070 -0.3256  0.0618  0.3094
  852TIP3    H123971   5.617   1.443  15.101  0.1516 -0.7104  2.2194
  852TIP3    H223972   5.755   1.505  15.096 -0.3394  0.3467 -0.4633
  853TIP3   OH223973   2.796   4.849   2.586  0.0244  0.0952  0.7757
  853TIP3    H123974   2.813   4.941   2.565 -2.1757  0.2631 -0.4422
  853TIP3    H223975   2.715   4.851   2.637 -0.2518 -1.2002  0.4097
  854TIP3   OH223976   4.295   4.684  16.878  0.2135  0.1263  0.1401
  854TIP3    H123977   4.385   4.713  16.891 -0.1084  0.5054  1.7979
  854TIP3    H223978   4.258   4.748  16.817  0.4237  1.4045  1.3029
  855TIP3   OH223979   2.272   4.610  13.070 -0.2040 -0.2623  0.2433
  855TIP3    H123980   2.221   4.605  13.151  0.2167  0.5348  0.5673
  855TIP3    H223981   2.273   4.703  13.048 -0.0620 -0.4380 -0.5174
  856TIP3   OH223982   5.471   5.484   4.206 -0.1987 -0.0543  0.0427
  856TIP3    H123983   5.525   5.545   4.257 -0.2308  0.4794 -0.5516
  856TIP3    H223984   5.529   5.411   4.186  0.7428  1.1188 -1.7431
  857TIP3   OH223985   4.334   1.261  14.353  0.4224 -0.1859  0.2903
  857TIP3    H123986   4.346   1.350  14.320 -0.5699 -0.3970 -0.6606
  857TIP3    H223987   4.240   1.252  14.365  0.2596 -1.8127 -1.6769
  858TIP3   OH223988   0.299   2.453  11.978  0.3941  0.1937 -0.6372
  858TIP3    H123989   0.215   2.443  11.932  0.1050 -0.0330 -0.0747
  858TIP3    H223990   0.288   2.401  12.058 -0.4133  3.2593  1.4275
  859TIP3   OH223991   4.692   1.682  13.027  0.7376 -0.2567 -0.2924
  859TIP3    H123992   4.726   1.736  12.955  2.8031 -1.5097 -0.3335
  859TIP3    H223993   4.659   1.603  12.985  0.4341 -0.3011  0.0196
  860TIP3   OH223994   2.634   1.520  14.778 -0.5398  0.6747 -0.0484
  860TIP3    H123995   2.628   1.611  14.809 -0.2945  0.5331  0.4341
  860TIP3    H223996   2.724   1.511  14.747 -0.7823  0.8107 -0.8064
  861TIP3   OH223997   1.767   0.079   2.199  0.1567 -0.3907  0.5038
  861TIP3    H123998   1.837   0.122   2.249 -0.2012  2.9245 -1.5416
  861TIP3    H223999   1.689   0.094   2.252 -0.1353  2.6666 -0.5691
  862TIP3   OH224000   1.477   2.922   5.447  0.6080  0.1590  0.5650
  862TIP3    H124001   1.549   2.861   5.432 -0.0759 -0.5464  0.0787
  862TIP3    H224002   1.399   2.867   5.448 -0.0672  1.0771 -0.2979
  863TIP3   OH224003   4.669   2.491  13.865 -0.2453  0.1810 -0.0487
  863TIP3    H124004   4.593   2.481  13.921  0.5573  1.6951  1.4162
  863TIP3    H224005   4.656   2.575  13.821 -1.1515 -1.2245 -2.7325
  864TIP3   OH224006   3.591   1.926   1.706 -0.0875  0.4849 -0.7045
  864TIP3    H124007   3.519   1.894   1.761  1.3827 -1.9310 -0.0132
  864TIP3    H224008   3.591   1.867   1.631  0.6318  1.0178 -1.1285
  865TIP3   OH224009   2.331   4.291  13.786  0.2668 -0.4446 -0.1891
  865TIP3    H124010   2.314   4.216  13.728 -0.0730 -0.3862 -0.1658
  865TIP3    H224011   2.426   4.300  13.785  0.3819 -1.4326  0.5108
  866TIP3   OH224012   5.842   2.291  10.501 -0.1257 -0.2664  0.3876
  866TIP3    H124013   5.810   2.251  10.581 -1.4831  0.8950  0.4601
  866TIP3    H224014   5.833   2.223  10.434 -0.2507 -0.7962  0.9385
  867TIP3   OH224015   3.269   6.063   1.826 -0.0183 -0.5878 -1.2323
  867TIP3    H124016   3.323   6.024   1.895  0.5021  0.1632 -1.2034
  867TIP3    H224017   3.274   6.001   1.754 -1.2055 -1.7686 -0.3403
  868TIP3   OH224018   3.968   5.046  10.838 -0.5933  0.6075  0.4709
  868TIP3    H124019   4.036   4.992  10.798 -1.5839 -1.3741  1.3525
  868TIP3    H224020   4.005   5.135  10.837  0.9366  0.0127 -1.3438
  869TIP3   OH224021   0.818   2.252  14.866 -0.1660  0.0182 -0.0809
  869TIP3    H124022   0.829   2.158  14.877 -1.1074 -0.3791 -2.1337
  869TIP3    H224023   0.907   2.286  14.855  0.2010 -0.5683  0.9437
  870TIP3   OH224024   2.431   5.035   1.521 -0.2759  0.1028 -0.0412
  870TIP3    H124025   2.461   5.068   1.436  1.7158 -0.9844  0.1678
  870TIP3    H224026   2.502   5.058   1.581 -1.0297 -0.3749  1.0513
  871TIP3   OH224027   0.461   3.338  14.869 -0.4139 -0.1024 -0.3243
  871TIP3    H124028   0.524   3.404  14.839 -0.9218 -0.2720 -1.8576
  871TIP3    H224029   0.412   3.314  14.790 -2.4682  0.0857  0.8202
  872TIP3   OH224030   3.654   2.208  12.671  0.0306  0.1183  0.4678
  872TIP3    H124031   3.659   2.140  12.604 -0.8186  0.7838 -0.2938
  872TIP3    H224032   3.678   2.163  12.753  1.3371 -0.6420 -0.3010
  873TIP3   OH224033   5.167   6.224   1.864 -0.1100  0.5178  0.5588
  873TIP3    H124034   5.102   6.156   1.846 -0.5106  0.4370  2.2045
  873TIP3    H224035   5.251   6.183   1.844 -0.4248 -0.0833  0.4452
  874TIP3   OH224036   1.643   6.437  11.355 -0.2885  0.1414  0.0657
  874TIP3    H124037   1.688   6.407  11.275 -0.5353 -1.0159  0.3356
  874TIP3    H224038   1.561   6.474  11.323 -1.4604 -2.4039 -0.1356
  875TIP3   OH224039   5.952   5.275  16.029  0.3776 -0.7224  0.0442
  875TIP3    H124040   5.944   5.217  15.953 -2.9694  1.1644 -1.2646
  875TIP3    H224041   6.013   5.343  16.001 -1.9435  0.7764 -1.6824
  876TIP3   OH224042   4.083   1.461  16.013 -0.2205 -0.2196  0.2825
  876TIP3    H124043   4.050   1.407  15.941  2.1894 -0.0728 -1.0506
  876TIP3    H224044   4.028   1.539  16.012 -0.8455 -0.6578 -0.7674
  877TIP3   OH224045   2.613   0.058  13.005 -0.1242 -0.5998 -0.0894
  877TIP3    H124046   2.590   0.142  13.045  1.4577  0.4349 -1.2555
  877TIP3    H224047   2.531   0.027  12.967 -0.5136  0.9805 -0.6155
  878TIP3   OH224048   3.424   0.221   3.941 -0.2906 -0.3726 -0.5528
  878TIP3    H124049   3.358   0.163   3.904  0.9701 -1.3643 -1.3397
  878TIP3    H224050   3.456   0.272   3.867 -0.2302  0.1704 -0.1634
  879TIP3   OH224051   4.391   3.101   6.026  0.0716 -0.1190  0.1691
  879TIP3    H124052   4.431   3.186   6.007 -0.3828  0.3019  1.0563
  879TIP3    H224053   4.451   3.038   5.987  0.0589  0.6315 -1.1087
  880TIP3   OH224054   4.298   3.924   5.513  0.1964  0.5547  0.7927
  880TIP3    H124055   4.283   3.837   5.551 -0.0768  0.5701  0.7199
  880TIP3    H224056   4.212   3.955   5.487  0.5718 -0.2800 -1.6830
  881TIP3   OH224057   0.828   0.557   4.085 -0.0944  0.1406  0.8638
  881TIP3    H124058   0.733   0.551   4.084 -0.0762 -1.9946 -1.8930
  881TIP3    H224059   0.855   0.502   4.159 -0.9758  0.0377  1.1169
  882TIP3   OH224060   0.291   4.712  10.534 -0.4061 -0.3732 -0.5915
  882TIP3    H124061   0.363   4.660  10.496 -1.0375 -0.4600 -1.7119
  882TIP3    H224062   0.246   4.749  10.458 -2.9510 -2.1638 -0.0821
  883TIP3   OH224063   2.658   2.645  16.987  0.1083 -0.5732 -0.2194
  883TIP3    H124064   2.603   2.568  16.971  0.6764 -0.8179 -1.0714
  883TIP3    H224065   2.717   2.617  17.057 -0.4735 -0.5004  0.3049
  884TIP3   OH224066   3.060   5.024  14.791  0.1584  0.2159 -0.4486
  884TIP3    H124067   2.997   5.075  14.741 -0.2721  0.9473  0.7848
  884TIP3    H224068   3.132   5.007  14.730  0.0272  1.7684 -1.0784
  885TIP3   OH224069   1.043   5.506  12.714 -0.0014 -0.1296  0.6084
  885TIP3    H124070   1.092   5.432  12.751 -2.0213 -1.0096  1.6345
  885TIP3    H224071   1.019   5.560  12.789  2.5665  2.4145 -0.2189
  886TIP3   OH224072   4.679   3.660   0.883  0.5888  0.4079  0.3043
  886TIP3    H124073   4.589   3.689   0.893  0.3604  0.2492 -1.0732
  886TIP3    H224074   4.732   3.732   0.917 -0.0140  1.6801 -1.3670
  887TIP3   OH224075   1.298   2.830   3.388  0.2928  0.0849 -0.8839
  887TIP3    H124076   1.246   2.754   3.416  0.5345 -1.1334 -3.4133
  887TIP3    H224077   1.387   2.811   3.418  0.2184 -0.2946 -0.9010
  888TIP3   OH224078   2.281   6.654  11.023  0.2119  0.1471 -0.3714
  888TIP3    H124079   2.345   6.699  10.967 -0.6689  1.1171 -0.6429
  888TIP3    H224080   2.199   6.661  10.975 -1.4386  4.2255  2.4477
  889TIP3   OH224081   3.573   2.989   3.537  0.2277 -0.4769  0.6260
  889TIP3    H124082   3.593   3.057   3.601  0.9911  0.1351 -0.2598
  889TIP3    H224083   3.546   2.914   3.591 -0.7451  0.5318  1.6087
  890TIP3   OH224084   4.241   1.480  11.171  0.0329  0.1373  0.2135
  890TIP3    H124085   4.318   1.432  11.199 -0.7492 -1.6362 -0.5219
  890TIP3    H224086   4.249   1.486  11.076 -0.6909 -0.0132  0.1333
  891TIP3   OH224087   5.136   4.812  12.437 -0.2808  0.1692  0.3722
  891TIP3    H124088   5.097   4.891  12.474 -0.7028  1.0064 -1.7046
  891TIP3    H224089   5.226   4.836  12.418 -0.2941  0.0272  0.1182
  892TIP3   OH224090   3.984   2.282   4.880 -0.0947 -0.2526  0.2611
  892TIP3    H124091   3.905   2.238   4.849  0.0370 -0.4847  0.2467
  892TIP3    H224092   4.032   2.214   4.926  0.1728 -0.1542  0.1314
  893TIP3   OH224093   4.244   0.016   4.625 -0.4309 -0.2554 -1.0462
  893TIP3    H124094   4.154  -0.014   4.610 -0.1419 -2.3633  0.8574
  893TIP3    H224095   4.296  -0.031   4.559 -0.1673 -3.1881  1.0515
  894TIP3   OH224096   0.628   3.650  16.443  0.4667  0.0728  0.1060
  894TIP3    H124097   0.706   3.636  16.497 -0.3445 -0.1257  1.2806
  894TIP3    H224098   0.659   3.701  16.369  1.7221 -0.0462  0.5187
  895TIP3   OH224099   5.893   3.197  16.664  0.7895 -0.3950 -0.4468
  895TIP3    H124100   5.948   3.180  16.587  1.3414  1.3468 -0.4833
  895TIP3    H224101   5.951   3.244  16.725 -0.4346  0.8442 -0.1854
  896TIP3   OH224102   5.549   4.976   4.050 -0.3425  0.4059 -0.1305
  896TIP3    H124103   5.619   4.912   4.037  0.6196  1.5333 -0.7117
  896TIP3    H224104   5.498   4.972   3.969 -0.6370 -0.0326  0.0731
  897TIP3   OH224105   2.807   4.503  15.709  0.0130  0.0254  0.3779
  897TIP3    H124106   2.764   4.523  15.793 -0.9303 -0.7434  0.0971
  897TIP3    H224107   2.736   4.510  15.645  0.5059 -0.4461 -0.2158
  898TIP3   OH224108   3.497   4.229  15.826 -0.1671 -0.6777  0.1761
  898TIP3    H124109   3.403   4.221  15.839 -0.1446 -0.8209  0.2551
  898TIP3    H224110   3.516   4.321  15.844 -0.5909 -0.1545 -1.8031
  899TIP3   OH224111   5.105   0.995  10.823 -0.6122 -0.1613 -1.0768
  899TIP3    H124112   5.018   1.024  10.850 -0.8209 -0.0166 -1.9053
  899TIP3    H224113   5.146   0.963  10.904 -1.7283 -0.9919 -0.8213
  900TIP3   OH224114   5.370   5.289   4.416 -0.1990 -0.5678 -0.1031
  900TIP3    H124115   5.319   5.237   4.478 -0.3710  0.4087  0.5929
  900TIP3    H224116   5.417   5.224   4.363 -1.2670 -1.4498  0.0077
  901TIP3   OH224117   2.684   5.149   4.308 -0.0019  0.6386  0.3132
  901TIP3    H124118   2.644   5.233   4.332 -1.6377  0.4160 -1.4108
  901TIP3    H224119   2.670   5.094   4.385 -2.7118  0.7177 -0.0216
  902TIP3   OH224120   2.938   4.012  16.959  0.0134  0.3614  0.0305
  902TIP3    H124121   2.893   4.026  17.042 -0.9179  2.9742 -0.7953
  902TIP3    H224122   3.029   4.037  16.976  0.4026 -1.3831  0.7772
  903TIP3   OH224123   0.884   6.080  13.944 -0.6867 -0.1803 -0.1341
  903TIP3    H124124   0.858   6.172  13.949 -0.2287 -0.0894  3.0346
  903TIP3    H224125   0.896   6.063  13.851  1.9676  3.8015 -0.7779
  904TIP3   OH224126   6.225   3.433  11.373 -0.4654  0.3301  0.6726
  904TIP3    H124127   6.165   3.378  11.322 -0.7354  1.3548 -0.1601
  904TIP3    H224128   6.169   3.477  11.436 -0.4582  0.6286  0.4727
  905TIP3   OH224129   3.247   0.361   6.598  0.6043 -0.3469 -0.1863
  905TIP3    H124130   3.200   0.282   6.623 -1.1381 -0.1431 -2.4646
  905TIP3    H224131   3.221   0.427   6.661  2.1608 -1.5290  1.8101
  906TIP3   OH224132   5.824   1.895   3.386 -0.2922 -0.4571  0.5858
  906TIP3    H124133   5.776   1.967   3.427  0.4870  0.9712 -0.8934
  906TIP3    H224134   5.907   1.935   3.358 -0.3436 -1.6097 -1.3695
  907TIP3   OH224135   3.850   5.706   2.379 -0.3232  0.1986 -1.0391
  907TIP3    H124136   3.912   5.636   2.360 -1.3036 -0.5728 -1.5003
  907TIP3    H224137   3.879   5.742   2.463  0.7313 -0.1482 -1.2470
  908TIP3   OH224138   4.771   6.584  16.769 -0.5613 -0.1034 -0.0925
  908TIP3    H124139   4.842   6.527  16.740 -1.8405 -1.3875 -0.8296
  908TIP3    H224140   4.793   6.605  16.860  1.0791  0.0915 -0.4947
  909TIP3   OH224141   1.269   0.361  11.137 -0.1739  0.2581  0.2478
  909TIP3    H124142   1.349   0.371  11.189  0.1134 -0.2211 -0.1033
  909TIP3    H224143   1.244   0.269  11.148  0.7930 -0.2981 -1.7443
  910TIP3   OH224144   6.553   3.170   3.742 -0.0606  0.4294  0.0321
  910TIP3    H124145   6.554   3.074   3.734  0.1300  0.4643 -0.4033
  910TIP3    H224146   6.464   3.194   3.715  0.6113  0.5526 -2.2994
  911TIP3   OH224147   2.108   0.987  14.436  0.0267  0.3702  0.2429
  911TIP3    H124148   2.155   1.031  14.366 -0.5368 -2.7111 -2.3045
  911TIP3    H224149   2.026   1.036  14.444  0.6602  1.5547 -0.3173
  912TIP3   OH224150   4.006   5.047  10.419  0.1370  0.2079  0.4468
  912TIP3    H124151   4.015   5.140  10.439  1.7970  0.0759  0.4333
  912TIP3    H224152   4.082   5.006  10.459 -0.8261 -1.2405  0.8794
  913TIP3   OH224153   0.180   1.805   5.031  0.3244 -0.1522  0.3899
  913TIP3    H124154   0.123   1.759   4.970  1.5225 -1.3227  0.0874
  913TIP3    H224155   0.265   1.762   5.020  1.2364  1.4643  0.8856
  914TIP3   OH224156   5.795   2.320   0.186  0.0060 -0.1039 -0.1057
  914TIP3    H124157   5.889   2.331   0.201  0.1835  0.9927 -1.7284
  914TIP3    H224158   5.777   2.229   0.209  1.1809  0.0265  1.4995
  915TIP3   OH224159   4.676   5.544   2.825 -0.7041  0.8106  0.1339
  915TIP3    H124160   4.681   5.575   2.915  1.9054 -2.9149  1.5181
  915TIP3    H224161   4.654   5.451   2.832  1.8509 -0.2027 -2.8080
  916TIP3   OH224162   0.831   3.689   6.067 -0.1274  0.0356  0.0924
  916TIP3    H124163   0.826   3.595   6.083 -0.4342  0.3248  1.9054
  916TIP3    H224164   0.752   3.724   6.108  0.1588  1.1220 -0.2605
  917TIP3   OH224165   1.147   5.050   4.168  0.3048  0.0915 -0.5259
  917TIP3    H124166   1.224   5.007   4.206  1.0561 -1.7368 -3.7109
  917TIP3    H224167   1.163   5.144   4.181  2.7935 -0.2556 -0.5529
  918TIP3   OH224168   5.818   1.904  14.128 -0.0734  0.1885 -0.0860
  918TIP3    H124169   5.818   1.939  14.217 -0.4122 -0.9025  0.3597
  918TIP3    H224170   5.727   1.882  14.110 -0.2842  1.9009 -1.3400
  919TIP3   OH224171   2.457   4.317   5.500  0.2796  0.2703  0.4148
  919TIP3    H124172   2.451   4.240   5.443  2.3882  1.1405 -1.1367
  919TIP3    H224173   2.393   4.302   5.568  0.6401 -2.8915  0.1944
  920TIP3   OH224174   1.798   5.946  16.084 -0.0846  0.2273 -0.1987
  920TIP3    H124175   1.888   5.977  16.099 -0.1415  0.0504  0.5592
  920TIP3    H224176   1.788   5.946  15.989 -0.1673  2.7586 -0.2481
  921TIP3   OH224177   6.008   4.013   1.859  0.1608 -0.1365  0.4455
  921TIP3    H124178   5.976   3.985   1.945 -0.0455 -0.0376  0.4013
  921TIP3    H224179   6.068   4.085   1.878  1.0372 -0.8863  0.5921
  922TIP3   OH224180   1.989   0.881   3.093  0.2581  0.4542  0.0259
  922TIP3    H124181   2.021   0.796   3.063 -1.0194  0.3463 -1.1640
  922TIP3    H224182   2.048   0.944   3.052  1.1397  0.1505  0.8165
  923TIP3   OH224183   0.610   6.448  15.090 -0.2432  0.2875  0.1181
  923TIP3    H124184   0.625   6.362  15.052  1.0174  0.4311  0.2631
  923TIP3    H224185   0.617   6.435  15.185 -0.9749  0.3870  0.1951
  924TIP3   OH224186   6.072   4.340   4.852 -0.2296  0.4176  0.3185
  924TIP3    H124187   6.012   4.347   4.927  0.3219  0.4983  0.7601
  924TIP3    H224188   6.028   4.279   4.792 -0.0605 -0.7447  1.3246
  925TIP3   OH224189   6.410   5.440  11.126  0.2199  0.2614 -0.0454
  925TIP3    H124190   6.432   5.391  11.205 -0.5064  0.0148  0.0141
  925TIP3    H224191   6.403   5.531  11.156  1.2389  0.3639 -0.0902
  926TIP3   OH224192   5.353   1.873  10.723  0.4428  0.2505  0.2897
  926TIP3    H124193   5.285   1.926  10.764 -0.1915 -0.1693 -0.2056
  926TIP3    H224194   5.379   1.811  10.792 -0.3831 -0.2342  0.1735
  927TIP3   OH224195   5.845   6.154  16.945  0.1512 -0.4782 -0.4845
  927TIP3    H124196   5.834   6.093  17.018  1.1077 -0.5882 -0.4154
  927TIP3    H224197   5.819   6.104  16.868 -0.1591 -0.5991 -0.3039
  928TIP3   OH224198   4.332   0.055  15.768  0.0036  0.0751 -0.1865
  928TIP3    H124199   4.413   0.106  15.780  0.4000 -0.3713 -0.8627
  928TIP3    H224200   4.321   0.008  15.851  1.5031 -1.3220 -0.7135
  929TIP3   OH224201   6.333   5.147   1.076  0.1941 -0.2085  0.1895
  929TIP3    H124202   6.414   5.113   1.114  0.0986  2.2590  2.9381
  929TIP3    H224203   6.351   5.240   1.061 -1.9764  0.3015  0.4449
  930TIP3   OH224204   5.692   0.408  11.599 -0.7698  0.1988 -0.0253
  930TIP3    H124205   5.609   0.388  11.555 -0.0812 -0.3954 -1.1114
  930TIP3    H224206   5.757   0.354  11.553  0.3350  1.1639  0.3492
  931TIP3   OH224207   5.496   1.164  12.554 -0.2754 -0.7335  0.4509
  931TIP3    H124208   5.500   1.215  12.473 -0.8804 -1.2014  0.1205
  931TIP3    H224209   5.439   1.215  12.611  1.8723  0.7525  1.4494
  932TIP3   OH224210   0.784   4.497   0.181  0.5850  0.6727 -0.1471
  932TIP3    H124211   0.735   4.544   0.248 -0.0308 -1.0923  0.7119
  932TIP3    H224212   0.791   4.407   0.215  0.2597 -0.2923 -2.4170
  933TIP3   OH224213   4.490   3.183   1.391  0.4223 -0.8571 -0.0909
  933TIP3    H124214   4.507   3.103   1.441  1.3552 -0.7990 -0.2883
  933TIP3    H224215   4.506   3.253   1.454 -0.8573 -0.8154  0.2171
  934TIP3   OH224216   1.183   1.959  10.719  0.0685  0.1291  0.4166
  934TIP3    H124217   1.129   2.038  10.710  0.7568  0.5343 -0.2232
  934TIP3    H224218   1.257   1.987  10.774  0.1623 -0.1447  0.4302
  935TIP3   OH224219   4.761   3.776   0.566  0.0176 -0.4223 -0.0642
  935TIP3    H124220   4.726   3.725   0.639 -0.9404  0.6321  0.2219
  935TIP3    H224221   4.687   3.786   0.506 -0.6776  2.9775  1.1668
  936TIP3   OH224222   6.551   4.183  11.659  0.4553  0.0404 -0.0869
  936TIP3    H124223   6.566   4.266  11.614 -0.1434  0.9070  1.2608
  936TIP3    H224224   6.636   4.139  11.657  0.8591  0.8217 -0.5230
  937TIP3   OH224225   4.044   1.487  11.374  0.8519  0.1143  0.4027
  937TIP3    H124226   4.083   1.556  11.427 -0.2963  0.8750  0.2931
  937TIP3    H224227   4.100   1.481  11.296 -0.1572  2.3885 -0.5765
  938TIP3   OH224228   5.879   0.172  13.510 -0.1156 -0.3432 -0.1002
  938TIP3    H124229   5.864   0.142  13.600 -0.6278  0.5072  0.1078
  938TIP3    H224230   5.802   0.144  13.462  0.4990 -1.4687 -0.4634
  939TIP3   OH224231   5.868   4.870  16.521 -0.5259  0.0877 -0.1472
  939TIP3    H124232   5.915   4.786  16.527  0.7474  0.8139  0.3427
  939TIP3    H224233   5.786   4.855  16.568  0.7829 -0.1647  2.1840
  940TIP3   OH224234   0.111   5.526   0.406  0.6198  0.1528 -0.0344
  940TIP3    H124235   0.126   5.472   0.328  0.7872  0.8458 -0.4948
  940TIP3    H224236   0.166   5.486   0.473  1.2235  0.1158 -0.5384
  941TIP3   OH224237   1.276   3.439  13.001 -0.1628 -0.2601  0.1427
  941TIP3    H124238   1.341   3.372  12.979  1.2631  1.2187 -0.3522
  941TIP3    H224239   1.304   3.473  13.086 -0.0385  0.6419 -0.2438
  942TIP3   OH224240   1.145   6.544   5.529 -0.1409  0.6054 -0.5698
  942TIP3    H124241   1.071   6.598   5.502  0.2774  1.9155  0.7650
  942TIP3    H224242   1.189   6.521   5.447 -1.5096  0.5147 -1.3162
  943TIP3   OH224243   0.057   1.601   6.256 -0.4549 -0.1891 -0.0102
  943TIP3    H124244  -0.008   1.539   6.290  1.4192 -1.7909  0.8500
  943TIP3    H224245   0.055   1.674   6.317 -1.8173  0.0567 -0.3195
  944TIP3   OH224246   0.331   3.030  17.168 -0.3620  0.1961 -0.1736
  944TIP3    H124247   0.304   3.108  17.120  1.0665  0.6353 -0.2802
  944TIP3    H224248   0.248   2.984  17.186 -1.0196  0.5056 -2.1897
  945TIP3   OH224249   2.204   0.526   0.859  0.0985  0.4556 -0.3619
  945TIP3    H124250   2.251   0.562   0.784 -0.4164 -0.8654 -1.3763
  945TIP3    H224251   2.113   0.518   0.828  0.1871 -1.6559 -0.2356
  946TIP3   OH224252   5.316   5.501  14.745 -0.1619 -0.4993 -0.2745
  946TIP3    H124253   5.373   5.568  14.708 -0.8087 -0.4399 -1.1673
  946TIP3    H224254   5.232   5.514  14.703 -0.6422 -1.0719  0.4798
  947TIP3   OH224255   5.792   3.308   4.650  1.0637  0.0211  0.1148
  947TIP3    H124256   5.743   3.253   4.711  0.1189 -1.4345 -1.8455
  947TIP3    H224257   5.803   3.253   4.572  2.9012  1.5151 -0.7630
  948TIP3   OH224258   5.734   0.132   3.098 -0.4012  0.4028 -0.3460
  948TIP3    H124259   5.726   0.104   3.007  0.4693 -1.4456  0.1024
  948TIP3    H224260   5.827   0.121   3.119 -1.0237 -2.1355  1.5878
  949TIP3   OH224261   4.393   2.325   1.997  0.2578  0.5727 -0.2978
  949TIP3    H124262   4.442   2.245   1.976 -0.7729  0.1223 -1.1292
  949TIP3    H224263   4.316   2.294   2.044 -0.6190  0.9517 -1.4212
  950TIP3   OH224264   3.981   1.239   4.234 -0.2860 -0.3101 -0.0015
  950TIP3    H124265   3.904   1.256   4.288  1.2014  3.1497  1.2834
  950TIP3    H224266   4.049   1.214   4.296  0.4422 -0.1560 -0.7180
  951TIP3   OH224267   5.898   5.134  17.158 -0.3160 -0.9528  0.4336
  951TIP3    H124268   5.816   5.085  17.171 -1.0731  0.4183  1.0010
  951TIP3    H224269   5.961   5.067  17.133 -2.0167 -1.8608 -1.8533
  952TIP3   OH224270   3.977   0.751  15.023 -0.9333 -0.2503  0.1727
  952TIP3    H124271   3.926   0.684  15.068 -3.6519  1.0098 -0.8397
  952TIP3    H224272   3.974   0.725  14.931 -0.3207  0.2278  0.0123
  953TIP3   OH224273   2.561   6.761   5.248 -0.2793 -0.2237  0.1494
  953TIP3    H124274   2.512   6.774   5.167 -0.5239 -1.0696  0.1491
  953TIP3    H224275   2.590   6.848   5.273  0.3403 -0.0189 -1.1902
  954TIP3   OH224276   1.111   4.704  10.416 -0.2773 -0.9773 -0.5093
  954TIP3    H124277   1.180   4.754  10.372 -0.1787 -0.6899 -0.0417
  954TIP3    H224278   1.155   4.663  10.491 -0.5270 -1.1186 -0.4375
  955TIP3   OH224279   4.874   5.671  14.077 -0.2320  0.0014  0.4011
  955TIP3    H124280   4.836   5.658  13.991 -0.0985 -0.1805  0.3703
  955TIP3    H224281   4.882   5.766  14.085  0.5887 -0.0166 -0.1488
  956TIP3   OH224282   4.371   3.633   5.487  0.1238 -0.0815 -0.5376
  956TIP3    H124283   4.463   3.644   5.509 -0.4664  2.0857  1.1658
  956TIP3    H224284   4.341   3.562   5.545  0.1118  1.1698  1.0650
  957TIP3   OH224285   2.425   1.279   1.122  0.2328  0.1603  0.2267
  957TIP3    H124286   2.390   1.329   1.196 -2.5388 -0.1683 -0.7500
  957TIP3    H224287   2.465   1.202   1.162 -1.4700 -0.1615  1.3901
  958TIP3   OH224288   5.203   3.639   5.708  0.0251 -0.5754 -0.1692
  958TIP3    H124289   5.148   3.562   5.697 -2.4042  0.8548  1.0446
  958TIP3    H224290   5.224   3.641   5.801 -0.5010  0.5337 -0.0550
  959TIP3   OH224291   6.321   1.084   5.827  0.2214  0.2940 -0.0766
  959TIP3    H124292   6.410   1.052   5.843 -0.1901 -0.8930 -0.0996
  959TIP3    H224293   6.318   1.168   5.872  1.4825  0.5486 -0.4203
  960TIP3   OH224294   5.298   2.219   1.238  0.4805 -0.3727  0.0388
  960TIP3    H124295   5.267   2.246   1.152  0.5288  1.5228  0.5740
  960TIP3    H224296   5.349   2.293   1.270  0.4856 -1.0371  1.7036
  961TIP3   OH224297   3.641   6.141  13.610  0.0704  0.3756  0.9970
  961TIP3    H124298   3.614   6.051  13.628  1.3662 -0.0668  0.7766
  961TIP3    H224299   3.558   6.189  13.602 -0.7174 -1.1342 -0.6649
  962TIP3   OH224300   0.168   0.050  15.830 -0.3055  0.6622 -0.1737
  962TIP3    H124301   0.143  -0.041  15.849  1.0437  0.5637  1.3852
  962TIP3    H224302   0.096   0.084  15.777 -2.1734 -0.5258  1.4499
  963TIP3   OH224303   1.643   0.300   5.787 -0.4193  0.0886  0.1047
  963TIP3    H124304   1.736   0.319   5.801 -0.5030 -0.3852  1.5125
  963TIP3    H224305   1.642   0.235   5.717  0.1492  1.7156 -1.4790
  964TIP3   OH224306   6.063   0.922   1.008  0.3592 -0.0563 -0.0317
  964TIP3    H124307   5.974   0.903   1.037 -0.4201 -0.0395 -2.2423
  964TIP3    H224308   6.066   0.892   0.917  2.3270  0.8020 -0.3021
  965TIP3   OH224309   0.480   6.732   2.199 -0.2538 -0.2468  0.2179
  965TIP3    H124310   0.468   6.639   2.220 -0.6148  0.1584  1.9971
  965TIP3    H224311   0.563   6.736   2.152  1.0472 -1.2170  2.2818
  966TIP3   OH224312   0.681   3.169   5.475 -0.0029 -0.2973  0.1507
  966TIP3    H124313   0.746   3.210   5.532 -0.3010  0.9969 -0.3931
  966TIP3    H224314   0.667   3.082   5.512  2.4160 -0.8149 -0.0290
  967TIP3   OH224315   5.050   5.240   1.782 -0.6792  0.4743  0.3225
  967TIP3    H124316   5.140   5.267   1.765 -0.5796 -0.4956 -0.7969
  967TIP3    H224317   4.996   5.299   1.730 -0.5549 -0.3540 -0.7695
  968TIP3   OH224318   3.187   2.296   1.450 -0.2996  0.2583 -0.2423
  968TIP3    H124319   3.279   2.286   1.427  0.1340  1.2396  0.9188
  968TIP3    H224320   3.148   2.210   1.435  0.9668 -0.3690 -0.0660
  969TIP3   OH224321   4.739   5.289   4.950  0.4438  0.7553  0.5272
  969TIP3    H124322   4.797   5.220   4.983  0.7817 -0.5340 -2.4007
  969TIP3    H224323   4.657   5.278   4.998  1.3141 -0.0366  1.8786
  970TIP3   OH224324   1.418   1.892  12.952  0.1473 -0.2270 -0.3138
  970TIP3    H124325   1.492   1.939  12.915  0.1095  2.7794  2.9331
  970TIP3    H224326   1.457   1.831  13.015 -0.0569 -0.1254 -0.0874
  971TIP3   OH224327   4.249   0.184   3.797 -0.0990 -0.2071 -0.3979
  971TIP3    H124328   4.261   0.266   3.846  0.1389 -0.3465 -0.2233
  971TIP3    H224329   4.154   0.178   3.784 -0.1922 -0.2943  0.2692
  972TIP3   OH224330   2.646   1.814  13.705 -0.0623  0.7536 -0.2839
  972TIP3    H124331   2.553   1.801  13.684 -0.0010 -0.1520 -0.0402
  972TIP3    H224332   2.685   1.847  13.624 -0.2542 -0.5854 -0.9494
  973TIP3   OH224333   5.055   3.288  12.453  0.1307  0.8936 -0.0506
  973TIP3    H124334   5.144   3.322  12.441 -0.2671  1.8837 -0.2897
  973TIP3    H224335   5.019   3.341  12.524  0.1162 -0.3044  0.8875
  974TIP3   OH224336   4.942   0.819   1.308 -0.4345  0.6623  0.5075
  974TIP3    H124337   4.932   0.911   1.286  0.8165  0.6380 -0.3006
  974TIP3    H224338   4.959   0.817   1.402 -2.6399  1.0435  0.9751
  975TIP3   OH224339   3.219   2.877  12.287 -0.1525 -0.3362  0.1149
  975TIP3    H124340   3.139   2.830  12.262 -0.2817  1.4169 -3.3478
  975TIP3    H224341   3.282   2.857  12.218  2.2486 -1.0059  2.3333
  976TIP3   OH224342   3.675   5.586   2.866 -0.0384  0.1312 -0.2126
  976TIP3    H124343   3.674   5.676   2.832  1.1712  0.5680  0.7897
  976TIP3    H224344   3.604   5.583   2.929 -0.2861  0.2911 -0.4842
  977TIP3   OH224345   4.948   6.663  13.934 -0.7109  0.4128 -0.1684
  977TIP3    H124346   4.930   6.741  13.881  2.0256  1.4823  0.2896
  977TIP3    H224347   4.944   6.590  13.873  0.2168  1.3586 -1.4017
  978TIP3   OH224348   5.595   4.567  15.789  0.1630 -0.4141  0.1187
  978TIP3    H124349   5.507   4.576  15.752 -0.3442  0.1061  1.3966
  978TIP3    H224350   5.613   4.652  15.830  0.1931 -1.3295  2.1107
  979TIP3   OH224351   2.265   3.659  13.969 -0.2848  0.3093 -0.7019
  979TIP3    H124352   2.175   3.627  13.963  0.2475 -1.2101 -0.9586
  979TIP3    H224353   2.256   3.753  13.985 -1.9992 -0.3427  3.4355
  980TIP3   OH224354   1.842   6.588  12.467 -0.1130 -0.5130  0.2668
  980TIP3    H124355   1.764   6.591  12.523  0.6856 -1.1646  1.4546
  980TIP3    H224356   1.895   6.517  12.504  0.5251 -0.8454 -1.2249
  981TIP3   OH224357   2.710   1.335  16.809  0.0604 -0.4392  0.9053
  981TIP3    H124358   2.779   1.305  16.750 -0.4118 -2.0559  1.1071
  981TIP3    H224359   2.634   1.283  16.784 -0.6721  0.2306  1.6860
  982TIP3   OH224360   4.856   1.159  15.832  0.0316 -0.0922 -0.1625
  982TIP3    H124361   4.845   1.209  15.913  1.0816 -0.5310  0.2657
  982TIP3    H224362   4.805   1.207  15.767 -3.0417 -1.0940  1.2712
  983TIP3   OH224363   4.074   5.247   0.790 -0.2247 -0.4442  0.2000
  983TIP3    H124364   4.133   5.260   0.716  0.9018 -0.5819  1.0394
  983TIP3    H224365   4.126   5.272   0.867 -1.5569  0.2946  0.9105
  984TIP3   OH224366   1.075   0.812   0.117 -0.0900 -0.0092 -0.1388
  984TIP3    H124367   1.108   0.893   0.157  3.2745 -0.6631 -1.3292
  984TIP3    H224368   1.065   0.752   0.190  0.2015  0.5999  0.4141
  985TIP3   OH224369   5.972   4.919  14.325  0.0054 -0.2446  0.6360
  985TIP3    H124370   6.031   4.869  14.269 -1.6576  0.3236 -1.7869
  985TIP3    H224371   6.003   5.010  14.319 -1.5192  0.2154 -1.4000
  986TIP3   OH224372   4.560   2.667   0.507 -0.3435  0.2659 -0.3238
  986TIP3    H124373   4.549   2.676   0.412  0.8202  0.0453 -0.4976
  986TIP3    H224374   4.486   2.714   0.545 -0.3290  1.1232 -1.3332
  987TIP3   OH224375   3.045   6.622   0.405  0.0515  0.2704 -0.1532
  987TIP3    H124376   3.054   6.635   0.310 -1.0262 -1.1819 -0.4905
  987TIP3    H224377   3.041   6.710   0.441  0.4862  0.8521 -1.4605
  988TIP3   OH224378   6.653   0.486   5.242 -0.0783 -0.3357  0.5253
  988TIP3    H124379   6.598   0.412   5.266 -0.9385  0.4018  0.9046
  988TIP3    H224380   6.687   0.519   5.325 -0.5657  0.3335  0.4725
  989TIP3   OH224381   3.611   5.955  13.925 -0.6511 -0.1517  0.6810
  989TIP3    H124382   3.614   5.866  13.960  0.1238 -0.8198 -0.9473
  989TIP3    H224383   3.678   6.003  13.975 -1.5241 -0.2858  2.0085
  990TIP3   OH224384   2.477   0.644  16.373  0.1327  0.0098  0.1069
  990TIP3    H124385   2.500   0.572  16.433  2.0252  0.2912 -0.2019
  990TIP3    H224386   2.382   0.648  16.376  0.0296 -1.8074  0.9570
  991TIP3   OH224387   0.572   6.676  12.975  0.0838 -0.5830  0.6048
  991TIP3    H124388   0.626   6.744  12.935  1.6001 -1.4177  1.1737
  991TIP3    H224389   0.482   6.702  12.953  0.7693 -0.5368 -2.6362
  992TIP3   OH224390   4.199   3.825   3.436 -0.7405 -0.3949 -0.1131
  992TIP3    H124391   4.123   3.825   3.377 -0.5227 -1.2206 -0.4057
  992TIP3    H224392   4.235   3.736   3.429  0.6705  0.1779 -0.5197
  993TIP3   OH224393   4.004   4.334   3.749 -0.0433  0.0985  0.1859
  993TIP3    H124394   3.979   4.288   3.829  1.1556  0.1438  0.5983
  993TIP3    H224395   4.025   4.423   3.778  1.0478 -0.0648 -0.0529
  994TIP3   OH224396   4.371   1.306  14.057 -0.1155 -0.4025  0.3385
  994TIP3    H124397   4.466   1.316  14.067 -0.2016  2.2520 -0.5375
  994TIP3    H224398   4.334   1.367  14.122 -1.2155 -1.1926  0.4764
  995TIP3   OH224399   2.911   4.411   2.387 -0.1030 -0.0697  0.0813
  995TIP3    H124400   2.962   4.432   2.465 -2.5428  1.3500  1.4423
  995TIP3    H224401   2.899   4.316   2.390 -2.5455  0.1858  3.1849
  996TIP3   OH224402   4.153   6.400  10.825 -0.2074 -0.3375  0.2867
  996TIP3    H124403   4.095   6.459  10.775 -0.3888 -0.8626 -0.1299
  996TIP3    H224404   4.177   6.332  10.763  0.6712 -0.2625  0.5292
  997TIP3   OH224405   4.359   2.400   1.493 -0.5983  0.0747 -0.4811
  997TIP3    H124406   4.400   2.375   1.576 -1.8905 -0.4645  0.0262
  997TIP3    H224407   4.285   2.455   1.519 -0.5220  0.5966 -1.3319
  998TIP3   OH224408   2.052   4.604  15.584  0.3521 -0.5975 -0.6456
  998TIP3    H124409   2.083   4.685  15.625 -1.1258  0.3242 -1.3010
  998TIP3    H224410   1.980   4.575  15.639  1.4687 -2.0277  0.1316
  999TIP3   OH224411   3.157   2.191   0.105 -0.2378  0.0364 -0.0474
  999TIP3    H124412   3.133   2.272   0.151 -2.4045  0.7551 -2.2171
  999TIP3    H224413   3.082   2.132   0.121 -0.1678 -0.3571 -1.1300
 1000TIP3   OH224414   0.314   5.950  14.531  0.2972  0.1687  0.2465
 1000TIP3    H124415   0.384   5.961  14.595  1.6040 -2.5361 -0.5597
 1000TIP3    H224416   0.359   5.927  14.450 -1.4438  0.6651 -0.9135
 1001TIP3   OH224417   5.056   2.898  12.570  0.3851 -0.1006  0.7715
 1001TIP3    H124418   4.977   2.929  12.614  0.0557  1.2731 -0.6877
 1001TIP3    H224419   5.024   2.839  12.502  0.7550 -0.7457  1.1408
 1002TIP3   OH224420   2.739   4.986  17.121 -0.5956  0.5533  0.3417
 1002TIP3    H124421   2.694   5.026  17.196 -0.7338  3.0731 -0.9997
 1002TIP3    H224422   2.686   4.910  17.100 -1.6645  0.9094  1.5898
 1003TIP3   OH224423   5.988   1.405   6.097 -0.0965 -0.3620 -0.0877
 1003TIP3    H124424   6.072   1.393   6.142  0.4149  0.1927 -0.8857
 1003TIP3    H224425   6.010   1.453   6.018 -1.3160  0.6989  0.1955
 1004TIP3   OH224426   4.335   4.709  14.497  0.1249 -0.2538 -0.4637
 1004TIP3    H124427   4.379   4.793  14.511  1.0533 -0.9577  0.9889
 1004TIP3    H224428   4.301   4.715  14.407 -1.9629  2.6031  0.3662
 1005TIP3   OH224429   4.262   4.217   1.736 -0.3064 -0.4376 -0.1569
 1005TIP3    H124430   4.202   4.229   1.810  0.0844  0.7181 -0.0014
 1005TIP3    H224431   4.242   4.290   1.677  0.5386 -0.3784 -0.3859
 1006TIP3   OH224432   4.840   5.659  16.041  0.4373 -0.2927  0.5730
 1006TIP3    H124433   4.798   5.664  15.955  0.7406 -1.7017  0.3220
 1006TIP3    H224434   4.793   5.589  16.086  1.8265 -1.1978  0.6685
 1007TIP3   OH224435   1.836   2.721   4.963  0.8786 -0.3718  0.6629
 1007TIP3    H124436   1.789   2.734   4.880  1.0538 -0.1539  0.5946
 1007TIP3    H224437   1.919   2.767   4.950  0.8095 -0.1375  1.0483
 1008TIP3   OH224438   5.813   6.408   5.147 -0.0656 -0.0150 -0.4546
 1008TIP3    H124439   5.884   6.471   5.151 -0.3104  0.3346 -1.2710
 1008TIP3    H224440   5.759   6.437   5.073 -0.9086 -0.4205 -0.0164
 1009TIP3   OH224441   3.505   3.184  11.895 -0.0091  0.2248  0.0896
 1009TIP3    H124442   3.411   3.178  11.914  0.0673 -0.8535  0.1695
 1009TIP3    H224443   3.509   3.229  11.811 -0.7752 -2.0557 -1.2777
 1010TIP3   OH224444   2.319   2.570  17.159 -0.1550 -0.1735 -0.0275
 1010TIP3    H124445   2.369   2.642  17.196 -1.7575  1.6673 -1.1851
 1010TIP3    H224446   2.235   2.572  17.206 -0.5862 -0.6137 -0.7464
 1011TIP3   OH224447   0.969   2.580  13.854  0.2160  0.2683  0.3709
 1011TIP3    H124448   0.977   2.525  13.776  0.2675 -0.2013  0.6999
 1011TIP3    H224449   1.008   2.528  13.924  1.3602  1.2138  0.4728
 1012TIP3   OH224450   0.904   1.701  14.061  0.0024  0.3499  0.2729
 1012TIP3    H124451   0.899   1.629  13.998  1.5843 -0.8981  1.4897
 1012TIP3    H224452   0.868   1.664  14.141  0.3235  1.0932  0.7658
 1013TIP3   OH224453   1.839   0.637  15.414 -0.1944 -0.5725  0.3886
 1013TIP3    H124454   1.805   0.717  15.374  1.4163  0.0898  0.2276
 1013TIP3    H224455   1.804   0.566  15.361  0.4021  0.1876 -1.0957
 1014TIP3   OH224456   6.538   1.207  11.692  0.2469 -0.6929  0.3880
 1014TIP3    H124457   6.475   1.265  11.649  0.3971 -0.5328  0.3854
 1014TIP3    H224458   6.621   1.253  11.686  0.3666 -0.9082  0.3869
 1015TIP3   OH224459   3.774   0.116  12.948 -0.1070  0.4558  0.4569
 1015TIP3    H124460   3.799   0.040  13.001  0.2180  0.7845  0.7774
 1015TIP3    H224461   3.857   0.152  12.916  0.0323  2.4668  2.7697
 1016TIP3   OH224462   0.718   3.733  14.058 -0.2600  0.0817  0.4157
 1016TIP3    H124463   0.697   3.660  13.999 -1.1573  1.0652 -0.5146
 1016TIP3    H224464   0.668   3.807  14.024 -1.5026  0.4959  2.9300
 1017TIP3   OH224465   5.364   5.199  15.320  0.5173 -0.3075 -0.2136
 1017TIP3    H124466   5.336   5.289  15.340 -1.6138 -1.1182  0.7196
 1017TIP3    H224467   5.436   5.183  15.382  0.9028  0.7256 -0.3666
 1018TIP3   OH224468   4.661   3.857  11.863 -0.5983  0.1645  0.0746
 1018TIP3    H124469   4.658   3.830  11.771 -4.0307 -1.4558  0.5243
 1018TIP3    H224470   4.596   3.927  11.870 -1.6668 -0.9183  1.5383
 1019TIP3   OH224471   1.161   1.260  16.721 -0.2364 -0.0013 -0.4599
 1019TIP3    H124472   1.198   1.177  16.751  0.8345  0.6322 -0.0035
 1019TIP3    H224473   1.074   1.262  16.760  0.9604  0.6270  2.3627
 1020TIP3   OH224474   0.862   0.944  15.375 -0.1073  0.1290  0.5118
 1020TIP3    H124475   0.836   1.021  15.427 -0.9467  1.1911 -1.3709
 1020TIP3    H224476   0.956   0.958  15.359 -0.0861  0.3595  0.8095
 1021TIP3   OH224477   5.896   4.611   4.230  0.0752  0.4388 -0.4898
 1021TIP3    H124478   5.818   4.624   4.176 -1.5744 -1.3945  1.2729
 1021TIP3    H224479   5.916   4.698   4.265 -0.5158  1.1301 -1.8099
 1022TIP3   OH224480   0.634   2.010   2.114 -0.0360 -0.5971 -0.8587
 1022TIP3    H124481   0.666   1.945   2.176  0.1301 -0.3759 -0.7140
 1022TIP3    H224482   0.712   2.042   2.068 -0.3528 -2.4585 -2.8699
 1023TIP3   OH224483   0.031   6.235   1.306  0.7924 -0.6479  0.1638
 1023TIP3    H124484   0.114   6.198   1.337  1.7703 -0.0208 -1.5189
 1023TIP3    H224485  -0.001   6.171   1.242  1.6934  0.5690 -1.5945
 1024TIP3   OH224486   0.043   5.475   4.451 -0.7289  1.2869 -0.1478
 1024TIP3    H124487   0.103   5.401   4.458  0.3758  2.1217 -0.5685
 1024TIP3    H224488   0.042   5.512   4.539 -0.4016  1.4365 -0.2048
 1025TIP3   OH224489   3.801   4.131   2.842  0.1064 -0.6888  0.5741
 1025TIP3    H124490   3.849   4.178   2.910  0.2026  2.3485 -1.3808
 1025TIP3    H224491   3.716   4.174   2.837  0.2319 -0.5545 -1.4116
 1026TIP3   OH224492   0.303   0.901  14.575 -0.0749 -0.2811 -0.8096
 1026TIP3    H124493   0.338   0.973  14.628 -2.8837  0.4235  0.2598
 1026TIP3    H224494   0.327   0.822  14.624  0.4013  0.1261 -0.3715
 1027TIP3   OH224495   3.429   1.596  11.837 -0.0562  0.7625  0.1856
 1027TIP3    H124496   3.405   1.535  11.766 -2.2519  1.9029 -0.1337
 1027TIP3    H224497   3.420   1.683  11.798  0.0059  1.3855  1.5087
 1028TIP3   OH224498   1.009   0.749   4.370  0.0617  0.0563  0.4914
 1028TIP3    H124499   1.047   0.669   4.405  0.2624  0.3830  1.0215
 1028TIP3    H224500   1.055   0.763   4.287  1.6867  0.8756  1.4868
 1029TIP3   OH224501   6.157   3.257   4.185 -0.0324  0.2522  0.0896
 1029TIP3    H124502   6.200   3.178   4.217  1.4454  0.9696 -0.0630
 1029TIP3    H224503   6.176   3.324   4.251 -0.2921  0.7718 -0.3473
 1030TIP3   OH224504   5.403   3.055   3.803 -0.5501  0.1100  0.2254
 1030TIP3    H124505   5.386   2.972   3.759  0.2565 -0.3384  0.7433
 1030TIP3    H224506   5.445   3.109   3.736  2.2303 -1.1357  0.8200
 1031TIP3   OH224507   0.628   3.797   1.381 -0.0463  0.6256  0.5915
 1031TIP3    H124508   0.593   3.740   1.449 -0.1160  1.0293  0.8960
 1031TIP3    H224509   0.611   3.885   1.412  0.3466  0.8170  0.2705
 1032TIP3   OH224510   3.305   5.459  10.666  0.6016  0.5159 -0.0503
 1032TIP3    H124511   3.289   5.365  10.665 -0.5216  0.6926  0.0813
 1032TIP3    H224512   3.395   5.469  10.634  0.3231 -0.5246 -1.2021
 1033TIP3   OH224513   5.315   5.509  15.325 -0.2298 -0.8769 -0.0456
 1033TIP3    H124514   5.406   5.536  15.312 -0.3166 -0.9948 -1.0056
 1033TIP3    H224515   5.291   5.543  15.411  0.4752 -0.1614 -0.1226
 1034TIP3   OH224516   4.845   1.042  10.981  0.0312 -0.0527 -0.5881
 1034TIP3    H124517   4.777   1.110  10.985 -1.1947 -1.2678 -0.1268
 1034TIP3    H224518   4.841   0.998  11.066  0.5487 -0.9382 -1.0054
 1035TIP3   OH224519   1.758   3.728   5.300 -0.9128  0.0041  0.3265
 1035TIP3    H124520   1.772   3.667   5.228 -3.2687 -1.7007  1.2044
 1035TIP3    H224521   1.778   3.678   5.379  2.1600  1.9905  0.9942
 1036TIP3   OH224522   5.561   5.436  12.070  0.1703 -0.0245 -0.0467
 1036TIP3    H124523   5.499   5.363  12.076 -0.3298  0.2439 -1.4753
 1036TIP3    H224524   5.614   5.416  11.994  0.8843  0.4740  0.3111
 1037TIP3   OH224525   6.793   4.699  10.700  0.5395 -0.6770 -0.0793
 1037TIP3    H124526   6.816   4.625  10.644 -1.5871 -0.9752 -0.6625
 1037TIP3    H224527   6.774   4.771  10.639 -0.0804 -0.4843  0.3256
 1038TIP3   OH224528   6.674   4.569   1.569  0.2966 -0.3825  0.4096
 1038TIP3    H124529   6.639   4.509   1.503 -1.7014  1.4457 -0.2708
 1038TIP3    H224530   6.598   4.601   1.616  1.5493 -0.3715  2.5868
 1039TIP3   OH224531   3.284   5.409  15.482 -0.0624 -0.1622  0.5632
 1039TIP3    H124532   3.329   5.439  15.561  0.2897 -1.3236  0.8247
 1039TIP3    H224533   3.194   5.393  15.509  0.1512 -0.9370  0.8410
 1040TIP3   OH224534   0.517   5.055  10.418 -0.0879 -0.2166  0.0949
 1040TIP3    H124535   0.556   4.975  10.453  0.9158  0.4181  0.4617
 1040TIP3    H224536   0.459   5.025  10.348 -1.7503 -1.4766  1.9247
 1041TIP3   OH224537   5.221   5.970  10.166  0.5110 -0.1369 -0.1075
 1041TIP3    H124538   5.217   5.996  10.258  2.9616  2.3934 -0.5907
 1041TIP3    H224539   5.303   5.922  10.158 -0.7236 -2.2926 -0.6231
 1042TIP3   OH224540   1.173   3.380   6.332 -0.1051  0.3036  0.2498
 1042TIP3    H124541   1.089   3.417   6.357  0.4071  0.5033  1.7847
 1042TIP3    H224542   1.152   3.295   6.294 -1.1089  1.1212 -1.0770
 1043TIP3   OH224543   3.015   4.267  12.737  0.5320  0.8356 -0.0520
 1043TIP3    H124544   3.088   4.205  12.734  0.1080  0.3440 -0.4558
 1043TIP3    H224545   3.052   4.349  12.704  0.8774  0.5645 -0.3456
 1044TIP3   OH224546   4.848   6.392  11.285 -0.0882 -0.5372 -0.1641
 1044TIP3    H124547   4.796   6.470  11.303  0.4180 -0.2570  0.1085
 1044TIP3    H224548   4.786   6.330  11.247 -0.8932 -0.6830  1.3488
 1045TIP3   OH224549   5.796   2.092   4.839  0.4579  0.0541  0.1411
 1045TIP3    H124550   5.867   2.046   4.795  1.0069 -0.0109  1.0689
 1045TIP3    H224551   5.786   2.047   4.923 -1.1295 -0.3575 -0.2295
 1046TIP3   OH224552   0.107   5.608   2.048 -0.7342 -0.7675  0.2195
 1046TIP3    H124553   0.133   5.585   2.137  1.5550  0.4193 -0.0529
 1046TIP3    H224554   0.051   5.685   2.058 -1.5073 -1.3803  0.6808
 1047TIP3   OH224555   0.758   0.459   5.484 -0.0448  0.3217 -0.2556
 1047TIP3    H124556   0.726   0.517   5.553 -0.4312 -1.0909  0.8243
 1047TIP3    H224557   0.853   0.463   5.492 -0.0858  0.0707  0.4861
 1048TIP3   OH224558   3.696   5.005  14.048 -0.4356 -0.4845  0.3182
 1048TIP3    H124559   3.748   5.086  14.048 -0.3210 -0.5409  1.4441
 1048TIP3    H224560   3.609   5.032  14.019 -0.3242 -0.0049  0.4234
 1049TIP3   OH224561   3.297   0.030  15.048 -0.4560 -0.4709  0.3648
 1049TIP3    H124562   3.325   0.047  14.958 -0.2275 -0.5828  0.4128
 1049TIP3    H224563   3.290  -0.066  15.053  0.4450 -0.5242  0.7310
 1050TIP3   OH224564   3.935   1.001   4.067  0.1699  0.1678  0.0012
 1050TIP3    H124565   3.937   1.053   4.148 -1.4251 -0.0370  0.2130
 1050TIP3    H224566   4.024   1.004   4.034  1.1375 -0.5846  2.3168
 1051TIP3   OH224567   2.192   2.461   4.391  0.1351 -0.3579  0.0345
 1051TIP3    H124568   2.163   2.526   4.456 -0.1603  0.2815 -0.7286
 1051TIP3    H224569   2.162   2.378   4.427 -0.0296 -0.0152  0.7199
 1052TIP3   OH224570   5.550   6.228  15.960 -0.1137 -0.3468  0.4596
 1052TIP3    H124571   5.522   6.137  15.977  1.2290 -0.8674  0.0142
 1052TIP3    H224572   5.544   6.237  15.865 -1.8630  0.6090  0.6279
 1053TIP3   OH224573   6.074   1.444   3.942 -0.8801  0.0707 -0.5129
 1053TIP3    H124574   6.123   1.377   3.990 -1.3644 -0.2040 -0.3815
 1053TIP3    H224575   6.084   1.523   3.994  0.5199  0.3618 -1.1850
 1054TIP3   OH224576   2.905   2.574  13.392 -0.1795 -0.1749  0.2703
 1054TIP3    H124577   2.982   2.623  13.361 -1.7662  1.9076 -0.5927
 1054TIP3    H224578   2.876   2.524  13.315 -1.5459  1.5929 -0.4260
 1055TIP3   OH224579   4.032   2.671  12.397 -0.1029 -0.8060  0.6197
 1055TIP3    H124580   4.051   2.713  12.481  0.0963 -0.9989  0.6714
 1055TIP3    H224581   4.052   2.738  12.332 -0.3395 -0.6257  0.7277
 1056TIP3   OH224582   6.350   1.650  13.573 -0.2150 -0.0605 -0.2026
 1056TIP3    H124583   6.374   1.640  13.481 -1.8104 -0.7968 -0.5652
 1056TIP3    H224584   6.429   1.686  13.614  1.5786 -2.4255 -1.2914
 1057TIP3   OH224585   3.924   2.649  12.110 -0.0034  0.0722 -0.2110
 1057TIP3    H124586   3.981   2.711  12.064 -1.5201  2.3827  0.8322
 1057TIP3    H224587   3.872   2.608  12.041  0.6215  0.4071 -0.8949
 1058TIP3   OH224588   4.903   4.266   4.550  0.1292  0.0990  0.2434
 1058TIP3    H124589   4.906   4.239   4.458 -0.1641 -0.1768  0.3157
 1058TIP3    H224590   4.843   4.204   4.592 -1.2515  1.3800  0.2416
 1059TIP3   OH224591   5.875   2.431   0.821  0.3457 -0.1189  0.1666
 1059TIP3    H124592   5.869   2.526   0.830 -1.1844 -0.1473 -0.3312
 1059TIP3    H224593   5.843   2.413   0.732  0.1706 -1.1273  0.4231
 1060TIP3   OH224594   3.273   3.838   5.410  0.2631  0.4292  0.5969
 1060TIP3    H124595   3.199   3.800   5.364  1.7072 -2.3880  0.3793
 1060TIP3    H224596   3.259   3.816   5.502 -0.4272  2.2346  0.9715
 1061TIP3   OH224597   5.705   4.755   3.455 -0.1209 -0.5468  0.8940
 1061TIP3    H124598   5.721   4.807   3.376  0.5987  0.4924  1.7022
 1061TIP3    H224599   5.770   4.685   3.451 -0.8053 -1.1657  0.0275
 1062TIP3   OH224600   2.497   6.564  15.247 -0.3629 -0.6260  0.4668
 1062TIP3    H124601   2.492   6.659  15.254  0.1197 -0.4901 -0.7494
 1062TIP3    H224602   2.486   6.532  15.336  2.4032  0.7145  1.3852
 1063TIP3   OH224603   4.538   0.754  15.284 -0.2608  0.2427  0.1211
 1063TIP3    H124604   4.452   0.750  15.326  0.0846 -1.4007  0.7863
 1063TIP3    H224605   4.563   0.662  15.274  0.5581  0.6310 -1.9119
 1064TIP3   OH224606   2.305   0.196  11.982 -0.6518 -0.3993  0.0826
 1064TIP3    H124607   2.261   0.184  12.066  1.3875 -0.6182  1.1869
 1064TIP3    H224608   2.300   0.290  11.966  0.1800 -0.1405  1.2061
 1065TIP3   OH224609   3.915   0.994   5.644 -0.2427 -0.4241  0.2365
 1065TIP3    H124610   3.914   0.987   5.740 -1.7956 -0.9089  0.2212
 1065TIP3    H224611   3.852   1.064   5.625  2.3339  1.9061 -0.3598
 1066TIP3   OH224612   1.613   2.569  13.600  0.4294 -0.2251  0.0823
 1066TIP3    H124613   1.592   2.476  13.608  1.7427 -0.6186 -0.7499
 1066TIP3    H224614   1.640   2.595  13.688 -1.0794 -0.2929  0.6087
 1067TIP3   OH224615   6.718   0.672   4.505 -0.0926  0.1060 -0.5774
 1067TIP3    H124616   6.704   0.579   4.521  1.4431 -0.0690 -0.1282
 1067TIP3    H224617   6.779   0.700   4.573 -0.1480  1.3272 -0.9991
 1068TIP3   OH224618   2.621   2.242  15.445 -0.1995  0.6820 -0.9150
 1068TIP3    H124619   2.713   2.251  15.420 -0.1645  0.4561 -0.8720
 1068TIP3    H224620   2.624   2.210  15.535 -0.3259  1.7044 -0.5323
 1069TIP3   OH224621   2.770   6.618   5.339 -0.3053  0.2947  0.3316
 1069TIP3    H124622   2.750   6.530   5.373 -0.9327  0.6640  0.9442
 1069TIP3    H224623   2.686   6.651   5.307  0.0746  0.3859 -0.5988
 1070TIP3   OH224624   2.208   1.598   4.134 -0.0682  0.1025  0.3349
 1070TIP3    H124625   2.211   1.512   4.093  0.5898  0.4455 -0.3848
 1070TIP3    H224626   2.115   1.615   4.150 -0.2269 -0.5779  0.1359
 1071TIP3   OH224627   0.709   4.919   4.796 -0.3132 -0.0048  0.3516
 1071TIP3    H124628   0.724   4.856   4.725 -0.0910 -0.5394  0.8678
 1071TIP3    H224629   0.614   4.933   4.796 -0.2200  0.7631 -0.6894
 1072TIP3   OH224630   3.766   1.534   2.382  0.6214  0.1890 -0.2339
 1072TIP3    H124631   3.739   1.444   2.365 -1.4378  0.6335  0.2876
 1072TIP3    H224632   3.725   1.585   2.312  3.1286  0.6038 -1.5123
 1073TIP3   OH224633   2.784   0.726  14.084  0.0353  0.0768 -0.2787
 1073TIP3    H124634   2.792   0.768  13.998  0.5418 -0.5379 -0.5329
 1073TIP3    H224635   2.806   0.796  14.146 -0.0461  0.4450 -0.6569
 1074TIP3   OH224636   3.199   0.167   5.154  0.0076  0.1473  0.0337
 1074TIP3    H124637   3.247   0.219   5.218 -0.1408 -0.4713  0.6490
 1074TIP3    H224638   3.117   0.215   5.141  0.4158  0.7526 -0.3822
 1075TIP3   OH224639   4.251   1.568  16.650 -0.3140  0.4951  0.0478
 1075TIP3    H124640   4.189   1.603  16.586 -0.4395 -0.8649 -0.6195
 1075TIP3    H224641   4.198   1.548  16.727 -0.6728 -0.3725 -0.4092
 1076TIP3   OH224642   0.768   0.641   1.777  1.1287 -0.2991  0.2058
 1076TIP3    H124643   0.849   0.619   1.823  1.1713 -0.0660  0.2419
 1076TIP3    H224644   0.718   0.695   1.838  0.2115 -1.7823  0.8148
 1077TIP3   OH224645   1.405   4.850   4.965 -0.1929  0.0365 -0.1265
 1077TIP3    H124646   1.435   4.921   4.908 -0.6128  0.5514  0.2845
 1077TIP3    H224647   1.314   4.836   4.941 -0.2816  0.0424  0.2078
 1078TIP3   OH224648   2.311   1.536   1.036 -0.5375  0.0468 -0.1497
 1078TIP3    H124649   2.228   1.506   1.075 -0.4755 -0.2532 -0.2437
 1078TIP3    H224650   2.368   1.552   1.111 -0.4433 -0.4574 -0.1077
 1079TIP3   OH224651   5.021   4.753   2.498  0.0822  0.9798 -0.2672
 1079TIP3    H124652   5.069   4.748   2.581  0.2736 -0.1035 -0.4336
 1079TIP3    H224653   5.044   4.840   2.464  2.0502  0.4737 -0.3909
 1080TIP3   OH224654   0.078   0.468  11.915  0.4457  0.8253 -0.1420
 1080TIP3    H124655   0.082   0.545  11.971  0.0759  0.2345  0.7057
 1080TIP3    H224656   0.124   0.400  11.964  0.6975  0.4783 -0.8478
 1081TIP3   OH224657   6.286   5.055  12.646  0.3760 -0.0159 -0.5984
 1081TIP3    H124658   6.294   5.140  12.690  1.4566 -0.4854  0.1505
 1081TIP3    H224659   6.369   5.044  12.600  0.9904 -1.4269  0.7459
 1082TIP3   OH224660   1.265   1.191   1.128 -0.3058 -0.5134  0.0693
 1082TIP3    H124661   1.350   1.162   1.159  0.3689  1.5839  0.3540
 1082TIP3    H224662   1.276   1.203   1.034  0.0334  0.7134  0.2547
 1083TIP3   OH224663   4.113   4.220  14.375 -0.0169 -0.4737 -0.1918
 1083TIP3    H124664   4.116   4.314  14.392 -0.7342 -0.2801 -1.1014
 1083TIP3    H224665   4.059   4.185  14.445 -1.7233  0.1219 -1.1661
 1084TIP3   OH224666   4.284   3.088   4.003 -0.0134 -0.0861 -0.5492
 1084TIP3    H124667   4.282   3.013   4.061  1.1843  1.0330  1.0111
 1084TIP3    H224668   4.194   3.121   4.003  0.4141  1.5379  3.0427
 1085TIP3   OH224669   1.054   1.420   2.439 -0.5344 -0.2088  0.3643
 1085TIP3    H124670   1.102   1.503   2.443 -0.5644 -0.2075  0.8344
 1085TIP3    H224671   0.973   1.438   2.487 -0.6874 -0.4134  0.1802
 1086TIP3   OH224672   0.894   1.743   6.067  0.2506  0.1177 -0.1040
 1086TIP3    H124673   0.911   1.779   5.980  0.3950  0.9417  0.2579
 1086TIP3    H224674   0.958   1.673   6.078  0.5953  0.3842 -0.4323
 1087TIP3   OH224675   1.717   2.046  14.965  0.3667  0.2026 -0.3888
 1087TIP3    H124676   1.771   2.123  14.950 -0.9544  0.6186 -4.1078
 1087TIP3    H224677   1.645   2.077  15.019  0.6219  1.2258 -0.6159
 1088TIP3   OH224678   2.996   3.341  14.300 -0.4156 -0.0301 -0.2791
 1088TIP3    H124679   2.930   3.275  14.277  0.8392 -0.9284 -1.4534
 1088TIP3    H224680   2.946   3.422  14.308 -2.0244 -1.0731  1.3026
 1089TIP3   OH224681   1.892   2.277  14.968  0.3367  0.1354 -0.1240
 1089TIP3    H124682   1.967   2.217  14.976 -0.0604 -0.3221  0.2081
 1089TIP3    H224683   1.924   2.360  15.003  0.9979  0.2259 -0.8966
 1090TIP3   OH224684   0.633   6.254   5.111 -0.2290 -0.0054 -0.5567
 1090TIP3    H124685   0.605   6.208   5.190 -2.3717 -0.3297 -1.4343
 1090TIP3    H224686   0.726   6.274   5.126  0.3626 -3.0961  0.5684
 1091TIP3   OH224687   6.077   3.111  13.650 -0.3719 -0.3412  0.1057
 1091TIP3    H124688   6.164   3.113  13.609 -1.4944 -1.1737 -2.5512
 1091TIP3    H224689   6.090   3.059  13.730  1.7000  0.2309  0.2123
 1092TIP3   OH224690   2.100   3.929   2.704 -0.0612  0.1850 -0.3641
 1092TIP3    H124691   2.039   3.987   2.659 -2.2433 -1.3693  0.4192
 1092TIP3    H224692   2.045   3.860   2.740  1.7052  0.4468  3.3267
 1093TIP3   OH224693   1.616   4.621  12.065  0.2105 -0.6675  0.0128
 1093TIP3    H124694   1.671   4.625  11.987  1.6645  2.0031  1.0477
 1093TIP3    H224695   1.527   4.629  12.032  0.7871  0.3220 -1.3821
 1094TIP3   OH224696   2.412   5.070  15.357 -0.5168 -0.0568 -0.1637
 1094TIP3    H124697   2.444   4.991  15.315  0.3740  1.4293 -2.4689
 1094TIP3    H224698   2.473   5.139  15.330 -2.8188  1.9734 -0.6058
 1095TIP3   OH224699   5.094   1.889  17.108 -0.2414 -0.2215  0.0014
 1095TIP3    H124700   5.146   1.934  17.041 -0.1064 -2.5469 -1.5707
 1095TIP3    H224701   5.085   1.954  17.178  2.4483  1.2221 -0.8199
 1096TIP3   OH224702   0.892   5.922   3.801 -0.0224 -0.1859  0.3104
 1096TIP3    H124703   0.886   5.885   3.889  0.1621 -0.2831  0.2833
 1096TIP3    H224704   0.986   5.931   3.786 -0.0694  0.6915  0.4837
 1097TIP3   OH224705   5.390   4.434  16.349 -0.0589  0.1616  0.6398
 1097TIP3    H124706   5.419   4.520  16.318 -0.7916  0.2493  0.1779
 1097TIP3    H224707   5.305   4.421  16.307  0.9933 -1.7693 -1.1050
 1098TIP3   OH224708   3.961   3.007   2.420  0.6155 -0.0363 -0.5340
 1098TIP3    H124709   3.924   3.003   2.509  0.4259 -0.4449 -0.6335
 1098TIP3    H224710   4.001   2.921   2.407 -0.7077 -0.5350 -1.4373
 1099TIP3   OH224711   5.136   4.320  12.976  0.4159  0.5026  0.2855
 1099TIP3    H124712   5.080   4.389  12.939 -1.4946 -1.6472 -1.1728
 1099TIP3    H224713   5.211   4.315  12.917  1.0111  1.8186  0.8837
 1100TIP3   OH224714   1.440   2.206   5.999  0.6190  0.3987 -0.4739
 1100TIP3    H124715   1.458   2.299   6.014 -1.6351  0.5274  2.2185
 1100TIP3    H224716   1.438   2.167   6.086  1.5368 -2.2584 -1.5166
 1101TIP3   OH224717   3.917   6.437  14.908  0.2265 -0.0518  0.2511
 1101TIP3    H124718   3.943   6.398  14.825 -0.3162 -0.3956  0.2424
 1101TIP3    H224719   3.957   6.382  14.975  2.2297  1.2748  0.2359
 1102TIP3   OH224720   6.746   0.190   0.961 -0.0009 -0.4926 -0.0290
 1102TIP3    H124721   6.728   0.203   1.054  0.8327  1.9128 -0.1301
 1102TIP3    H224722   6.819   0.128   0.959  0.9637  0.5782  1.0158
 1103TIP3   OH224723   2.742   3.911  14.879 -0.6586  0.7875  0.2873
 1103TIP3    H124724   2.735   3.833  14.825 -3.5571  1.7439 -0.8847
 1103TIP3    H224725   2.829   3.947  14.858 -1.5676  1.0651 -3.8002
 1104TIP3   OH224726   5.761   4.882  14.489 -0.7972  0.1622 -0.3850
 1104TIP3    H124727   5.833   4.907  14.432  1.2817  0.1855  2.0621
 1104TIP3    H224728   5.732   4.964  14.528 -2.3529  0.1781 -1.4816
 1105TIP3   OH224729   4.134   0.125   0.548 -0.0076 -0.1434  0.4841
 1105TIP3    H124730   4.115   0.114   0.641  0.2423 -0.7790  0.4653
 1105TIP3    H224731   4.168   0.214   0.541  0.4320 -0.2534  1.0795
 1106TIP3   OH224732   6.068   3.254  15.092  0.1172  0.6799  0.4553
 1106TIP3    H124733   5.979   3.272  15.123 -0.2517  0.0150 -0.1927
 1106TIP3    H224734   6.064   3.268  14.997  0.4986 -0.1474  0.3087
 1107TIP3   OH224735   6.201   4.647  10.725  0.3263  0.3912 -0.3157
 1107TIP3    H124736   6.200   4.651  10.821 -0.0562  0.5690 -0.3273
 1107TIP3    H224737   6.294   4.636  10.702  0.7033  2.5966 -0.0272
 1108TIP3   OH224738   1.466   3.124   4.379  0.5602  0.4684 -0.1264
 1108TIP3    H124739   1.436   3.113   4.289  0.8775 -0.1092 -0.1735
 1108TIP3    H224740   1.386   3.130   4.431  0.2345  4.8431 -0.8139
 1109TIP3   OH224741   0.349   3.702  13.613 -0.1208  0.3332 -0.2697
 1109TIP3    H124742   0.328   3.692  13.521  1.6514 -0.3002 -0.6395
 1109TIP3    H224743   0.346   3.796  13.629 -0.9090  0.4059 -0.8475
 1110TIP3   OH224744   2.455   2.921   3.384 -0.4699 -0.4196 -0.2752
 1110TIP3    H124745   2.507   3.002   3.383 -1.4511  0.2833  1.5496
 1110TIP3    H224746   2.372   2.947   3.422  0.4195 -2.9688  3.9892
 1111TIP3   OH224747   4.772   1.459  12.229 -0.1495  0.2872 -0.2207
 1111TIP3    H124748   4.786   1.484  12.138 -0.9550 -0.1139 -0.4679
 1111TIP3    H224749   4.859   1.444  12.264  0.2990  2.2839 -0.3750
 1112TIP3   OH224750   5.128   4.480  10.614  0.7907 -0.3596 -0.0636
 1112TIP3    H124751   5.034   4.460  10.618  0.7521 -0.2022 -0.1873
 1112TIP3    H224752   5.169   4.412  10.669  0.6935 -0.9583 -0.7152
 1113TIP3   OH224753   1.013   5.693   0.553 -0.5986 -0.4588 -0.3348
 1113TIP3    H124754   0.942   5.747   0.517 -0.8908  0.4179  1.4536
 1113TIP3    H224755   0.969   5.627   0.606 -0.1161  0.1113  0.8205
 1114TIP3   OH224756   2.688   2.564   2.601  0.2685 -0.6453  0.2640
 1114TIP3    H124757   2.752   2.493   2.613  1.8323  0.7319  0.4290
 1114TIP3    H224758   2.699   2.591   2.510  0.8822  0.4610  0.6514
 1115TIP3   OH224759   0.782   1.555   0.980  0.2971  0.2004  0.0044
 1115TIP3    H124760   0.717   1.559   1.050 -0.1987  0.7870 -0.4859
 1115TIP3    H224761   0.863   1.583   1.022  0.4737 -1.4855  0.8697
 1116TIP3   OH224762   1.409   6.187  12.422  0.1311 -0.3666 -0.3868
 1116TIP3    H124763   1.475   6.122  12.399  0.2795  0.1909 -1.5923
 1116TIP3    H224764   1.449   6.271  12.401 -0.7205  0.0131 -0.5418
 1117TIP3   OH224765   2.269   6.698  15.437  0.0389  0.4329  0.3240
 1117TIP3    H124766   2.174   6.690  15.433 -0.0824  0.4669  2.3773
 1117TIP3    H224767   2.294   6.653  15.518  1.6843  1.2701  0.3267
 1118TIP3   OH224768   1.412   3.777   3.283  0.6414 -0.1052 -0.6093
 1118TIP3    H124769   1.417   3.705   3.345  0.7020 -0.4011 -0.9587
 1118TIP3    H224770   1.427   3.856   3.336  1.6477 -0.4201 -0.3970
 1119TIP3   OH224771   6.121   5.062   5.436  0.0433  0.3968 -0.4814
 1119TIP3    H124772   6.149   4.972   5.454 -1.0437 -0.1074 -1.2093
 1119TIP3    H224773   6.192   5.117   5.470 -0.0102 -0.6608  1.4302
 1120TIP3   OH224774   6.255   3.812   2.107  0.2353 -0.2056 -0.8634
 1120TIP3    H124775   6.190   3.786   2.042  0.0117 -0.5558 -0.5065
 1120TIP3    H224776   6.211   3.799   2.191  0.2927  0.8715 -0.6572
 1121TIP3   OH224777   2.172   6.712  12.660 -0.5180 -0.2140  0.4991
 1121TIP3    H124778   2.095   6.681  12.707 -0.1908 -2.2206 -0.1927
 1121TIP3    H224779   2.235   6.640  12.666  0.9648  1.0036  0.2512
 1122TIP3   OH224780   6.297   3.869   6.494  0.7962  0.0948 -0.8925
 1122TIP3    H124781   6.237   3.886   6.566  0.7360 -0.1773 -0.8759
 1122TIP3    H224782   6.331   3.781   6.512  0.8157  0.0438 -1.1686
 1123TIP3   OH224783   2.176   1.408   5.721  0.2516  0.2783 -0.2101
 1123TIP3    H124784   2.253   1.414   5.778  1.1097  1.9278 -1.4525
 1123TIP3    H224785   2.103   1.435   5.776  0.7529 -0.0793  0.6475
 1124TIP3   OH224786   5.460   3.794  12.060  0.1944 -0.6044 -0.2196
 1124TIP3    H124787   5.376   3.750  12.044  0.7351 -0.8665 -2.6967
 1124TIP3    H224788   5.523   3.722  12.069  0.1930 -0.4117  1.7545
 1125TIP3   OH224789   6.139   3.513  14.682 -0.1411  0.0564  0.2291
 1125TIP3    H124790   6.089   3.571  14.625 -0.4483  2.3145  2.6455
 1125TIP3    H224791   6.196   3.464  14.621 -2.6624 -0.0605 -2.2530
 1126TIP3   OH224792   5.141   0.068  11.144  0.6699  0.1129 -0.1996
 1126TIP3    H124793   5.093   0.088  11.063 -0.4210  0.0651  0.4123
 1126TIP3    H224794   5.228   0.043  11.114  0.8115  1.7180 -1.2592
 1127TIP3   OH224795   3.626   3.941  15.556  0.3363 -0.0386  0.2104
 1127TIP3    H124796   3.716   3.921  15.530  0.5339 -1.3724  1.7277
 1127TIP3    H224797   3.614   4.033  15.532  1.3715 -0.3963 -1.9297
 1128TIP3   OH224798   1.393   0.688  14.431 -0.3908 -0.2191  0.0896
 1128TIP3    H124799   1.392   0.778  14.399  1.0395  0.0672  0.7829
 1128TIP3    H224800   1.362   0.695  14.521  0.6165 -0.2567  0.4573
 1129TIP3   OH224801   4.206   1.420  10.700  0.0309 -0.1466 -0.1229
 1129TIP3    H124802   4.228   1.446  10.789 -3.0743  0.1122  0.6569
 1129TIP3    H224803   4.205   1.502  10.651 -0.3723 -0.0042  0.1187
 1130TIP3   OH224804   4.019   4.237   2.245 -0.0281  0.6978  0.1409
 1130TIP3    H124805   3.931   4.236   2.283  0.2907  1.8233  0.9772
 1130TIP3    H224806   4.038   4.146   2.225 -0.4699  0.1089  2.1707
 1131TIP3   OH224807   4.247   1.355   1.625  0.1118 -0.1917  0.2087
 1131TIP3    H124808   4.219   1.444   1.648  1.4884  0.6089 -1.0748
 1131TIP3    H224809   4.224   1.302   1.702 -0.6626  1.2744  1.0307
 1132TIP3   OH224810   0.256   5.788  11.512 -0.2821  0.1242 -0.1656
 1132TIP3    H124811   0.343   5.754  11.530 -0.5897 -0.1557  0.8795
 1132TIP3    H224812   0.245   5.860  11.574 -2.0529 -2.0079  2.2564
 1133TIP3   OH224813   3.239   0.001   2.808  0.5393  0.5207  0.3841
 1133TIP3    H124814   3.312   0.018   2.867  0.7992 -1.9882  0.8886
 1133TIP3    H224815   3.169  -0.029   2.866 -0.3893  1.3826 -0.2602
 1134TIP3   OH224816   0.675   2.871   1.792 -0.1405 -0.0897  0.3876
 1134TIP3    H124817   0.642   2.855   1.704 -2.3610  1.6220  0.8192
 1134TIP3    H224818   0.605   2.841   1.850  1.7711 -2.3804  1.7171
 1135TIP3   OH224819   5.153   2.902   0.567  0.1583 -0.3356 -0.0828
 1135TIP3    H124820   5.156   2.808   0.547  2.7079 -0.0397 -1.4974
 1135TIP3    H224821   5.239   2.921   0.604  0.5726  1.8290 -1.9373
 1136TIP3   OH224822   3.008   4.244   4.678 -0.1666  0.1546 -0.0358
 1136TIP3    H124823   3.021   4.268   4.770  0.0446 -0.3007  0.0556
 1136TIP3    H224824   2.999   4.328   4.633 -2.2580  0.3789  0.6770
 1137TIP3   OH224825   0.985   5.738  13.768 -0.7906 -0.0139  0.3616
 1137TIP3    H124826   0.959   5.647  13.757 -1.2145  0.2219 -0.6656
 1137TIP3    H224827   0.902   5.785  13.781 -0.6280  0.3137  0.2233
 1138TIP3   OH224828   2.333   6.012   2.021  0.2453 -0.2999  0.6354
 1138TIP3    H124829   2.325   5.969   2.107 -0.4611 -0.0848  0.6823
 1138TIP3    H224830   2.392   6.086   2.037 -0.5327  0.2224  1.1274
 1139TIP3   OH224831   5.996   6.028   3.406  0.1078 -0.5241 -0.0102
 1139TIP3    H124832   6.084   6.043   3.371  0.4108 -1.7380  0.2097
 1139TIP3    H224833   6.003   5.947   3.456 -0.8563 -0.0036  1.0243
 1140TIP3   OH224834   4.935   0.832   1.591  0.1191 -0.5605  0.4735
 1140TIP3    H124835   4.976   0.918   1.588  0.3438 -0.6880 -0.2131
 1140TIP3    H224836   4.906   0.823   1.682 -0.8941  0.6907  0.3017
 1141TIP3   OH224837   5.249   1.287  10.292  0.1930 -0.1069 -0.7480
 1141TIP3    H124838   5.340   1.312  10.305 -0.1068  0.4789  0.2750
 1141TIP3    H224839   5.243   1.199  10.329  0.2420  0.0329 -0.4038
 1142TIP3   OH224840   6.007   2.930  13.951 -0.5270 -0.4578  0.5687
 1142TIP3    H124841   5.922   2.940  13.907  0.4183 -1.1866 -1.6071
 1142TIP3    H224842   6.033   3.018  13.975 -0.3997  0.2824 -1.9281
 1143TIP3   OH224843   1.865   2.470   5.999  0.1870 -0.3604  0.3675
 1143TIP3    H124844   1.789   2.436   6.047  0.8393  0.2086  1.8499
 1143TIP3    H224845   1.874   2.560   6.029  1.4658 -0.4302  0.2141
 1144TIP3   OH224846   1.059   2.405   4.180 -0.2275 -0.2792  0.1738
 1144TIP3    H124847   1.017   2.321   4.163 -1.0097  0.0172  0.5650
 1144TIP3    H224848   1.066   2.447   4.094  0.2406 -0.7666 -0.0337
 1145TIP3   OH224849   4.005   3.327  13.727 -0.1934 -0.3039 -0.6676
 1145TIP3    H124850   4.082   3.277  13.701  1.4313  0.8411  1.5929
 1145TIP3    H224851   3.940   3.307  13.660  2.1281 -1.0967 -2.8455
 1146TIP3   OH224852   6.790   2.222   0.619 -0.1860 -0.2500 -0.3450
 1146TIP3    H124853   6.769   2.222   0.525 -0.3561  0.6695 -0.3198
 1146TIP3    H224854   6.723   2.278   0.658  0.6148  0.3953  0.1396
 1147TIP3   OH224855   2.328   1.369   4.029 -0.5200 -0.7583  0.3335
 1147TIP3    H124856   2.384   1.324   3.966 -0.3142 -0.5942  0.3977
 1147TIP3    H224857   2.251   1.395   3.980  1.1213  2.5238 -0.7775
 1148TIP3   OH224858   5.789   0.824  13.524 -0.1855 -0.5348 -0.2057
 1148TIP3    H124859   5.802   0.912  13.559  0.1836 -0.9884  0.8362
 1148TIP3    H224860   5.707   0.829  13.476 -0.9777 -0.0107  1.1594
 1149TIP3   OH224861   6.053   3.202   3.902 -0.3209  0.9830  0.1971
 1149TIP3    H124862   6.120   3.255   3.944 -0.1226  0.4560  0.5611
 1149TIP3    H224863   5.978   3.207   3.962 -0.2676  0.7695  0.2811
 1150TIP3   OH224864   6.426   5.995  12.468  0.4573 -0.0829  0.0284
 1150TIP3    H124865   6.414   5.987  12.563  0.9567 -0.3097  0.0781
 1150TIP3    H224866   6.426   6.089  12.451 -0.0307 -0.0493  0.1986
 1151TIP3   OH224867   1.610   0.378  13.657 -0.4003 -0.9621 -1.1528
 1151TIP3    H124868   1.553   0.333  13.719 -0.8383 -0.1004 -0.9159
 1151TIP3    H224869   1.698   0.364  13.691 -0.5483 -1.3979 -0.9326
 1152TIP3   OH224870   4.606   4.402   6.063 -0.1887  0.8667  0.2835
 1152TIP3    H124871   4.672   4.342   6.028 -0.6505 -1.7326  3.4168
 1152TIP3    H224872   4.656   4.469   6.109  0.2791  0.9130 -0.2805
 1153TIP3   OH224873   2.662   3.016   2.529  0.4025 -0.3984  0.2505
 1153TIP3    H124874   2.580   3.062   2.508  1.0355  0.2667 -0.8580
 1153TIP3    H224875   2.719   3.083   2.566  1.2316 -0.3364 -1.0993
 1154TIP3   OH224876   3.677   5.885   5.776 -0.1174 -0.2903 -0.0373
 1154TIP3    H124877   3.762   5.852   5.805  0.2516  0.5833 -0.1016
 1154TIP3    H224878   3.637   5.810   5.731  1.0246 -0.4368 -0.8542
 1155TIP3   OH224879   4.336   3.925  11.567 -0.3918 -0.0487  0.2530
 1155TIP3    H124880   4.286   3.885  11.496 -1.1142  3.1242 -1.2061
 1155TIP3    H224881   4.290   3.900  11.647 -2.2897 -0.0533 -0.7865
 1156TIP3   OH224882   1.063   2.992   3.488 -0.3100  0.0627  1.4171
 1156TIP3    H124883   1.062   3.082   3.456 -1.3971 -0.9544 -1.8724
 1156TIP3    H224884   1.156   2.970   3.499  0.2689  0.3908 -1.9019
 1157TIP3   OH224885   0.123   4.849  13.736 -0.6034  0.2415 -0.0941
 1157TIP3    H124886   0.042   4.798  13.744 -0.0659 -0.4102  1.6099
 1157TIP3    H224887   0.116   4.916  13.804  0.7947 -0.5789  0.9151
 1158TIP3   OH224888   3.408   0.772   3.068  0.1365  0.0786 -0.4908
 1158TIP3    H124889   3.422   0.838   3.135 -0.2561  0.1392 -0.4636
 1158TIP3    H224890   3.340   0.715   3.104  0.7165 -0.5533 -0.3636
 1159TIP3   OH224891   4.844   2.114   2.796  0.6748 -0.4218 -0.6478
 1159TIP3    H124892   4.803   2.148   2.716 -0.4442 -0.1933  0.0052
 1159TIP3    H224893   4.885   2.191   2.837  0.7184 -0.4243 -0.6863
 1160TIP3   OH224894   1.484   5.674   1.139  0.1427 -0.2629 -0.3522
 1160TIP3    H124895   1.416   5.700   1.077 -0.4362 -0.2239  0.2853
 1160TIP3    H224896   1.538   5.611   1.091 -0.8299 -0.9182 -0.6054
 1161TIP3   OH224897   2.999   6.385  15.638  0.1747 -0.7360 -0.0780
 1161TIP3    H124898   3.084   6.429  15.637  0.1778 -0.7484 -0.4107
 1161TIP3    H224899   3.008   6.312  15.577 -0.2078 -0.4809 -0.4435
 1162TIP3   OH224900   0.073   0.661  16.009 -0.0638 -0.1047 -0.6411
 1162TIP3    H124901   0.128   0.715  15.952 -1.5144  0.8435 -1.2201
 1162TIP3    H224902   0.113   0.669  16.096  1.7879 -1.0127 -1.3701
 1163TIP3   OH224903   4.736   1.093   5.202 -0.4900  0.6421  0.2928
 1163TIP3    H124904   4.671   1.023   5.208  0.9287 -0.9549 -1.6325
 1163TIP3    H224905   4.810   1.062   5.254 -0.4688  1.5014  0.7870
 1164TIP3   OH224906   3.410   4.468  11.368  0.0768 -0.5107 -0.2909
 1164TIP3    H124907   3.492   4.516  11.379 -0.1280 -0.0197 -0.9067
 1164TIP3    H224908   3.349   4.513  11.427  0.2348 -0.8601  0.1475
 1165TIP3   OH224909   1.747   1.821  11.286  0.5271  0.0962 -0.1312
 1165TIP3    H124910   1.745   1.914  11.264  0.1195  0.3894  1.0641
 1165TIP3    H224911   1.661   1.804  11.324  0.1459 -1.0734 -1.4509
 1166TIP3   OH224912   1.944   2.404  10.994 -0.1426  0.3241 -0.3579
 1166TIP3    H124913   1.886   2.444  10.929 -2.5111 -1.0137  0.7918
 1166TIP3    H224914   1.885   2.353  11.050  2.1914 -1.0840  0.9502
 1167TIP3   OH224915   5.134   2.748   3.031  0.7978  0.5854  0.6789
 1167TIP3    H124916   5.087   2.813   3.083  0.2575  0.3610  0.4810
 1167TIP3    H224917   5.224   2.780   3.027  1.0674  0.1734  2.4837
 1168TIP3   OH224918   3.120   4.698   6.548 -0.0008  0.1393 -0.3871
 1168TIP3    H124919   3.166   4.720   6.467  0.5445 -0.6399 -0.2976
 1168TIP3    H224920   3.164   4.750   6.615  1.0626 -0.9131 -0.2317
 1169TIP3   OH224921   1.737   6.200   2.481 -1.0139  0.7200  0.1241
 1169TIP3    H124922   1.665   6.165   2.533 -0.5992 -1.5135 -0.6869
 1169TIP3    H224923   1.702   6.206   2.392 -0.1452 -0.7707 -0.3587
 1170TIP3   OH224924   5.651   2.592   4.056  0.1217  0.1804 -0.1935
 1170TIP3    H124925   5.594   2.561   3.986 -0.6177  0.0769  0.4435
 1170TIP3    H224926   5.625   2.683   4.068  0.3062  0.2208 -0.1049
 1171TIP3   OH224927   5.865   0.710   0.898 -0.1687 -0.4519 -0.6419
 1171TIP3    H124928   5.816   0.656   0.836 -0.6887  1.4550 -1.9659
 1171TIP3    H224929   5.916   0.770   0.844 -0.6932  1.3295  0.7166
 1172TIP3   OH224930   3.342   4.173   1.050 -0.3761 -0.0597  0.2184
 1172TIP3    H124931   3.290   4.252   1.062 -1.6326 -0.9830  1.2420
 1172TIP3    H224932   3.345   4.159   0.956 -0.1254  1.1979  0.0325
 1173TIP3   OH224933   2.695   6.395   0.860  0.0855 -0.2937 -0.2953
 1173TIP3    H124934   2.730   6.307   0.873  2.3211  0.4322 -0.8613
 1173TIP3    H224935   2.648   6.390   0.777  0.8574 -0.7994 -0.7183
 1174TIP3   OH224936   4.883   0.496   0.448  0.1540 -0.5594  0.0372
 1174TIP3    H124937   4.809   0.555   0.435  0.3251 -0.2539  0.3945
 1174TIP3    H224938   4.849   0.427   0.505 -0.3230 -1.3677 -1.1911
 1175TIP3   OH224939   2.379   4.389   4.997 -0.2895  0.9680 -0.2117
 1175TIP3    H124940   2.324   4.454   5.039  0.0386  0.7719  0.5432
 1175TIP3    H224941   2.412   4.335   5.069 -2.4564 -1.5504 -0.9499
 1176TIP3   OH224942   2.897   6.197  10.540  0.4046  0.8730 -0.3044
 1176TIP3    H124943   2.833   6.130  10.562  0.6136  1.2055  1.4517
 1176TIP3    H224944   2.973   6.176  10.594  1.9486  0.2957 -2.5633
 1177TIP3   OH224945   3.657   6.527  11.896  0.3658 -0.0101 -0.2199
 1177TIP3    H124946   3.704   6.566  11.822  0.4093  1.6344  0.6412
 1177TIP3    H224947   3.694   6.438  11.903  1.7739  0.4777 -0.9379
 1178TIP3   OH224948   0.642   1.705  12.396  0.3989  0.3484  0.1800
 1178TIP3    H124949   0.727   1.682  12.358 -1.2903 -2.0978 -2.4598
 1178TIP3    H224950   0.607   1.622  12.429 -2.6377  0.3129 -2.6092
 1179TIP3   OH224951   0.616   4.461   5.844  0.0657  0.4698  0.2765
 1179TIP3    H124952   0.670   4.487   5.918 -0.5063  0.4645  0.7034
 1179TIP3    H224953   0.553   4.533   5.834 -0.0800  0.3087  0.0128
 1180TIP3   OH224954   2.281   5.353  16.765  0.3213  0.0312  0.1674
 1180TIP3    H124955   2.362   5.345  16.815 -1.0753 -1.0117  2.4243
 1180TIP3    H224956   2.302   5.317  16.679  2.2808 -0.0574  0.6379
 1181TIP3   OH224957   5.495   3.213   1.521  0.2382 -0.0954  0.0681
 1181TIP3    H124958   5.438   3.245   1.451  2.4058  1.4478 -1.1207
 1181TIP3    H224959   5.563   3.165   1.475  1.2802  0.2623  1.1926
 1182TIP3   OH224960   0.193   3.976   6.246 -0.3326  0.0149  0.0753
 1182TIP3    H124961   0.287   3.960   6.256 -0.2413  0.3633 -0.2165
 1182TIP3    H224962   0.181   3.991   6.152 -0.4049  1.7015  0.3277
 1183TIP3   OH224963   1.558   4.119  14.379  0.7540 -0.5464  0.9507
 1183TIP3    H124964   1.586   4.209  14.396  1.7332 -0.5204 -0.6263
 1183TIP3    H224965   1.639   4.069  14.379  0.4074 -1.1234  0.0514
 1184TIP3   OH224966   5.567   3.014   0.113 -0.0979 -0.0568  0.1254
 1184TIP3    H124967   5.644   3.070   0.121  2.6611 -3.5135  0.3716
 1184TIP3    H224968   5.541   3.022   0.022  0.1646  1.5932  0.1616
 1185TIP3   OH224969   2.752   5.228  11.972 -0.2062  0.1281 -0.4670
 1185TIP3    H124970   2.744   5.200  12.063  2.5987  0.9602  0.1359
 1185TIP3    H224971   2.843   5.255  11.963 -0.1100 -0.8226 -3.8155
 1186TIP3   OH224972   3.809   0.578   4.384 -0.0968  0.1164  0.1167
 1186TIP3    H124973   3.800   0.665   4.346 -0.4981  0.3653  0.7772
 1186TIP3    H224974   3.821   0.520   4.309  0.6159  0.7946 -0.3035
 1187TIP3   OH224975   2.936   4.329   4.013  0.1137 -0.4706  0.1437
 1187TIP3    H124976   3.032   4.327   4.014  0.1317 -0.1721 -0.5685
 1187TIP3    H224977   2.914   4.422   4.018 -0.1490 -0.5616  0.7241
 1188TIP3   OH224978   4.151   2.849   1.917  1.1427  0.9294 -0.0306
 1188TIP3    H124979   4.144   2.818   2.008  2.3782 -0.9495 -0.5237
 1188TIP3    H224980   4.065   2.832   1.879  1.6378 -1.6291 -0.1507
 1189TIP3   OH224981   6.737   6.140   3.767 -0.5606  0.1090 -0.7481
 1189TIP3    H124982   6.724   6.163   3.859 -1.1246 -0.3501 -0.7080
 1189TIP3    H224983   6.781   6.216   3.730  1.5904 -0.5071  0.3530
 1190TIP3   OH224984   0.889   1.622   1.362 -0.2125  0.7212 -0.1864
 1190TIP3    H124985   0.944   1.621   1.283  0.1372  0.6659  0.0565
 1190TIP3    H224986   0.853   1.711   1.364 -0.8280  0.4955 -0.8205
 1191TIP3   OH224987   6.428   6.655  15.201  0.3980  0.2355 -0.0817
 1191TIP3    H124988   6.517   6.680  15.178 -0.0378  2.4947  0.3970
 1191TIP3    H224989   6.373   6.724  15.163 -0.6974  1.6973  3.6448
 1192TIP3   OH224990   2.283   2.495   6.959  0.3977 -0.4496 -0.3805
 1192TIP3    H124991   2.368   2.493   6.914  1.2954  2.6003  0.8852
 1192TIP3    H224992   2.230   2.556   6.907  0.1190  0.0977  0.5159
 1193TIP3   OH224993   3.238   1.028   0.813 -0.4016  0.7089  0.1251
 1193TIP3    H124994   3.177   1.087   0.857 -1.4023 -0.8857  0.9756
 1193TIP3    H224995   3.280   0.979   0.885 -0.1662 -0.1440 -0.5736
 1194TIP3   OH224996   6.302   1.449  11.285 -0.7348  0.2166  0.6245
 1194TIP3    H124997   6.280   1.378  11.345 -1.2954  0.3178  0.5412
 1194TIP3    H224998   6.346   1.406  11.212 -1.2858 -0.0790  0.4602
 1195TIP3   OH224999   1.288   6.685   0.517  0.4382 -0.1657 -0.8146
 1195TIP3    H125000   1.261   6.606   0.564  2.1417 -0.2994  0.0155
 1195TIP3    H225001   1.293   6.658   0.425  0.4658 -0.8721 -0.6138
 1196TIP3   OH225002   1.759   4.217  15.908 -0.1145 -0.2386  0.0019
 1196TIP3    H125003   1.816   4.230  15.832  0.9485  0.1073  0.8275
 1196TIP3    H225004   1.817   4.181  15.975 -0.5035  1.4530  1.3338
 1197TIP3   OH225005   2.388   3.490   1.617  0.4973 -0.1812 -0.4309
 1197TIP3    H125006   2.482   3.481   1.632  0.3891  0.4678  0.8743
 1197TIP3    H225007   2.348   3.426   1.676  0.1226 -0.6846 -1.2219
 1198TIP3   OH225008   3.713   5.332   4.142 -0.4226  0.8111  0.0131
 1198TIP3    H125009   3.722   5.340   4.237  0.4601  2.2633 -0.1708
 1198TIP3    H225010   3.796   5.364   4.107 -1.5449  2.4510 -1.3147
 1199TIP3   OH225011   5.667   0.040  15.363  0.3933 -0.0060  0.5858
 1199TIP3    H125012   5.616   0.054  15.283  0.6273  2.8787  0.8574
 1199TIP3    H225013   5.755   0.018  15.331  0.2933  0.3530  0.0404
 1200TIP3   OH225014   0.441   6.123   2.743 -0.3027 -0.4908 -0.0202
 1200TIP3    H125015   0.383   6.185   2.698  1.3095  0.7789 -0.4579
 1200TIP3    H225016   0.522   6.172   2.756  1.4028 -2.8004 -1.2391
 1201TIP3   OH225017   1.387   0.432   2.191 -0.1424  0.2152 -0.0621
 1201TIP3    H125018   1.318   0.490   2.224 -0.8658 -0.5438 -0.2036
 1201TIP3    H225019   1.466   0.459   2.238 -0.8559  0.0890  1.2335
 1202TIP3   OH225020   3.425   6.476   0.673  0.2512 -0.2175 -0.2894
 1202TIP3    H125021   3.462   6.518   0.595  0.9450  1.5829  0.9524
 1202TIP3    H225022   3.332   6.496   0.670  0.6338  1.9389  0.5188
 1203TIP3   OH225023   4.303   5.202   4.494  0.3388  0.5701 -0.0770
 1203TIP3    H125024   4.393   5.186   4.463  0.0393 -2.0789  0.1325
 1203TIP3    H225025   4.313   5.222   4.587  0.6882 -1.7475  0.4612
 1204TIP3   OH225026   1.125   5.345   1.506  0.2950 -0.3632  0.3812
 1204TIP3    H125027   1.045   5.363   1.457  2.7805 -0.4159 -4.2408
 1204TIP3    H225028   1.147   5.255   1.484  0.9132 -0.9231  2.9243
 1205TIP3   OH225029   4.216   6.696   3.844 -0.1736 -0.3771  0.1134
 1205TIP3    H125030   4.240   6.773   3.793  2.1617 -1.1826 -0.1356
 1205TIP3    H225031   4.204   6.627   3.780  0.0124 -0.7443  0.4691
 1206TIP3   OH225032   2.064   2.074   1.796 -0.0548  1.1388  0.0551
 1206TIP3    H125033   2.077   2.154   1.847 -1.2963  0.7147  1.0974
 1206TIP3    H225034   1.976   2.044   1.820 -0.2903  0.3699 -1.6098
 1207TIP3   OH225035   5.646   2.372   6.767  0.2279 -0.0618  0.2272
 1207TIP3    H125036   5.567   2.326   6.739  0.2566 -0.0400  0.1118
 1207TIP3    H225037   5.618   2.464   6.775  0.3916  0.0447 -0.3942
 1208TIP3   OH225038   0.880   2.965  11.938 -0.3551  0.1702  0.1147
 1208TIP3    H125039   0.923   3.039  11.981 -1.0491  0.6897 -0.0536
 1208TIP3    H225040   0.875   2.898  12.006 -1.1740  0.8752  0.7823
 1209TIP3   OH225041   4.713   2.032   3.028 -0.1388  0.3769 -0.0564
 1209TIP3    H125042   4.750   2.053   2.942  1.0554  0.1403  0.3820
 1209TIP3    H225043   4.765   1.959   3.060 -1.8018 -0.8006  0.0793
 1210TIP3   OH225044   2.007   0.554   5.197  0.3317  0.7291 -0.4507
 1210TIP3    H125045   2.021   0.463   5.223 -0.2450  0.6793 -0.2807
 1210TIP3    H225046   2.020   0.554   5.102  0.9864  0.6044 -0.3597
 1211TIP3   OH225047   6.591   1.773  13.692 -0.1191 -0.1016 -0.6939
 1211TIP3    H125048   6.596   1.864  13.720 -1.3545  0.9235 -3.4853
 1211TIP3    H225049   6.592   1.723  13.774 -0.3047  2.4345  0.9668
 1212TIP3   OH225050   2.516   6.180  10.424  0.7115  0.1494 -0.7588
 1212TIP3    H125051   2.513   6.098  10.374  0.8005  1.1902 -2.5344
 1212TIP3    H225052   2.433   6.183  10.471  1.9223 -2.4372  1.9220
 1213TIP3   OH225053   5.958   4.472   1.545 -0.1347  0.3037 -0.1931
 1213TIP3    H125054   5.894   4.437   1.483  0.4055 -0.4832 -0.3220
 1213TIP3    H225055   5.924   4.450   1.631  0.1096 -0.3960 -0.2682
 1214TIP3   OH225056   5.975   1.974  13.602 -0.4863 -0.0499  0.3332
 1214TIP3    H125057   5.932   2.059  13.606 -0.3702  0.0556 -0.4023
 1214TIP3    H225058   5.970   1.939  13.691 -0.5808  0.7015  0.6231
 1215TIP3   OH225059   2.946   5.871  12.631 -0.3464  0.2389  0.0522
 1215TIP3    H125060   2.933   5.954  12.585 -2.6616 -0.3818 -0.5562
 1215TIP3    H225061   2.999   5.818  12.572 -0.4285  0.6503 -0.3929
 1216TIP3   OH225062   2.053   4.192   5.977  0.4519 -0.7978  0.1757
 1216TIP3    H125063   2.008   4.199   6.061  0.3070 -0.7000  0.0898
 1216TIP3    H225064   2.144   4.214   5.997  0.2907 -0.1252  0.1876
 1217TIP3   OH225065   4.272   1.670  11.557 -0.1833  0.0295  0.2942
 1217TIP3    H125066   4.346   1.633  11.509 -1.0618 -0.3995 -0.7557
 1217TIP3    H225067   4.304   1.679  11.647  0.6466 -1.5698  0.1903
 1218TIP3   OH225068   1.594   5.656  16.482 -0.3139  0.7292  0.1019
 1218TIP3    H125069   1.672   5.683  16.434  0.9201 -0.3326  1.4080
 1218TIP3    H225070   1.527   5.644  16.415  0.9143  0.7036 -1.1756
 1219TIP3   OH225071   2.710   2.381   2.878 -0.2893 -0.3245 -0.6819
 1219TIP3    H125072   2.746   2.468   2.898 -0.4414  0.3480 -3.1006
 1219TIP3    H225073   2.787   2.327   2.861 -0.0192 -1.4209  3.0511
 1220TIP3   OH225074   5.953   0.216   2.463 -0.5662  0.3527  0.3377
 1220TIP3    H125075   5.927   0.278   2.530 -2.4377 -0.1151  0.1020
 1220TIP3    H225076   5.984   0.270   2.390  0.2339  0.8970  1.0674
 1221TIP3   OH225077   0.367   4.513   4.044 -0.3052  0.0538  0.6819
 1221TIP3    H125078   0.427   4.449   4.005  1.1222  0.9160  1.3469
 1221TIP3    H225079   0.354   4.579   3.976 -4.2850 -2.3192 -1.1915
 1222TIP3   OH225080   2.324   4.430   0.718  0.2137 -0.2153 -0.0414
 1222TIP3    H125081   2.366   4.498   0.666  0.9384  0.9055  1.8838
 1222TIP3    H225082   2.230   4.449   0.712  0.4276  1.2149  0.7507
 1223TIP3   OH225083   4.062   2.331  16.821 -0.2356 -0.0560 -0.0939
 1223TIP3    H125084   4.090   2.339  16.729 -1.8970  1.0706 -0.5413
 1223TIP3    H225085   4.056   2.237  16.836  0.1607 -0.2593 -1.1123
 1224TIP3   OH225086   3.464   4.816  13.677 -0.4031 -0.5324  0.4264
 1224TIP3    H125087   3.544   4.850  13.716 -0.5039  0.6660 -0.3510
 1224TIP3    H225088   3.397   4.881  13.698 -0.6317 -0.2693 -0.9803
 1225TIP3   OH225089   2.191   3.818  13.698  0.4222  0.8664  0.1026
 1225TIP3    H125090   2.167   3.803  13.789 -0.1078  0.3196 -0.1147
 1225TIP3    H225091   2.159   3.740  13.652  1.5349  0.6790 -0.4040
 1226TIP3   OH225092   6.411   1.399   2.535 -0.0356 -0.5267 -0.5476
 1226TIP3    H125093   6.328   1.398   2.487 -1.2914 -0.2935  1.4976
 1226TIP3    H225094   6.400   1.467   2.602  0.9192 -1.9753  1.1988
 1227TIP3   OH225095   6.667   2.885   4.321 -0.0882 -0.0936  0.4106
 1227TIP3    H125096   6.746   2.835   4.302  1.2323  1.5448  1.3323
 1227TIP3    H225097   6.603   2.819   4.349  0.3430 -1.6648 -1.9786
 1228TIP3   OH225098   0.023   3.828   3.168  0.1479 -0.1433 -0.2058
 1228TIP3    H125099  -0.013   3.907   3.208  0.0095 -0.1665 -0.2850
 1228TIP3    H225100  -0.021   3.756   3.211 -2.3852 -0.1452 -2.5674
 1229TIP3   OH225101   4.990   4.659   6.274  0.3359 -0.5297  0.5869
 1229TIP3    H125102   4.930   4.618   6.335  1.1991  0.6002  2.2963
 1229TIP3    H225103   4.941   4.668   6.193 -0.8493 -2.0883  1.0944
 1230TIP3   OH225104   0.518   4.484  12.616 -0.1175 -0.1971 -0.3334
 1230TIP3    H125105   0.573   4.429  12.560 -0.5922 -0.1474 -0.8623
 1230TIP3    H225106   0.469   4.538  12.554 -1.1499 -0.6170  0.1097
 1231TIP3   OH225107   4.321   2.566   3.649  0.4862  0.7801 -0.5129
 1231TIP3    H125108   4.297   2.473   3.654 -0.3371  1.0417  0.7750
 1231TIP3    H225109   4.346   2.589   3.738 -1.0001  2.2320 -0.4216
 1232TIP3   OH225110   4.124   5.683   4.017 -0.0675  0.0111 -0.5848
 1232TIP3    H125111   4.205   5.638   3.991 -0.2810  0.0075 -1.2470
 1232TIP3    H225112   4.154   5.765   4.057  0.2344  0.6284 -2.0249
 1233TIP3   OH225113   5.474   6.236  16.650 -0.1498 -0.0854 -0.5926
 1233TIP3    H125114   5.547   6.198  16.697 -0.3387 -2.3242 -1.9650
 1233TIP3    H225115   5.454   6.317  16.698  0.5051 -1.5047  2.2768
 1234TIP3   OH225116   1.095   2.968  16.754  0.3536 -0.3030 -0.0909
 1234TIP3    H125117   1.107   3.030  16.682  2.4944 -0.7064 -0.1563
 1234TIP3    H225118   1.097   2.882  16.712  0.1431 -0.5022  0.3003
 1235TIP3   OH225119   2.620   3.176   1.772  0.3171 -0.4582 -0.1835
 1235TIP3    H125120   2.714   3.166   1.787  0.4725 -0.1609 -0.8943
 1235TIP3    H225121   2.582   3.093   1.799  0.8547 -0.7809 -0.3927
 1236TIP3   OH225122   1.106   1.362   1.555  0.3359  0.0953  0.2363
 1236TIP3    H125123   1.116   1.281   1.605 -1.2120 -0.3420 -0.1044
 1236TIP3    H225124   1.073   1.426   1.618  0.0401  0.0199  0.1592
 1237TIP3   OH225125   2.019   0.660   4.598 -0.0456 -0.1561 -0.1133
 1237TIP3    H125126   2.106   0.631   4.626  1.5351  0.9005 -3.3827
 1237TIP3    H225127   2.022   0.755   4.603  0.2546  0.0968 -3.1864
 1238TIP3   OH225128   1.094   3.249   3.217  0.4927 -0.2849 -0.1969
 1238TIP3    H125129   1.014   3.266   3.269  0.5069  0.1340 -0.3085
 1238TIP3    H225130   1.065   3.189   3.148  0.9691 -2.8501  1.6791
 1239TIP3   OH225131   1.922   5.131   3.091 -0.3911 -0.3316  1.0938
 1239TIP3    H125132   1.988   5.200   3.090 -0.1779 -0.5070 -0.6715
 1239TIP3    H225133   1.908   5.113   3.183 -0.1784  1.7928  1.5878
 1240TIP3   OH225134   3.412   4.914  10.678  0.2548 -0.3781 -0.8010
 1240TIP3    H125135   3.420   5.008  10.666  1.1870 -0.5841 -2.0474
 1240TIP3    H225136   3.319   4.896  10.662  0.2344  0.2239 -1.3933
 1241TIP3   OH225137   3.982   2.697  13.881  0.4971  0.6382 -0.3364
 1241TIP3    H125138   3.983   2.717  13.974  2.4553  0.4032 -0.2511
 1241TIP3    H225139   3.967   2.781  13.838  1.9151  1.1847  0.1679
 1242TIP3   OH225140   4.956   6.114   3.920 -0.4713  0.9938  0.0552
 1242TIP3    H125141   4.862   6.113   3.900 -1.0522  0.6451  2.4623
 1242TIP3    H225142   4.981   6.022   3.920  0.0376  1.1152 -1.1259
 1243TIP3   OH225143   4.812   3.308  16.507  0.1817  0.5954 -0.2834
 1243TIP3    H125144   4.729   3.322  16.553 -0.2907 -0.6027 -0.7289
 1243TIP3    H225145   4.809   3.366  16.432 -0.4238  0.3095 -0.4872
 1244TIP3   OH225146   0.169   3.214  16.579  0.2837 -0.2737  0.2999
 1244TIP3    H125147   0.188   3.271  16.654  0.5637 -1.2498  0.9971
 1244TIP3    H225148   0.124   3.270  16.516 -0.6360  0.3858  1.5129
 1245TIP3   OH225149   0.601   5.217   2.537 -0.3226  0.0998 -0.3717
 1245TIP3    H125150   0.584   5.187   2.448  1.2985 -1.2867 -0.2807
 1245TIP3    H225151   0.617   5.136   2.586 -0.6367  0.8802  1.0445
 1246TIP3   OH225152   3.121   1.718   2.189 -0.0552 -0.0156  0.3384
 1246TIP3    H125153   3.118   1.633   2.234 -1.6128  0.1716  0.6634
 1246TIP3    H225154   3.030   1.747   2.188  0.3752  1.3898 -0.2971
 1247TIP3   OH225155   1.724   3.663  11.920  0.0542  0.1020 -0.4317
 1247TIP3    H125156   1.792   3.600  11.896  0.6053  1.0422 -1.4629
 1247TIP3    H225157   1.652   3.645  11.860 -0.6674 -0.9268  0.6946
 1248TIP3   OH225158   6.602   3.311  13.486  0.1223 -0.0806  0.3128
 1248TIP3    H125159   6.668   3.284  13.423 -1.2598 -2.4226 -0.2808
 1248TIP3    H225160   6.522   3.267  13.457 -0.5269 -1.5358  3.8354
 1249TIP3   OH225161   0.468   3.879  16.578 -0.1175 -0.3068  0.3320
 1249TIP3    H125162   0.450   3.884  16.672  1.1268  0.6978  0.5458
 1249TIP3    H225163   0.535   3.812  16.569  0.6037  0.3976  0.3179
 1250TIP3   OH225164   5.089   0.473   3.401 -0.7076 -0.0741  0.4067
 1250TIP3    H125165   5.039   0.551   3.377 -0.4101  0.3302  1.0686
 1250TIP3    H225166   5.166   0.507   3.447 -1.5827 -0.8261  2.5098
 1251TIP3   OH225167   0.837   4.841   3.805  0.1148 -0.4872  0.1112
 1251TIP3    H125168   0.922   4.886   3.814 -0.9290  1.2794  2.5047
 1251TIP3    H225169   0.831   4.788   3.885 -1.4145  0.2049  0.4824
 1252TIP3   OH225170   1.560   0.562  12.333  0.1573 -0.6445  0.5715
 1252TIP3    H125171   1.613   0.504  12.388  0.9812  0.7482  1.3013
 1252TIP3    H225172   1.620   0.631  12.306 -0.9645  0.2690  0.3293
 1253TIP3   OH225173   0.467   4.140   3.284 -0.4924 -0.1542 -0.0500
 1253TIP3    H125174   0.558   4.159   3.261 -0.7866 -1.0264 -2.0970
 1253TIP3    H225175   0.426   4.226   3.289  0.0013  0.1611 -1.1427
 1254TIP3   OH225176   4.695   3.842  11.106  0.1762  0.4998 -0.1740
 1254TIP3    H125177   4.617   3.818  11.056 -1.4539  2.8390  1.0366
 1254TIP3    H225178   4.767   3.840  11.043 -1.4801  1.5874 -2.1926
 1255TIP3   OH225179   6.456   4.815   3.637  0.1928  0.5039  0.0844
 1255TIP3    H125180   6.394   4.787   3.570  1.7976 -2.0289 -0.4732
 1255TIP3    H225181   6.402   4.833   3.714 -1.2641 -1.9976 -0.2394
 1256TIP3   OH225182   6.690   6.451  16.461 -0.0136 -0.5749 -0.0920
 1256TIP3    H125183   6.647   6.422  16.381  1.3765 -0.7433 -0.8100
 1256TIP3    H225184   6.713   6.542  16.444  1.8693 -1.1131 -0.6195
 1257TIP3   OH225185   0.721   4.700   1.605  0.2667 -0.0660  0.0533
 1257TIP3    H125186   0.628   4.715   1.584  0.0343 -0.5337  0.7160
 1257TIP3    H225187   0.737   4.754   1.682  1.1493  1.7371 -1.3265
 1258TIP3   OH225188   4.441   5.300   5.013 -0.1811  0.3344  0.0299
 1258TIP3    H125189   4.392   5.255   5.082 -0.5191  0.5192 -0.0896
 1258TIP3    H225190   4.411   5.391   5.017 -0.3720  0.2949 -0.5168
 1259TIP3   OH225191   4.811   4.639  15.647  0.1361 -0.0663  0.2771
 1259TIP3    H125192   4.881   4.576  15.630  0.8299  1.0340 -1.1968
 1259TIP3    H225193   4.848   4.699  15.712  0.0506 -0.2973  0.5368
 1260TIP3   OH225194   0.331   0.348  14.002 -0.2778  0.1781 -0.2342
 1260TIP3    H125195   0.381   0.429  13.991  0.4392 -0.1161  0.7340
 1260TIP3    H225196   0.240   0.378  14.010 -0.0470  0.8753 -0.0923
 1261TIP3   OH225197   4.701   4.449   5.438  0.2542 -0.3153 -0.3446
 1261TIP3    H125198   4.694   4.353   5.439  0.9717 -0.3720  1.1919
 1261TIP3    H225199   4.612   4.480   5.451  0.3290 -0.8220  1.5811
 1262TIP3   OH225200   1.248   5.086   0.805 -0.7743  0.1169 -0.3062
 1262TIP3    H125201   1.269   5.134   0.725 -1.3271  1.0853  0.1169
 1262TIP3    H225202   1.169   5.037   0.784 -2.0115  1.8171  0.1833
 1263TIP3   OH225203   1.476   2.905   0.429  0.4014 -0.2790  1.1619
 1263TIP3    H125204   1.416   2.848   0.382 -0.0721  1.4537 -0.4562
 1263TIP3    H225205   1.427   2.932   0.506 -0.2113 -0.3027  0.7854
 1264TIP3   OH225206   3.466   1.540  12.164 -0.1786 -0.1350  0.1116
 1264TIP3    H125207   3.519   1.482  12.110  0.7624  1.1935 -0.4607
 1264TIP3    H225208   3.394   1.485  12.196 -0.1784 -1.2187 -1.6350
 1265TIP3   OH225209   0.712   4.999  13.996 -0.7305 -0.5412  0.3986
 1265TIP3    H125210   0.766   5.070  13.960  0.0846 -1.4736 -0.2815
 1265TIP3    H225211   0.743   4.920  13.951 -2.6846 -1.1292 -0.0231
 1266TIP3   OH225212   2.965   2.023   6.161  0.4240  0.1430 -0.6402
 1266TIP3    H125213   3.021   2.002   6.236  0.0367 -0.4353 -0.5111
 1266TIP3    H225214   2.877   2.033   6.199  0.3575  0.6285 -0.9058
 1267TIP3   OH225215   0.630   3.448  16.816  0.2121 -0.4951 -0.2157
 1267TIP3    H125216   0.540   3.482  16.810  0.3831 -0.1048 -0.5750
 1267TIP3    H225217   0.623   3.375  16.878  0.0170  0.7969  1.3634
 1268TIP3   OH225218   1.412   2.562   1.658  0.7231  0.0986 -0.2899
 1268TIP3    H125219   1.362   2.639   1.684  0.9571  0.6821 -1.4862
 1268TIP3    H225220   1.388   2.495   1.721  0.7007  1.2160  0.9324
 1269TIP3   OH225221   3.871   1.073  13.693  0.1561  0.7464  0.2329
 1269TIP3    H125222   3.871   1.145  13.630  1.9750  1.1934  0.6882
 1269TIP3    H225223   3.830   1.110  13.772 -0.8250  0.6131 -0.1966
 1270TIP3   OH225224   0.327   4.343  13.946  0.1314  0.1264  0.4045
 1270TIP3    H125225   0.291   4.308  14.027 -3.3063 -2.8038 -2.0581
 1270TIP3    H225226   0.270   4.417  13.924 -0.2369 -0.3477 -0.2724
 1271TIP3   OH225227   3.849   2.489  13.064  0.1370  0.0683 -0.4057
 1271TIP3    H125228   3.798   2.559  13.024  0.6383  0.9369  0.4308
 1271TIP3    H225229   3.913   2.465  12.997 -0.7104 -0.3533 -1.0958
 1272TIP3   OH225230   3.375   3.469   1.069  0.4990  0.1966  0.6482
 1272TIP3    H125231   3.411   3.468   0.981 -0.6754  2.2161  0.0802
 1272TIP3    H225232   3.285   3.438   1.059  0.2902  0.6452  1.0896
 1273TIP3   OH225233   6.435   1.817  15.150  0.8867  0.0377  0.1015
 1273TIP3    H125234   6.468   1.768  15.225  0.9247 -0.6167 -0.3351
 1273TIP3    H225235   6.473   1.904  15.160 -2.5489  1.4320  3.2793
 1274TIP3   OH225236   1.987   4.848   0.645 -0.4462  0.0101  0.0471
 1274TIP3    H125237   1.998   4.899   0.565  0.9715  0.1834  0.3311
 1274TIP3    H225238   1.954   4.911   0.709  1.3045  0.6258  0.3991
 1275TIP3   OH225239   5.200   6.053  14.017 -0.2043  0.4709  0.4851
 1275TIP3    H125240   5.246   6.057  13.933  0.4073  0.1454  0.7935
 1275TIP3    H225241   5.129   5.990  14.002  1.7866 -2.1260  1.0432
 1276TIP3   OH225242   3.465   1.935   6.129 -0.0167 -0.1899  0.1433
 1276TIP3    H125243   3.428   1.848   6.139  0.3202 -0.2995  0.4535
 1276TIP3    H225244   3.484   1.963   6.219 -0.8860  0.5370  0.1184
 1277TIP3   OH225245   4.810   5.936  14.160  0.4641 -0.2558  0.1834
 1277TIP3    H125246   4.714   5.944  14.166  0.4355 -0.8304  0.4941
 1277TIP3    H225247   4.834   5.996  14.089 -0.2697 -1.0488 -0.7664
 1278TIP3   OH225248   4.786   2.149  12.702  0.2230  0.4315  0.0488
 1278TIP3    H125249   4.735   2.080  12.659  1.2396  0.6141 -1.5572
 1278TIP3    H225250   4.800   2.117  12.791  1.0187 -1.6601 -0.7682
 1279TIP3   OH225251   1.633   0.951  13.522 -0.4347 -0.5769  0.1978
 1279TIP3    H125252   1.667   0.863  13.532  0.9750 -0.1527 -0.5406
 1279TIP3    H225253   1.585   0.968  13.603 -0.0227 -1.7134  0.6986
 1280TIP3   OH225254   2.092   5.616  13.121 -0.1008 -0.1632 -0.2857
 1280TIP3    H125255   2.137   5.550  13.068  0.8115  0.4972 -0.3635
 1280TIP3    H225256   2.005   5.580  13.135 -0.1823 -0.6080 -1.7620
 1281TIP3   OH225257   2.835   6.001  16.939  0.4421  0.0399 -0.2744
 1281TIP3    H125258   2.928   5.988  16.925  0.1091 -1.3747 -1.4370
 1281TIP3    H225259   2.828   6.088  16.977  2.1674  0.4776 -0.8918
 1282TIP3   OH225260   4.642   5.790  16.953  0.3159 -0.6328 -0.6704
 1282TIP3    H125261   4.599   5.705  16.961 -1.3279  0.0874 -1.3718
 1282TIP3    H225262   4.702   5.794  17.027 -1.5113 -1.3190  0.9206
 1283TIP3   OH225263   0.131   5.660  13.424 -0.4710 -0.5771  0.1667
 1283TIP3    H125264   0.055   5.617  13.464 -0.0926 -1.6849 -0.2582
 1283TIP3    H225265   0.178   5.589  13.380  0.4483  0.2053 -0.1485
 1284TIP3   OH225266   4.117   1.831   3.693 -0.2251 -0.0019  0.5423
 1284TIP3    H125267   4.102   1.908   3.638  1.3379 -0.0666 -0.0293
 1284TIP3    H225268   4.076   1.759   3.645 -0.6614  0.2770  0.4906
 1285TIP3   OH225269   2.335   6.603  13.618 -0.2180 -0.2610 -0.2407
 1285TIP3    H125270   2.425   6.572  13.624  0.5667  1.9576  0.7164
 1285TIP3    H225271   2.295   6.578  13.701  0.2194  0.6761  0.2667
 1286TIP3   OH225272   2.819   3.426   2.025 -0.2027 -0.0182 -0.1558
 1286TIP3    H125273   2.749   3.402   2.085 -0.6982  1.5781 -0.0456
 1286TIP3    H225274   2.872   3.489   2.074 -0.2999  0.8930 -1.1918
 1287TIP3   OH225275   2.325   0.292  15.006 -0.1418  0.1135 -0.4634
 1287TIP3    H125276   2.338   0.371  15.059  0.5808  0.1633 -0.7091
 1287TIP3    H225277   2.333   0.322  14.916  0.0931 -0.2392 -0.5606
 1288TIP3   OH225278   2.931   3.950   5.776 -0.3166  0.2418 -0.0352
 1288TIP3    H125279   2.917   3.958   5.681  0.1046  1.4808 -0.0168
 1288TIP3    H225280   2.845   3.926   5.810 -1.0688  1.9972 -0.5341
 1289TIP3   OH225281   0.460   5.054   1.388 -0.4253 -0.4097  0.0969
 1289TIP3    H125282   0.515   4.992   1.341  0.5392  0.8248 -0.4670
 1289TIP3    H225283   0.452   5.018   1.476  1.5407 -0.4944  0.2810
 1290TIP3   OH225284   5.944   2.794  14.168  0.8106 -0.4560 -0.1160
 1290TIP3    H125285   6.008   2.723  14.182  2.6826  1.0874 -0.3952
 1290TIP3    H225286   5.968   2.831  14.083 -0.5901  0.0836 -0.2966
 1291TIP3   OH225287   1.154   1.415  13.616  0.5574 -0.2983  0.0851
 1291TIP3    H125288   1.107   1.442  13.696 -2.2141 -0.8772 -1.2325
 1291TIP3    H225289   1.149   1.492  13.559  1.3928 -0.3137 -0.0106
 1292TIP3   OH225290   1.465   4.587  10.783  0.2021 -0.1043 -1.0341
 1292TIP3    H125291   1.490   4.673  10.818 -0.3589 -1.1163  2.1524
 1292TIP3    H225292   1.537   4.529  10.809 -0.8676 -1.1664 -0.3069
 1293TIP3   OH225293   1.500   2.627  14.759 -0.0775  0.4851  0.3990
 1293TIP3    H125294   1.455   2.711  14.764  0.6163  0.8727  0.3620
 1293TIP3    H225295   1.435   2.562  14.784 -1.1817  0.8283 -1.4135
 1294TIP3   OH225296   2.894   2.688   4.304  0.2577 -0.3430  0.4174
 1294TIP3    H125297   2.799   2.686   4.295  0.4135 -0.4110 -1.8444
 1294TIP3    H225298   2.920   2.596   4.306  0.2855 -0.3266  1.2756
 1295TIP3   OH225299   3.444   3.387   4.076  0.7132 -0.2286 -0.1721
 1295TIP3    H125300   3.419   3.297   4.096  1.3640 -0.4889 -0.4941
 1295TIP3    H225301   3.540   3.384   4.068  0.5839 -0.0542 -2.6766
 1296TIP3   OH225302   5.877   3.382  15.911  0.3463  0.1883  0.6051
 1296TIP3    H125303   5.851   3.355  15.824 -0.5661 -0.3129  1.0226
 1296TIP3    H225304   5.916   3.304  15.950  0.9865  0.4824  0.5563
 1297TIP3   OH225305   5.835   1.759  16.460 -0.3778  0.0126 -0.2020
 1297TIP3    H125306   5.891   1.687  16.491  0.2956  0.9285  0.7654
 1297TIP3    H225307   5.877   1.788  16.380 -0.9917 -1.0398 -0.9378
 1298TIP3   OH225308   5.457   5.623  16.383  0.0634  0.1503 -0.3792
 1298TIP3    H125309   5.427   5.709  16.410 -1.1872 -0.0949 -0.9055
 1298TIP3    H225310   5.421   5.612  16.295 -0.1659 -1.0813 -0.1468
 1299TIP3   OH225311   6.077   5.443   4.533  0.3390 -0.1005 -0.5461
 1299TIP3    H125312   6.159   5.449   4.582  0.4325  1.6292 -0.8407
 1299TIP3    H225313   6.032   5.367   4.571  1.5388 -0.3621  0.4353
 1300TIP3   OH225314   6.143   4.362  16.195 -0.0745  0.0490 -0.0922
 1300TIP3    H125315   6.116   4.370  16.104 -0.0373  1.1556 -0.0153
 1300TIP3    H225316   6.235   4.389  16.195  0.2284 -0.9538  0.1059
 1301TIP3   OH225317   2.161   6.415   2.980  0.8606  0.2546 -0.0060
 1301TIP3    H125318   2.092   6.408   3.047 -0.7981  1.3781 -1.4962
 1301TIP3    H225319   2.197   6.503   2.992 -0.0616  0.8084 -1.0966
 1302TIP3   OH225320   2.472   2.829   4.433  0.1300  0.3823  0.2364
 1302TIP3    H125321   2.475   2.908   4.487 -0.8329 -0.0567  0.9521
 1302TIP3    H225322   2.439   2.761   4.491 -2.1681  0.1673 -1.2145
 1303TIP3   OH225323   6.080   5.458   2.191  0.0247 -0.2815 -0.3975
 1303TIP3    H125324   6.106   5.399   2.261 -1.3053 -0.6399 -0.1940
 1303TIP3    H225325   5.985   5.462   2.195 -0.0442  0.2457 -1.7376
 1304TIP3   OH225326   5.629   3.953  10.983  0.4837 -0.3265  0.3797
 1304TIP3    H125327   5.593   3.990  10.902  1.5170  2.0511  0.9237
 1304TIP3    H225328   5.552   3.928  11.034 -0.1947 -1.2208 -1.0286
 1305TIP3   OH225329   2.102   6.254   5.840 -0.7600 -0.3117 -0.0609
 1305TIP3    H125330   2.185   6.216   5.812 -1.5451 -1.2626 -1.2158
 1305TIP3    H225331   2.091   6.224   5.930  0.1009 -0.2448  0.0727
 1306TIP3   OH225332   3.437   3.968  13.074  0.3400  0.2767 -0.1342
 1306TIP3    H125333   3.507   3.993  13.133 -0.6028 -1.1043  1.6598
 1306TIP3    H225334   3.414   3.878  13.099 -1.4564  0.3550 -1.2479
 1307TIP3   OH225335   4.472   0.000  11.587 -0.2794  0.1937  0.4395
 1307TIP3    H125336   4.478   0.084  11.540 -1.7343 -0.2130 -0.5464
 1307TIP3    H225337   4.525  -0.060  11.534 -0.1530  0.2430  0.5124
 1308TIP3   OH225338   6.434   4.269  16.043  0.1889  0.1866 -0.3283
 1308TIP3    H125339   6.431   4.356  16.081 -1.4056  0.2545 -0.5295
 1308TIP3    H225340   6.507   4.226  16.086  1.1646  1.6869 -0.4053
 1309TIP3   OH225341   0.158   2.840   1.379  0.2835  0.2596 -0.3844
 1309TIP3    H125342   0.073   2.869   1.346 -0.4770 -2.3133 -0.9040
 1309TIP3    H225343   0.151   2.845   1.474 -0.2328  0.6305 -0.4430
 1310TIP3   OH225344   6.627   4.734   3.253 -0.6281 -0.0113  0.6009
 1310TIP3    H125345   6.605   4.754   3.162  0.3599 -0.5372  0.2304
 1310TIP3    H225346   6.584   4.650   3.270  0.3217 -0.5974  0.1650
 1311TIP3   OH225347   6.354   1.475  13.127 -0.0547  0.0590  0.0493
 1311TIP3    H125348   6.311   1.415  13.066 -1.1680 -0.9788  1.7667
 1311TIP3    H225349   6.285   1.501  13.188  1.1354  0.5867  1.2231
 1312TIP3   OH225350   0.379   4.128   0.213 -0.0288 -0.1345 -0.0936
 1312TIP3    H125351   0.296   4.137   0.167  0.5663 -1.0262 -1.4155
 1312TIP3    H225352   0.443   4.111   0.143  1.2186  0.2562  0.9143
 1313TIP3   OH225353   1.934   3.506   2.697  0.0559 -0.1486 -0.1700
 1313TIP3    H125354   1.852   3.553   2.683  1.1705  1.8693 -0.3354
 1313TIP3    H225355   1.907   3.417   2.719 -2.2107  0.7126  0.9090
 1314TIP3   OH225356   2.356   4.552   1.025 -0.3093 -0.5346 -0.2739
 1314TIP3    H125357   2.365   4.478   1.085 -1.8934  0.0601  0.7882
 1314TIP3    H225358   2.335   4.513   0.941  0.7019 -1.3415 -0.1729
 1315TIP3   OH225359   0.283   3.257  17.008  0.4882  0.0477  0.1363
 1315TIP3    H125360   0.240   3.183  16.965 -0.4092 -1.4843  3.3480
 1315TIP3    H225361   0.212   3.316  17.031  1.0748  1.3799 -1.3187
 1316TIP3   OH225362   1.082   4.772  15.445 -0.1091  0.2578  0.4498
 1316TIP3    H125363   1.065   4.699  15.504 -0.1692  1.1589  1.5755
 1316TIP3    H225364   1.091   4.731  15.359 -1.0365 -0.9756  0.9035
 1317TIP3   OH225365   4.818   0.057  14.858 -0.1667 -0.1899 -0.2070
 1317TIP3    H125366   4.863   0.072  14.942 -0.6191 -0.5306  0.0990
 1317TIP3    H225367   4.851   0.126  14.801  3.4036 -2.3520 -1.0787
 1318TIP3   OH225368   3.239   3.875   6.429  0.3950  0.3628 -0.1881
 1318TIP3    H125369   3.328   3.863   6.463  0.2672  1.3795  0.5754
 1318TIP3    H225370   3.250   3.939   6.359  0.4300 -0.4928 -0.9780
 1319TIP3   OH225371   6.098   3.476  13.208  0.2085  0.2505  0.0832
 1319TIP3    H125372   6.162   3.456  13.277  0.2066  2.2465  0.7281
 1319TIP3    H225373   6.138   3.443  13.128  1.1319 -0.3060  0.7440
 1320TIP3   OH225374   2.276   5.815   4.938 -0.0967 -0.4525  0.5289
 1320TIP3    H125375   2.320   5.816   4.853  0.3475  1.8103  0.7172
 1320TIP3    H225376   2.213   5.744   4.932 -0.8322  0.3222 -2.0973
 1321TIP3   OH225377   1.990   4.682   3.014  0.0925  0.1909 -0.2604
 1321TIP3    H125378   2.024   4.640   3.093 -0.3838 -2.2208 -1.2284
 1321TIP3    H225379   1.996   4.613   2.947 -0.3356  1.8762 -2.1099
 1322TIP3   OH225380   6.577   6.340  16.252 -0.2174 -0.3275 -0.4547
 1322TIP3    H125381   6.487   6.325  16.224  0.8026 -2.7403 -2.9253
 1322TIP3    H225382   6.628   6.335  16.171  2.3430 -1.1749  1.1064
 1323TIP3   OH225383   3.726   6.732   3.873  0.8667 -0.0507 -0.4047
 1323TIP3    H125384   3.717   6.821   3.837  0.5052  0.1422  0.1474
 1323TIP3    H225385   3.817   6.728   3.904  1.3565 -0.4110 -1.8180
 1324TIP3   OH225386   2.802   1.854   0.652 -0.1254 -0.4979 -0.2712
 1324TIP3    H125387   2.727   1.904   0.618  1.0563  0.8586 -1.0204
 1324TIP3    H225388   2.787   1.765   0.622 -1.1190 -0.1177 -0.9647
 1325TIP3   OH225389   2.692   1.826   5.646  0.5390  0.3675 -0.2831
 1325TIP3    H125390   2.740   1.895   5.599  2.3006 -1.0417 -0.6556
 1325TIP3    H225391   2.751   1.801   5.717 -0.6161  0.0717  0.5854
 1326TIP3   OH225392   4.682   0.837   4.795 -0.0385 -0.0292 -1.0603
 1326TIP3    H125393   4.645   0.768   4.740 -2.3899 -0.3866  0.8035
 1326TIP3    H225394   4.613   0.857   4.858  2.6133  0.0379  2.0948
 1327TIP3   OH225395   2.530   2.220   0.235  0.0522 -0.4171  0.5757
 1327TIP3    H125396   2.611   2.197   0.281  1.2596 -0.2197 -1.3537
 1327TIP3    H225397   2.479   2.139   0.234  1.5275 -1.3857 -0.7083
 1328TIP3   OH225398   2.311   0.563  11.928 -0.0628  0.3938  0.4080
 1328TIP3    H125399   2.393   0.564  11.879 -0.9576  3.7893 -1.2853
 1328TIP3    H225400   2.283   0.654  11.932 -2.6742 -0.3519  2.9074
 1329TIP3   OH225401   4.014   5.421  13.898 -0.1614  0.5554 -0.2976
 1329TIP3    H125402   4.109   5.424  13.888 -0.2914  0.1821 -2.0897
 1329TIP3    H225403   3.997   5.339  13.945  0.4289  1.1594  1.0254
 1330TIP3   OH225404   0.943   5.023   4.700 -0.8841 -0.4007  0.5431
 1330TIP3    H125405   0.863   4.997   4.745 -1.1712  0.8366  0.7734
 1330TIP3    H225406   0.923   5.109   4.664  0.5795  0.2300  1.2002
 1331TIP3   OH225407   0.554   4.085   4.962 -0.7294  0.1491 -0.4275
 1331TIP3    H125408   0.633   4.035   4.983 -0.3480  0.3901 -1.2692
 1331TIP3    H225409   0.584   4.176   4.955 -1.3458  0.4611  0.6715
 1332TIP3   OH225410   5.196   4.622   5.892 -0.4527  0.2928 -0.9482
 1332TIP3    H125411   5.133   4.561   5.929  0.7088 -0.2864  0.1566
 1332TIP3    H225412   5.210   4.687   5.961  0.7361 -0.0464 -0.8374
 1333TIP3   OH225413   0.991   0.515  11.244 -0.0139 -0.0344 -0.2908
 1333TIP3    H125414   0.986   0.420  11.252 -1.7557  0.0842  0.7082
 1333TIP3    H225415   0.941   0.535  11.165  0.9277  0.0444 -0.8905
 1334TIP3   OH225416   0.502   3.549   2.923 -0.5761 -0.3763 -0.1071
 1334TIP3    H125417   0.506   3.636   2.883  0.4970 -0.5179 -0.3383
 1334TIP3    H225418   0.585   3.541   2.972 -1.4142 -0.5971  1.3351
 1335TIP3   OH225419   1.115   5.618   1.129 -0.3724 -0.4834  0.1888
 1335TIP3    H125420   1.034   5.667   1.116  0.8778  1.1498 -2.1520
 1335TIP3    H225421   1.100   5.534   1.086 -1.3252 -0.8390  1.1706
 1336TIP3   OH225422   5.735   3.220  10.876 -0.3411  0.3119 -0.6367
 1336TIP3    H125423   5.645   3.240  10.850 -1.1693  1.1926  2.4726
 1336TIP3    H225424   5.788   3.243  10.800 -2.7135 -0.5812 -2.7137
 1337TIP3   OH225425   0.687   3.399   0.963  0.1272  0.0834 -0.2611
 1337TIP3    H125426   0.645   3.344   1.029 -0.0704 -0.7857 -1.0873
 1337TIP3    H225427   0.780   3.383   0.974  0.0650 -0.5524 -0.5895
 1338TIP3   OH225428   4.746   4.362  15.451  0.1753  0.8581 -0.3685
 1338TIP3    H125429   4.755   4.268  15.440  0.7702  1.0433 -1.6885
 1338TIP3    H225430   4.810   4.385  15.519  1.0384  0.4979 -1.0487
 1339TIP3   OH225431   1.720   5.347  12.046  0.0467  0.0517  0.1122
 1339TIP3    H125432   1.796   5.302  12.010  0.0123 -0.3398  0.5223
 1339TIP3    H225433   1.672   5.279  12.093 -0.6490  0.2638 -0.2900
 1340TIP3   OH225434   4.118   1.151   1.157 -0.2190  0.5434  0.0566
 1340TIP3    H125435   4.150   1.063   1.178  1.1329  0.2683 -2.6672
 1340TIP3    H225436   4.076   1.181   1.237 -0.8307 -2.6138  1.0639
 1341TIP3   OH225437   6.486   3.749   2.774 -0.1671  0.2880 -0.2738
 1341TIP3    H125438   6.506   3.755   2.867 -0.0259  2.7525 -0.3715
 1341TIP3    H225439   6.543   3.680   2.741 -1.5541 -1.9445  1.7316
 1342TIP3   OH225440   6.374   5.573  12.889 -0.2437  0.3161 -0.3155
 1342TIP3    H125441   6.299   5.607  12.937  0.6026  0.0944  1.2448
 1342TIP3    H225442   6.338   5.509  12.828 -1.2739 -0.2983  0.8915
 1343TIP3   OH225443   4.195   0.889   4.590  0.0860 -0.1156 -0.1719
 1343TIP3    H125444   4.189   0.885   4.494 -0.2649  1.5883 -0.2457
 1343TIP3    H225445   4.113   0.929   4.617  1.0879  1.4595  0.6592
 1344TIP3   OH225446   5.606   3.998  16.245  0.1528 -0.2413  0.2273
 1344TIP3    H125447   5.564   3.954  16.171  0.7555 -2.0814  0.9268
 1344TIP3    H225448   5.690   3.952  16.256  1.4080  1.9044  0.2459
 1345TIP3   OH225449   0.758   0.505  14.254 -0.2379  0.0245 -0.3888
 1345TIP3    H125450   0.846   0.542  14.255  0.3327 -1.1676  2.0724
 1345TIP3    H225451   0.727   0.519  14.164  2.5902  0.1301 -1.4650
 1346TIP3   OH225452   2.785   5.654  14.698  0.4581 -0.0952  0.6379
 1346TIP3    H125453   2.794   5.653  14.793 -0.4142 -2.1788  0.7474
 1346TIP3    H225454   2.696   5.684  14.682 -0.2343 -2.0105  0.6355
 1347TIP3   OH225455   4.343   5.712   4.393 -0.0494 -0.0678  0.2429
 1347TIP3    H125456   4.275   5.725   4.458  0.3881  0.3457  0.6261
 1347TIP3    H225457   4.313   5.762   4.317 -0.4248 -0.3207  0.2214
 1348TIP3   OH225458   0.376   1.057   2.035  0.2479 -0.2000  1.0444
 1348TIP3    H125459   0.423   1.094   2.110  1.4224  2.8887 -1.0054
 1348TIP3    H225460   0.442   1.005   1.989  0.4594  0.5453  0.4893
 1349TIP3   OH225461   4.793   5.472   6.492  0.0648 -0.9207  0.0877
 1349TIP3    H125462   4.708   5.513   6.508  0.7070  0.7233 -0.4031
 1349TIP3    H225463   4.810   5.419   6.570  0.1966  1.6475  1.9710
 1350TIP3   OH225464   1.986   5.318  13.461  0.1623  0.3014 -0.0415
 1350TIP3    H125465   1.928   5.329  13.386 -1.4349 -2.4718  0.6421
 1350TIP3    H225466   2.037   5.239  13.440 -0.2003 -0.4238  1.6941
 1351TIP3   OH225467   4.405   3.367  11.495  0.4510  0.7472 -0.0803
 1351TIP3    H125468   4.355   3.296  11.536  1.3945  0.7910  1.2435
 1351TIP3    H225469   4.360   3.446  11.522 -0.4295  0.6903 -1.3117
 1352TIP3   OH225470   2.107   4.785  15.102  0.6637 -0.2795  0.3847
 1352TIP3    H125471   2.041   4.849  15.130  0.1146 -0.7597  0.2094
 1352TIP3    H225472   2.161   4.833  15.038  1.4147  0.5684  1.6092
 1353TIP3   OH225473   5.484   1.837  15.226  0.5091 -0.7500 -0.5311
 1353TIP3    H125474   5.510   1.909  15.283 -1.0894  0.2553 -1.0063
 1353TIP3    H225475   5.390   1.826  15.241  0.6563 -2.5643 -0.6845
 1354TIP3   OH225476   0.237   6.743   0.485  0.3522 -0.1545 -0.3793
 1354TIP3    H125477   0.148   6.710   0.491  0.7780 -1.1803  0.9105
 1354TIP3    H225478   0.235   6.827   0.530 -0.2610  0.5844 -1.7162
 1355TIP3   OH225479   1.356   5.249   4.313  0.3288  0.2734  0.4359
 1355TIP3    H125480   1.320   5.217   4.395  1.3202  0.2491  0.8804
 1355TIP3    H225481   1.450   5.258   4.330  0.4904  0.6444 -0.5723
 1356TIP3   OH225482   6.517   3.566  15.123 -0.0347 -0.2373 -0.2347
 1356TIP3    H125483   6.517   3.658  15.151  0.6234  0.2145 -1.6153
 1356TIP3    H225484   6.594   3.528  15.165  0.7732  0.3555 -1.1300
 1357TIP3   OH225485   1.543   4.066   5.127 -0.5399  0.1865  0.0387
 1357TIP3    H125486   1.510   4.137   5.072 -0.7277  1.8889  2.2219
 1357TIP3    H225487   1.625   4.039   5.086 -1.0289  0.8501 -1.4486
 1358TIP3   OH225488   4.496   3.142  14.002  0.1437 -0.4639 -0.0870
 1358TIP3    H125489   4.432   3.138  14.073 -0.6205 -0.7324 -0.7767
 1358TIP3    H225490   4.524   3.051  13.991  0.1775 -0.4379 -0.2095
 1359TIP3   OH225491   3.960   0.781  14.751 -0.8570 -0.1753 -0.3507
 1359TIP3    H125492   3.900   0.819  14.686 -0.8186 -0.8527 -0.7909
 1359TIP3    H225493   4.027   0.737  14.699  0.7293  1.5546  0.1064
 1360TIP3   OH225494   2.616   2.678   0.411  0.0557 -0.3572  0.8651
 1360TIP3    H125495   2.648   2.743   0.348  0.0524 -0.5697  0.6446
 1360TIP3    H225496   2.605   2.598   0.360  2.3784 -1.2444  1.5867
 1361TIP3   OH225497   0.650   6.487  13.631  0.1714 -0.0207 -0.5374
 1361TIP3    H125498   0.702   6.411  13.658 -1.2054 -0.7237  0.2321
 1361TIP3    H225499   0.633   6.534  13.712 -2.6919 -1.3108 -0.2807
 1362TIP3   OH225500   0.354   0.506  11.390  0.4300 -0.3387 -0.3963
 1362TIP3    H125501   0.369   0.569  11.319 -0.6342 -0.7281 -0.9983
 1362TIP3    H225502   0.259   0.496  11.393  0.5312 -1.1724  0.3446
 1363TIP3   OH225503   3.611   1.330   1.097 -0.7623 -0.6422 -0.0732
 1363TIP3    H125504   3.553   1.391   1.053 -0.3303 -0.4848 -0.4311
 1363TIP3    H225505   3.642   1.378   1.174  0.3300 -0.0325 -0.8572
 1364TIP3   OH225506   0.127   1.482  12.835  0.3901 -0.0914  0.3533
 1364TIP3    H125507   0.183   1.479  12.758  1.3855 -0.5192  1.0701
 1364TIP3    H225508   0.060   1.546  12.813 -1.1274 -2.2774 -2.0238
 1365TIP3   OH225509   3.880   0.028   5.564 -0.4653 -0.1077 -0.4966
 1365TIP3    H125510   3.801   0.067   5.600 -2.8927 -3.1392 -2.1083
 1365TIP3    H225511   3.856   0.001   5.475  2.2916 -1.4027 -0.9586
 1366TIP3   OH225512   1.965   5.041   3.528  0.0380  0.3260  0.0994
 1366TIP3    H125513   1.946   4.966   3.471 -1.1646  0.3470  0.4411
 1366TIP3    H225514   2.012   5.102   3.472 -2.3438  0.9675 -1.3406
 1367TIP3   OH225515   5.609   2.421   0.627  0.1682 -0.2199 -0.2686
 1367TIP3    H125516   5.544   2.373   0.575  0.8752 -2.1988  0.5650
 1367TIP3    H225517   5.693   2.399   0.586  0.8116 -2.3664  1.9878
 1368TIP3   OH225518   4.526   1.044  16.324 -0.1434 -0.0631 -0.0474
 1368TIP3    H125519   4.497   1.071  16.237 -0.4191  0.0025  0.0609
 1368TIP3    H225520   4.534   0.949  16.319 -2.3076 -0.3431  0.4547
 1369TIP3   OH225521   1.492   2.227   3.892 -0.4761  0.0682 -0.5831
 1369TIP3    H125522   1.501   2.313   3.934  0.3725 -0.7821  1.0739
 1369TIP3    H225523   1.553   2.229   3.819  1.1357  0.1502  0.7225
 1370TIP3   OH225524   0.958   0.227  11.970 -0.6211  0.3731 -0.1355
 1370TIP3    H125525   0.936   0.319  11.981  1.3583  0.9138 -0.1941
 1370TIP3    H225526   0.996   0.201  12.053 -2.0060 -0.6971  0.2048
 1371TIP3   OH225527   6.558   2.709   6.425  0.0494  0.1368  0.1968
 1371TIP3    H125528   6.470   2.743   6.444  0.0373  0.9371 -1.1759
 1371TIP3    H225529   6.616   2.784   6.438  0.5456 -0.3566  0.9784
 1372TIP3   OH225530   1.750   4.707   0.679 -0.3231  0.1731  0.3308
 1372TIP3    H125531   1.822   4.755   0.638  1.4034 -2.0044  0.6707
 1372TIP3    H225532   1.757   4.619   0.643 -1.2170 -0.7666  2.3267
 1373TIP3   OH225533   3.411   1.250   5.318 -0.1420  0.4048  0.2616
 1373TIP3    H125534   3.317   1.244   5.300  0.0312  0.9309 -0.8735
 1373TIP3    H225535   3.417   1.243   5.414 -1.4171  1.3972  0.4459
 1374TIP3   OH225536   4.562   6.517  11.751 -0.4649 -0.2441  0.2190
 1374TIP3    H125537   4.588   6.492  11.662 -0.5039  1.1819 -0.2216
 1374TIP3    H225538   4.645   6.536  11.795 -0.3850 -1.7415  0.7684
 1375TIP3   OH225539   5.393   3.492  13.511 -0.0031  0.2621 -0.5710
 1375TIP3    H125540   5.361   3.486  13.601 -0.2460 -1.0019 -0.7182
 1375TIP3    H225541   5.473   3.439  13.510 -1.1003 -1.4867 -1.5352
 1376TIP3   OH225542   6.094   3.499  14.122  0.1188 -0.3805 -0.1099
 1376TIP3    H125543   6.016   3.466  14.076 -0.2728  1.5965 -0.9599
 1376TIP3    H225544   6.078   3.477  14.214  0.4469 -3.5118 -0.6819
 1377TIP3   OH225545   1.343   6.242  13.102  0.0119 -0.5791  0.0383
 1377TIP3    H125546   1.260   6.196  13.088  0.3349 -1.3594  0.6200
 1377TIP3    H225547   1.362   6.228  13.195 -1.5602  3.5257  1.1998
 1378TIP3   OH225548   0.504   3.951  14.897 -0.1019 -0.2527 -0.2005
 1378TIP3    H125549   0.542   3.885  14.838 -1.5975  0.7179 -2.4039
 1378TIP3    H225550   0.466   3.901  14.968  3.0793 -1.3952  0.8543
 1379TIP3   OH225551   0.717   5.931   5.267 -0.1643 -0.0789  0.0973
 1379TIP3    H125552   0.675   5.928   5.181  0.4592 -0.5358 -0.1942
 1379TIP3    H225553   0.664   5.993   5.317  0.0267  0.9292 -0.9173
 1380TIP3   OH225554   2.938   0.927  15.064  0.0900  0.0041 -0.1292
 1380TIP3    H125555   2.903   0.857  15.119 -2.0930  0.5827 -0.6875
 1380TIP3    H225556   3.033   0.922  15.076 -0.0063 -2.8261  0.0817
 1381TIP3   OH225557   3.190   2.616  13.389  0.0660  0.4497 -0.5276
 1381TIP3    H125558   3.268   2.669  13.373  1.4949 -1.6594 -0.8428
 1381TIP3    H225559   3.174   2.625  13.483  1.0302  0.4545 -0.3560
 1382TIP3   OH225560   4.215   1.239  13.854  0.3240  0.3063 -0.1856
 1382TIP3    H125561   4.273   1.283  13.916  1.1498 -0.0836 -0.6517
 1382TIP3    H225562   4.259   1.156  13.837 -0.6657 -0.2317 -0.1376
 1383TIP3   OH225563   6.044   4.175  10.494  0.4276  0.0786 -0.0309
 1383TIP3    H125564   6.058   4.260  10.535  0.0717  0.7827 -1.3025
 1383TIP3    H225565   6.119   4.164  10.436 -0.2506  0.2465 -0.9849
 1384TIP3   OH225566   5.349   2.413   2.065  0.3795  0.6696 -0.5459
 1384TIP3    H125567   5.439   2.402   2.095  0.3919  1.5182 -0.2374
 1384TIP3    H225568   5.325   2.328   2.029 -0.5026 -1.3202  4.0910
 1385TIP3   OH225569   5.929   1.560  16.604  0.0205 -0.0513  0.1645
 1385TIP3    H125570   6.016   1.549  16.644 -0.5396 -1.1262  1.1251
 1385TIP3    H225571   5.885   1.625  16.658  0.3854  0.8814 -0.6266
 1386TIP3   OH225572   2.666   3.013   0.259 -0.5137  0.1837  0.1405
 1386TIP3    H125573   2.651   3.028   0.352  0.9959 -0.9541  0.6198
 1386TIP3    H225574   2.758   3.034   0.246  0.4321 -3.4817 -0.1547
 1387TIP3   OH225575   5.428   6.766  14.286  0.3639 -0.4032  0.0850
 1387TIP3    H125576   5.421   6.850  14.333 -1.0113 -0.1889 -0.4567
 1387TIP3    H225577   5.378   6.705  14.340  2.3271 -1.1930  1.0937
 1388TIP3   OH225578   3.255   0.198   0.089  0.6667 -0.1360  0.7435
 1388TIP3    H125579   3.347   0.174   0.078  0.2495 -2.4209  1.6623
 1388TIP3    H225580   3.207   0.125   0.051 -0.8289  1.3382 -0.3549
 1389TIP3   OH225581   4.645   2.727   3.997  0.1174 -0.9090  0.0467
 1389TIP3    H125582   4.640   2.658   4.063 -1.1888 -0.2896  0.6415
 1389TIP3    H225583   4.715   2.699   3.937  0.4053 -2.1452  0.9297
 1390TIP3   OH225584   1.238   4.112   2.028 -0.3029 -0.1371 -0.2477
 1390TIP3    H125585   1.243   4.035   2.084 -0.9350 -0.4571 -0.6265
 1390TIP3    H225586   1.329   4.131   2.006 -0.0771 -0.2178  0.5967
 1391TIP3   OH225587   2.069   4.587   1.795 -0.7556 -0.0303 -0.2207
 1391TIP3    H125588   2.039   4.499   1.817  0.0177 -0.3515 -0.4237
 1391TIP3    H225589   2.084   4.629   1.879 -1.4782  0.0428 -0.1184
 1392TIP3   OH225590   6.113   5.297  10.432  0.1859  0.0602 -0.9539
 1392TIP3    H125591   6.148   5.345  10.358  0.0459  0.0536 -1.0246
 1392TIP3    H225592   6.081   5.215  10.395  0.9099 -0.3256 -0.7524
 1393TIP3   OH225593   4.812   0.468  14.804  0.3653 -0.2268 -0.1280
 1393TIP3    H125594   4.841   0.515  14.726 -0.2171 -0.5584 -0.5549
 1393TIP3    H225595   4.891   0.458  14.857  0.9647 -0.8275 -1.1170
 1394TIP3   OH225596   4.910   2.966   6.239 -0.4919 -0.0554 -0.2652
 1394TIP3    H125597   4.932   2.892   6.182 -0.2768 -0.2443  0.0624
 1394TIP3    H225598   4.993   3.011   6.254 -0.6456  0.3439 -0.5856
 1395TIP3   OH225599   3.023   4.156  11.005  0.1700  0.0321  0.4017
 1395TIP3    H125600   3.069   4.188  10.927 -1.0309 -0.6944 -0.6327
 1395TIP3    H225601   3.003   4.065  10.985  1.4023 -0.7186  2.3188
 1396TIP3   OH225602   2.333   2.600   5.365 -0.0863  0.6053  0.2842
 1396TIP3    H125603   2.247   2.620   5.403  0.2959  0.9624  0.9899
 1396TIP3    H225604   2.328   2.508   5.341 -0.3764  0.3916  1.1292
 1397TIP3   OH225605   0.769   6.284   3.287 -0.5451  0.2643  0.3774
 1397TIP3    H125606   0.709   6.307   3.358 -1.0011  0.1784  0.0216
 1397TIP3    H225607   0.752   6.192   3.269  0.9294 -0.2589  1.4551
 1398TIP3   OH225608   2.546   5.881   5.936  0.0790  0.0206  0.0929
 1398TIP3    H125609   2.488   5.948   5.972  0.1515  0.3201 -0.3473
 1398TIP3    H225610   2.513   5.799   5.974 -0.1806  0.2673  0.4145
 1399TIP3   OH225611   5.594   6.477  12.081 -0.3039  0.1596  1.0061
 1399TIP3    H125612   5.554   6.396  12.114 -1.5546 -0.7564 -2.3809
 1399TIP3    H225613   5.671   6.448  12.034 -0.0784  1.0997  0.7891
 1400TIP3   OH225614   3.950   5.469   0.310 -0.3795  0.3516 -0.1966
 1400TIP3    H125615   3.863   5.475   0.272  0.3321  0.2526 -1.9519
 1400TIP3    H225616   3.993   5.551   0.286 -0.5813  1.3001  2.3689
 1401TIP3   OH225617   5.253   5.674   4.324 -0.1819 -0.1117 -0.2611
 1401TIP3    H125618   5.299   5.591   4.309 -0.7631 -0.1637 -2.1219
 1401TIP3    H225619   5.298   5.736   4.267 -1.0375  0.3444 -0.4580
 1402TIP3   OH225620   1.031   5.651   5.590  0.2796  0.1590 -0.5769
 1402TIP3    H125621   0.978   5.712   5.540 -1.3984 -1.1235 -0.4788
 1402TIP3    H225622   1.034   5.572   5.536  0.6386 -0.3725  0.1954
 1403TIP3   OH225623   5.989   5.155  12.133 -0.6194 -0.2287  0.4337
 1403TIP3    H125624   5.902   5.166  12.093  0.2641  0.4710 -1.4112
 1403TIP3    H225625   6.023   5.075  12.093 -0.6830 -0.9419  1.7480
 1404TIP3   OH225626   3.200   4.819   3.798  0.2312  0.3006  0.4944
 1404TIP3    H125627   3.240   4.905   3.805  2.6100 -0.5032 -1.8884
 1404TIP3    H225628   3.131   4.829   3.732 -0.5858  0.6798  1.3778
 1405TIP3   OH225629   6.452   3.682   5.204  0.2812  0.1777  0.5642
 1405TIP3    H125630   6.515   3.666   5.274 -0.8510 -1.8176  1.1873
 1405TIP3    H225631   6.462   3.608   5.144 -0.4664  0.5839 -0.0865
 1406TIP3   OH225632   6.284   4.167  14.724 -0.1845  0.3199 -0.1143
 1406TIP3    H125633   6.259   4.252  14.760 -0.9801  0.4286 -0.8827
 1406TIP3    H225634   6.206   4.136  14.679  0.1753 -0.7133 -0.0495
 1407TIP3   OH225635   5.391   2.111  15.064  0.0728 -0.1791  0.1240
 1407TIP3    H125636   5.468   2.054  15.067 -0.4210 -0.8097  1.2409
 1407TIP3    H225637   5.419   2.192  15.107  0.5706  0.2092 -0.8773
 1408TIP3   OH225638   0.416   0.924  11.093  0.7853 -0.1415 -0.1514
 1408TIP3    H125639   0.327   0.908  11.063  0.9813  0.0403 -0.8582
 1408TIP3    H225640   0.433   1.015  11.071  1.5219 -0.4746 -1.0298
 1409TIP3   OH225641   0.397   2.924   0.267 -0.6370 -0.4151 -1.1996
 1409TIP3    H125642   0.321   2.881   0.229 -1.9583  0.0002  0.8219
 1409TIP3    H225643   0.455   2.852   0.292 -2.2446 -1.0751  0.9567
 1410TIP3   OH225644   6.619   4.577  12.208  0.8042 -0.1705 -0.3056
 1410TIP3    H125645   6.591   4.486  12.202  0.9889 -0.3391  1.2243
 1410TIP3    H225646   6.706   4.574  12.246  1.2251  0.6083 -1.1556
 1411TIP3   OH225647   2.977   5.321  11.163  0.6657 -0.2637 -0.0059
 1411TIP3    H125648   2.916   5.248  11.172  0.1951  0.3339  2.3669
 1411TIP3    H225649   2.943   5.371  11.088 -0.5271 -1.0757 -0.0411
 1412TIP3   OH225650   6.540   0.421   4.841  0.1057 -0.4293 -0.3956
 1412TIP3    H125651   6.609   0.454   4.784  0.4288 -0.1243  0.1635
 1412TIP3    H225652   6.551   0.326   4.838  2.5479 -0.3641  2.0284
 1413TIP3   OH225653   4.771   1.298   6.426  0.4095 -0.2026  0.1288
 1413TIP3    H125654   4.683   1.273   6.456  0.0729  0.2367 -0.4585
 1413TIP3    H225655   4.797   1.370   6.483 -0.2686  0.6969 -0.6617
 1414TIP3   OH225656   6.453   0.991  14.838  0.0753  0.1086  0.1044
 1414TIP3    H125657   6.404   1.072  14.851 -0.6657 -0.7351  3.7406
 1414TIP3    H225658   6.537   1.006  14.881  1.8354  0.3509 -3.1109
 1415TIP3   OH225659   3.925   3.647   0.804 -0.1745 -0.5195 -0.0924
 1415TIP3    H125660   3.933   3.584   0.876  0.1646 -0.6920 -0.2821
 1415TIP3    H225661   3.935   3.595   0.725  1.5477 -0.0259 -0.2276
 1416TIP3   OH225662   3.581   4.666   2.247 -0.3201 -0.3872 -0.7149
 1416TIP3    H125663   3.580   4.583   2.200 -0.7706  0.1099 -1.6143
 1416TIP3    H225664   3.619   4.645   2.333  2.3886 -0.9682 -1.9627
 1417TIP3   OH225665   6.743   4.283   4.675 -0.7025 -0.4914 -0.3977
 1417TIP3    H125666   6.667   4.331   4.641 -0.3324 -0.7044 -1.5797
 1417TIP3    H225667   6.811   4.299   4.610  0.4798  0.2205  0.9680
 1418TIP3   OH225668   0.480   5.877  14.320  0.4379 -0.2292 -0.8946
 1418TIP3    H125669   0.575   5.881  14.326  0.4377  0.6535 -1.3254
 1418TIP3    H225670   0.458   5.789  14.349  1.2235  0.1981  1.2373
 1419TIP3   OH225671   6.344   0.653   1.571  0.7018  0.0874 -0.4618
 1419TIP3    H125672   6.311   0.727   1.520 -0.9742 -0.3118  0.0117
 1419TIP3    H225673   6.419   0.621   1.520  0.6256  1.2566 -1.3622
 1420TIP3   OH225674   6.384   1.077   5.454  0.1164 -0.5226  0.1525
 1420TIP3    H125675   6.398   1.133   5.530 -0.2732 -0.3535  0.1028
 1420TIP3    H225676   6.293   1.049   5.461 -0.1150 -0.0099 -0.5775
 1421TIP3   OH225677   1.584   2.626  12.776 -0.2469  0.1852 -0.3067
 1421TIP3    H125678   1.670   2.650  12.742 -0.3234 -0.6978 -1.1829
 1421TIP3    H225679   1.602   2.593  12.864  0.2606  0.3351 -0.3477
 1422TIP3   OH225680   4.046   5.616  17.068  0.1615  0.4677  0.0723
 1422TIP3    H125681   4.123   5.601  17.013 -0.1628 -0.8644 -0.0570
 1422TIP3    H225682   4.060   5.702  17.107  1.1403  0.7582 -0.8844
 1423TIP3   OH225683   2.993   3.407  16.523  0.4598  0.1393 -0.2689
 1423TIP3    H125684   2.943   3.488  16.534  0.5733 -0.0660  2.2842
 1423TIP3    H225685   3.084   3.434  16.530  0.7606  0.2883 -3.4249
 1424TIP3   OH225686   2.509   0.364   4.737 -0.1737  0.2059  0.4815
 1424TIP3    H125687   2.572   0.293   4.719 -0.6893 -0.4232  1.1070
 1424TIP3    H225688   2.553   0.418   4.802 -0.0423  0.0891  0.4912
 1425TIP3   OH225689   2.094   3.971  14.327  0.2946 -0.3524  0.3090
 1425TIP3    H125690   2.083   3.941  14.417 -0.7185 -0.5195  0.1518
 1425TIP3    H225691   2.058   3.899  14.274 -0.0980  0.1899 -0.1725
 1426TIP3   OH225692   4.382   4.551  11.358 -0.1083 -0.6157 -0.2137
 1426TIP3    H125693   4.425   4.466  11.369  0.0376 -0.4128  0.8781
 1426TIP3    H225694   4.394   4.595  11.442 -0.2094  0.4799 -0.7601
 1427TIP3   OH225695   3.359   0.872   2.453  0.4913  0.7758 -0.5082
 1427TIP3    H125696   3.278   0.918   2.475 -0.3946 -1.0516  0.3145
 1427TIP3    H225697   3.330   0.790   2.413  1.8235 -0.6814  1.3334
 1428TIP3   OH225698   2.443   0.852  11.447 -0.5492  0.3257 -0.1166
 1428TIP3    H125699   2.395   0.786  11.495 -0.2327  0.6768  0.6975
 1428TIP3    H225700   2.376   0.901  11.398 -0.7850 -0.5398 -0.6759
 1429TIP3   OH225701   0.571   0.465   5.045 -0.0402  0.2612  0.4019
 1429TIP3    H125702   0.630   0.389   5.038 -0.6515 -0.3919  2.0339
 1429TIP3    H225703   0.602   0.512   5.122 -0.6577  0.8213  0.3115
 1430TIP3   OH225704   3.828   6.706  13.129 -0.5282 -0.2346 -0.1374
 1430TIP3    H125705   3.910   6.716  13.178 -0.7207  0.9765 -0.0267
 1430TIP3    H225706   3.840   6.625  13.079  0.4168 -0.4962  0.4738
 1431TIP3   OH225707   0.464   0.405  12.522 -0.0485 -1.2255 -0.4029
 1431TIP3    H125708   0.493   0.445  12.441  0.6939 -0.7765  0.0689
 1431TIP3    H225709   0.431   0.477  12.575  2.4179 -0.9443  0.9366
 1432TIP3   OH225710   6.000   0.026  17.158  0.0094 -0.2936 -0.1993
 1432TIP3    H125711   6.011   0.059  17.246  2.6985 -1.5719  0.0468
 1432TIP3    H225712   6.035   0.094  17.101  0.2830 -0.3742 -0.1246
 1433TIP3   OH225713   5.406   6.409  15.568  0.0033 -0.2939 -0.3565
 1433TIP3    H125714   5.334   6.443  15.515  0.1379  0.2560 -0.1907
 1433TIP3    H225715   5.479   6.469  15.551  0.5305 -1.0398 -0.7929
 1434TIP3   OH225716   1.897   0.391  14.566 -0.3576  0.2639 -0.2435
 1434TIP3    H125717   1.900   0.399  14.470 -2.1382  1.4409 -0.2605
 1434TIP3    H225718   1.983   0.420  14.595 -0.2949  1.3936 -1.4404
 1435TIP3   OH225719   3.395   1.261   0.019 -0.2957  0.0761 -0.4131
 1435TIP3    H125720   3.438   1.218  -0.055 -0.4638  0.1921 -0.5799
 1435TIP3    H225721   3.423   1.211   0.096 -0.9180 -0.6680 -0.6552
 1436TIP3   OH225722   2.161   1.545  13.505 -0.4087 -0.4280  0.6311
 1436TIP3    H125723   2.179   1.619  13.447  1.0382 -0.7240  0.6660
 1436TIP3    H225724   2.248   1.513  13.531 -1.0099 -1.8363  1.0101
 1437TIP3   OH225725   6.194   2.399  12.415  0.0441 -0.5334  0.7254
 1437TIP3    H125726   6.154   2.416  12.330 -0.0966 -2.5178  0.3307
 1437TIP3    H225727   6.138   2.443  12.478 -0.2137  0.4347 -0.1576
 1438TIP3   OH225728   5.956   0.916   4.221  0.5776  0.4785 -0.2534
 1438TIP3    H125729   5.993   0.827   4.224  0.2295  0.2594 -1.7858
 1438TIP3    H225730   5.883   0.913   4.282  0.2548 -0.4485 -0.6644
 1439TIP3   OH225731   4.962   4.832   1.060  0.3373  0.2694 -0.0507
 1439TIP3    H125732   4.997   4.743   1.059 -1.3105 -0.4386  0.6897
 1439TIP3    H225733   4.916   4.840   0.977 -0.7805 -0.1525  0.4998
 1440TIP3   OH225734   6.062   6.091  14.037  0.1375  0.5493  0.0904
 1440TIP3    H125735   6.091   6.003  14.013 -2.0320  0.5424 -3.0724
 1440TIP3    H225736   6.010   6.079  14.117  0.9304 -0.7793  0.4429
 1441TIP3   OH225737   1.326   1.529   5.339  0.2754 -0.1266 -0.7133
 1441TIP3    H125738   1.296   1.486   5.259  0.4802  0.8172 -1.3096
 1441TIP3    H225739   1.319   1.623   5.321 -0.7434  0.1230  0.7763
 1442TIP3   OH225740   0.017   3.125   0.368 -0.2728  0.0424 -0.2745
 1442TIP3    H125741  -0.020   3.039   0.387 -0.4247 -0.0180 -0.8166
 1442TIP3    H225742  -0.056   3.176   0.333 -0.0153  0.1534 -0.6602
 1443TIP3   OH225743   2.878   1.461   1.473  0.1800 -0.5596  0.1404
 1443TIP3    H125744   2.935   1.418   1.537  0.4860 -0.2531  0.0748
 1443TIP3    H225745   2.812   1.395   1.452  0.7443 -1.0513 -0.0833
 1444TIP3   OH225746   0.015   2.259   4.665 -0.0419  0.5097  0.3776
 1444TIP3    H125747   0.059   2.281   4.747  0.3005  0.7558  0.1306
 1444TIP3    H225748  -0.005   2.344   4.625  1.0784  0.4024 -0.4746
 1445TIP3   OH225749   5.942   1.135  11.793 -0.0256  0.7525  0.5334
 1445TIP3    H125750   5.925   1.128  11.700 -0.7965  0.0051  0.7210
 1445TIP3    H225751   5.894   1.214  11.820 -1.1709  0.0481  0.5949
 1446TIP3   OH225752   5.120   2.390   6.652  0.5310  1.1520 -0.0230
 1446TIP3    H125753   5.080   2.397   6.565  2.7426  0.7173 -1.1365
 1446TIP3    H225754   5.152   2.478   6.671  0.0717  1.2412  0.3658
 1447TIP3   OH225755   1.650   6.165   0.399 -0.3953  0.4005  0.0864
 1447TIP3    H125756   1.732   6.119   0.418 -0.8609 -0.4697  0.0302
 1447TIP3    H225757   1.666   6.208   0.315  0.3065  0.9778  0.5087
 1448TIP3   OH225758   6.481   0.583   6.054  0.2361 -0.0371  0.1777
 1448TIP3    H125759   6.398   0.590   6.102 -0.5993 -0.7079 -1.0989
 1448TIP3    H225760   6.465   0.512   5.991  0.9089  1.4842 -1.8055
 1449TIP3   OH225761   3.705   1.333  15.703  0.0341  0.0630 -0.0173
 1449TIP3    H125762   3.681   1.256  15.652  1.1091 -0.3357  0.0581
 1449TIP3    H225763   3.679   1.313  15.793  1.5738 -0.8265  0.2690
 1450TIP3   OH225764   4.303   2.204   6.302 -0.0647 -0.4706  0.1835
 1450TIP3    H125765   4.261   2.224   6.386 -0.9485 -0.2986 -0.2890
 1450TIP3    H225766   4.356   2.126   6.319 -0.2025 -0.4089  0.9107
 1451TIP3   OH225767   0.043   4.629   2.024 -0.1030 -0.4040  0.0592
 1451TIP3    H125768   0.125   4.614   2.070 -0.4399 -0.5987  0.6043
 1451TIP3    H225769  -0.024   4.624   2.092 -0.3902  2.0420  0.0482
 1452TIP3   OH225770   3.278   2.950  11.166  0.0886 -0.2258 -0.1894
 1452TIP3    H125771   3.207   3.014  11.174  0.5543  0.4380 -1.1512
 1452TIP3    H225772   3.270   2.916  11.077  0.0775 -1.2571  0.1841
 1453TIP3   OH225773   1.330   1.007  11.729 -0.2505 -0.6665 -0.5405
 1453TIP3    H125774   1.417   0.980  11.700 -0.0889 -0.1433 -0.5526
 1453TIP3    H225775   1.279   0.926  11.731  0.1954 -0.9535 -0.6745
 1454TIP3   OH225776   6.605   2.389  11.718  0.1295  0.1223 -0.2006
 1454TIP3    H125777   6.561   2.393  11.803  2.0616 -0.0096  0.8842
 1454TIP3    H225778   6.545   2.431  11.657 -0.8355  1.2664  1.4588
 1455TIP3   OH225779   3.466   1.150   6.557  0.3336 -0.6405  0.1364
 1455TIP3    H125780   3.539   1.109   6.512 -0.3594 -0.6904 -0.9980
 1455TIP3    H225781   3.453   1.098   6.636  0.6525 -1.4643 -0.3512
 1456TIP3   OH225782   0.001   6.676   3.256  0.1761 -0.4708 -0.9396
 1456TIP3    H125783  -0.003   6.726   3.175 -0.0229  0.4876 -0.3666
 1456TIP3    H225784  -0.053   6.727   3.317 -0.4929 -1.6984 -0.4875
 1457TIP3   OH225785   1.561   2.087  11.885  0.1453 -0.0583 -0.0307
 1457TIP3    H125786   1.482   2.060  11.932 -0.7074  0.8309 -0.9096
 1457TIP3    H225787   1.532   2.096  11.794  0.4974  3.1145  0.0746
 1458TIP3   OH225788   5.737   5.125  12.040 -0.4759  0.3463 -0.4421
 1458TIP3    H125789   5.723   5.138  11.946  1.3094 -0.0277 -0.8061
 1458TIP3    H225790   5.747   5.030  12.049  0.0426  0.4397  0.0154
 1459TIP3   OH225791   1.478   0.550   5.649 -0.0559  0.1989 -0.8048
 1459TIP3    H125792   1.454   0.486   5.716  1.5804  0.0442 -0.3364
 1459TIP3    H225793   1.407   0.545   5.585 -1.5441  0.1768  0.7795
 1460TIP3   OH225794   0.502   1.778   0.549 -0.0028  0.3296 -0.7839
 1460TIP3    H125795   0.529   1.865   0.581  0.8864  0.0192 -0.6614
 1460TIP3    H225796   0.584   1.733   0.530 -0.4088 -0.8020 -0.0024
 1461TIP3   OH225797   1.028   3.053   3.034 -0.0612 -0.3293  0.1905
 1461TIP3    H125798   1.021   2.964   3.071  1.5859 -2.0175 -3.1048
 1461TIP3    H225799   1.122   3.064   3.017 -0.4076  1.5313 -0.6640
 1462TIP3   OH225800   0.299   6.095   2.019 -0.3442 -0.6921 -0.0376
 1462TIP3    H125801   0.279   6.023   2.079  1.0457  0.9070  2.5443
 1462TIP3    H225802   0.361   6.150   2.068 -0.6503  1.7795 -2.2292
 1463TIP3   OH225803   6.046   0.475   1.616  0.2230 -0.0003 -0.4116
 1463TIP3    H125804   5.956   0.444   1.620  1.0479 -2.6471 -0.3480
 1463TIP3    H225805   6.067   0.479   1.523  0.6364 -1.4773 -0.4113
 1464TIP3   OH225806   4.320   5.344  12.204 -0.3160  0.4872  0.2228
 1464TIP3    H125807   4.407   5.307  12.218 -1.0286 -1.0658  0.8473
 1464TIP3    H225808   4.335   5.428  12.161  1.4987  0.4627  0.7567
 1465TIP3   OH225809   2.734   1.072  13.038 -0.7192 -0.0299 -0.6574
 1465TIP3    H125810   2.787   1.009  13.085 -0.8353  0.1607 -0.2690
 1465TIP3    H225811   2.794   1.112  12.975 -1.0385 -1.7746 -2.1694
 1466TIP3   OH225812   3.830   0.329  12.138 -0.7106 -0.4814 -0.1918
 1466TIP3    H125813   3.924   0.312  12.140 -0.6749 -0.4456 -0.9910
 1466TIP3    H225814   3.824   0.424  12.121 -0.9046  0.1350  2.8336
 1467TIP3   OH225815   6.322   3.087   5.318 -0.0505 -0.2798 -0.1383
 1467TIP3    H125816   6.294   3.016   5.377 -1.2084  0.7569  0.6077
 1467TIP3    H225817   6.285   3.166   5.357 -0.3680  0.5204 -1.9628
 1468TIP3   OH225818   6.159   4.936  12.095 -0.3914  0.3316 -0.5274
 1468TIP3    H125819   6.170   4.945  12.190 -0.6950 -0.2321 -0.4364
 1468TIP3    H225820   6.215   4.863  12.071 -0.5603  0.2702 -0.7342
 1469TIP3   OH225821   2.559   2.691  13.681  0.2032 -0.4982  0.1467
 1469TIP3    H125822   2.616   2.686  13.758  0.6264 -2.0848 -0.2242
 1469TIP3    H225823   2.619   2.707  13.608 -0.2274  1.3052  0.1480
 1470TIP3   OH225824   5.168   5.025  11.810 -0.1897 -0.2779 -0.2244
 1470TIP3    H125825   5.257   5.060  11.813 -0.1209 -0.4692  0.0662
 1470TIP3    H225826   5.127   5.068  11.735 -0.2933  0.8497  0.4604
 1471TIP3   OH225827   4.550   3.765   4.837 -0.4906 -0.9970 -0.3544
 1471TIP3    H125828   4.465   3.763   4.882 -0.5626 -3.3723 -0.4774
 1471TIP3    H225829   4.527   3.774   4.744 -0.5378 -0.2671 -0.2738
 1472TIP3   OH225830   2.849   1.658   5.228 -0.1082 -0.3441  0.0029
 1472TIP3    H125831   2.856   1.612   5.312  0.3322 -0.3155 -0.0151
 1472TIP3    H225832   2.937   1.689   5.211 -0.2939  0.0519 -0.2466
 1473TIP3   OH225833   1.209   5.069   4.636 -0.5434 -0.6072 -0.9705
 1473TIP3    H125834   1.127   5.026   4.659 -0.0943 -0.4939  1.0360
 1473TIP3    H225835   1.263   5.060   4.714  0.8218  0.6138 -1.7319
 1474TIP3   OH225836   5.355   4.154   0.971 -0.4325 -0.0870 -0.0275
 1474TIP3    H125837   5.281   4.143   1.031 -1.4099  1.7883 -0.8030
 1474TIP3    H225838   5.432   4.130   1.022 -1.3640  0.0825  1.5037
 1475TIP3   OH225839   5.907   2.372   1.427 -0.3505  0.1713  0.3162
 1475TIP3    H125840   5.869   2.333   1.505 -0.4345 -0.3762  0.0021
 1475TIP3    H225841   5.903   2.466   1.443 -0.7094  0.0744  0.8093
 1476TIP3   OH225842   1.439   6.184   5.489 -0.3893  0.1629 -0.2049
 1476TIP3    H125843   1.449   6.248   5.559 -0.1663  0.2842 -0.3459
 1476TIP3    H225844   1.358   6.209   5.444 -0.9984 -0.4261  0.5319
 1477TIP3   OH225845   2.922   5.045  11.486 -0.2722  0.0727  0.2641
 1477TIP3    H125846   2.928   4.994  11.567  0.1707  0.9910  0.8278
 1477TIP3    H225847   2.961   4.988  11.419 -0.7831 -0.7561  0.6516
 1478TIP3   OH225848   0.702   5.284   1.165 -0.4795 -0.1035 -0.1619
 1478TIP3    H125849   0.716   5.190   1.154 -0.8835 -0.2212  0.2843
 1478TIP3    H225850   0.706   5.320   1.076  1.3075 -0.2935 -0.1924
 1479TIP3   OH225851   4.051   4.359   4.841  0.0949  0.0595 -0.0023
 1479TIP3    H125852   4.052   4.454   4.827  0.1247  0.1430  0.5564
 1479TIP3    H225853   4.063   4.322   4.754 -0.8395  0.5560 -0.3552
 1480TIP3   OH225854   5.082   3.036  11.718 -0.0794 -0.3667  0.2059
 1480TIP3    H125855   4.999   3.083  11.724 -0.3017 -0.6918 -0.3312
 1480TIP3    H225856   5.140   3.083  11.779 -0.8244 -0.5211  1.0517
 1481TIP3   OH225857   3.458   2.684   6.212 -0.5131  0.3776  0.2616
 1481TIP3    H125858   3.444   2.772   6.246  0.0814  0.0611  1.3758
 1481TIP3    H225859   3.553   2.676   6.204 -0.4195 -0.8079  2.0328
 1482TIP3   OH225860   0.818   6.057  11.049 -0.4103  0.2522 -0.0980
 1482TIP3    H125861   0.816   6.120  11.121  0.3048  0.4397 -0.2368
 1482TIP3    H225862   0.855   6.106  10.975 -0.6259 -0.0956 -0.4428
 1483TIP3   OH225863   1.695   4.959  16.099 -0.4863 -0.1079  0.9712
 1483TIP3    H125864   1.622   4.898  16.093 -0.3135 -0.2429  0.1666
 1483TIP3    H225865   1.674   5.013  16.175 -1.1581 -0.4888  1.0688
 1484TIP3   OH225866   4.449   6.136   1.471 -0.0731  0.5977  0.4066
 1484TIP3    H125867   4.478   6.107   1.385  1.3457  0.2314  0.9799
 1484TIP3    H225868   4.355   6.117   1.472 -0.3684  1.7413 -1.4804
 1485TIP3   OH225869   6.700   1.822  14.250  0.2691 -0.3900 -0.2347
 1485TIP3    H125870   6.743   1.790  14.330 -1.4855  0.5088  1.1528
 1485TIP3    H225871   6.608   1.796  14.260 -0.1031  0.2730 -1.6845
 1486TIP3   OH225872   3.939   2.451   0.014 -0.5292 -0.8137 -0.3203
 1486TIP3    H125873   3.891   2.448  -0.069 -0.7137 -1.8263 -0.1863
 1486TIP3    H225874   3.970   2.362   0.028  2.4931  0.0062 -1.0006
 1487TIP3   OH225875   3.107   0.243  16.918 -0.4668 -0.1414  0.5017
 1487TIP3    H125876   3.198   0.239  16.888 -1.1120 -2.2947 -1.5581
 1487TIP3    H225877   3.105   0.185  16.995 -0.0744  0.0037  0.6246
 1488TIP3   OH225878   4.025   2.909  13.588 -0.5593  0.8380 -0.3981
 1488TIP3    H125879   3.969   2.887  13.662 -1.1250  2.6624 -0.2480
 1488TIP3    H225880   3.974   2.972  13.537  1.1923  2.3020 -0.4364
 1489TIP3   OH225881   3.758   1.392  13.167 -0.1257 -0.0284  0.1611
 1489TIP3    H125882   3.821   1.347  13.110 -0.6656 -1.5472  0.6972
 1489TIP3    H225883   3.673   1.376  13.124 -0.2254  1.5103 -0.2566
 1490TIP3   OH225884   2.049   3.564  12.708  0.1774  0.5774 -0.5987
 1490TIP3    H125885   2.125   3.590  12.761 -0.4829  0.7401  0.2941
 1490TIP3    H225886   2.016   3.485  12.751  0.6433 -0.2869 -1.7909
 1491TIP3   OH225887   5.651   5.981   4.680  0.3140 -0.1813 -1.1566
 1491TIP3    H125888   5.566   5.973   4.637  0.2295  0.8012 -1.1852
 1491TIP3    H225889   5.632   6.016   4.767  0.7689  1.2433 -1.5989
 1492TIP3   OH225890   6.156   0.340  12.719  0.0791 -0.0760  0.0322
 1492TIP3    H125891   6.197   0.427  12.720  1.5408 -0.7437 -0.5728
 1492TIP3    H225892   6.088   0.347  12.651 -0.5063  0.8755  0.6811
 1493TIP3   OH225893   0.797   5.170  15.091 -0.1416 -0.5400  0.2901
 1493TIP3    H125894   0.712   5.205  15.116 -0.0269 -0.3838  0.4762
 1493TIP3    H225895   0.855   5.195  15.164 -0.0575 -1.1220  0.4251
 1494TIP3   OH225896   1.394   3.315  13.349  0.1009  0.2215  0.8660
 1494TIP3    H125897   1.481   3.275  13.357  0.4031  0.6982  0.0399
 1494TIP3    H225898   1.410   3.398  13.305 -1.0113 -0.6498 -1.3211
 1495TIP3   OH225899   1.024   0.999   3.724 -0.4909  0.1529  0.1818
 1495TIP3    H125900   0.964   0.957   3.785 -1.3412  0.7705 -0.2237
 1495TIP3    H225901   0.989   0.980   3.637  2.2133 -3.1674 -0.4211
 1496TIP3   OH225902   5.771   1.784  10.927  0.1778  0.0914  0.3782
 1496TIP3    H125903   5.759   1.775  10.832  0.5605  2.3426  0.0562
 1496TIP3    H225904   5.730   1.868  10.949 -0.1561 -0.5251  2.2732
 1497TIP3   OH225905   4.195   2.481   0.249  0.1126 -0.1988  0.5634
 1497TIP3    H125906   4.246   2.415   0.201  0.9664 -1.3188  2.8706
 1497TIP3    H225907   4.104   2.452   0.241  0.2246 -0.3047 -0.4292
 1498TIP3   OH225908   2.492   3.958   1.571  0.0431 -0.5431 -0.2527
 1498TIP3    H125909   2.515   3.920   1.486 -0.6307 -1.3523 -0.0850
 1498TIP3    H225910   2.427   3.898   1.607 -1.4152  1.0089 -0.1843
 1499TIP3   OH225911   0.270   1.644   0.250  0.0903  0.2860  0.8204
 1499TIP3    H125912   0.353   1.652   0.297 -1.2183 -1.1932  3.6033
 1499TIP3    H225913   0.266   1.552   0.223  0.2842  0.8450 -1.3095
 1500TIP3   OH225914   4.496   2.880  14.886 -0.5279  0.3845 -0.3561
 1500TIP3    H125915   4.412   2.875  14.933 -2.5855  0.9404 -3.6555
 1500TIP3    H225916   4.517   2.974  14.887 -0.6547  0.4164 -0.6607
 1501TIP3   OH225917   4.051   0.388   3.597 -0.0668  0.1160  0.5280
 1501TIP3    H125918   4.114   0.348   3.537  1.0445  1.5396  0.7028
 1501TIP3    H225919   4.081   0.478   3.607 -2.7720  1.2132 -0.2687
 1502TIP3   OH225920   3.548   6.028  10.872 -0.4113  0.4901  0.2347
 1502TIP3    H125921   3.455   6.045  10.885 -0.2641  2.1270 -0.5726
 1502TIP3    H225922   3.554   5.991  10.783 -0.4377 -1.3969  0.9653
 1503TIP3   OH225923   6.025   4.146  14.598 -0.8599 -0.0610 -0.1171
 1503TIP3    H125924   5.984   4.080  14.653 -1.6379 -0.4971 -1.2047
 1503TIP3    H225925   5.984   4.229  14.625  0.7621  0.1710  1.8816
 1504TIP3   OH225926   2.448   2.126  11.576  0.1329 -0.0906 -0.0518
 1504TIP3    H125927   2.463   2.034  11.551  2.2039  0.2841 -0.4047
 1504TIP3    H225928   2.382   2.157  11.515  1.0341 -0.7636 -1.4280
 1505TIP3   OH225929   3.019   0.566   4.361  0.0739  0.3943 -0.1182
 1505TIP3    H125930   3.020   0.639   4.424  0.1859 -0.4137  0.8439
 1505TIP3    H225931   3.097   0.516   4.383 -0.8283 -0.8806  0.2899
 1506TIP3   OH225932   1.372   3.278   2.362 -0.8465  0.0441  0.1387
 1506TIP3    H125933   1.345   3.186   2.353  0.2896 -0.3948  0.9412
 1506TIP3    H225934   1.449   3.275   2.419 -0.0544  1.3811 -0.7972
 1507TIP3   OH225935   1.069   1.174  14.697 -0.2752 -0.2671  0.5196
 1507TIP3    H125936   1.107   1.262  14.701 -0.9409 -0.0268  1.9521
 1507TIP3    H225937   1.056   1.159  14.603 -2.4537  2.1924  0.2833
 1508TIP3   OH225938   4.765   1.789  13.587 -0.0642 -0.2024 -0.2596
 1508TIP3    H125939   4.860   1.788  13.586 -0.0585  0.3121 -0.6783
 1508TIP3    H225940   4.740   1.703  13.618  0.5356 -0.5468 -0.7187
 1509TIP3   OH225941   2.324   5.075   3.101 -0.4441  0.1577  0.0982
 1509TIP3    H125942   2.266   5.151   3.100 -0.5923  0.2034  2.9360
 1509TIP3    H225943   2.270   5.003   3.069 -1.1593  0.7336 -0.0141
 1510TIP3   OH225944   1.779   1.883  17.087 -0.1548  0.3877  0.1563
 1510TIP3    H125945   1.812   1.861  17.174  3.3192 -0.0901 -1.1323
 1510TIP3    H225946   1.840   1.840  17.027 -2.8207  0.1162 -2.5726
 1511TIP3   OH225947   6.510   3.432  13.173 -0.2661 -0.4085  0.2217
 1511TIP3    H125948   6.416   3.438  13.157  0.1334 -0.4151 -2.7241
 1511TIP3    H225949   6.518   3.369  13.244 -2.4419 -1.7015 -0.5746
 1512TIP3   OH225950   2.253   1.764   3.056 -0.1273  0.1651 -0.2405
 1512TIP3    H125951   2.314   1.832   3.083 -0.9546  0.8646 -0.0872
 1512TIP3    H225952   2.307   1.685   3.047  0.7617  0.7310  0.0272
 1513TIP3   OH225953   2.345   0.277  16.858  0.5852 -0.1765 -0.5082
 1513TIP3    H125954   2.284   0.231  16.800 -0.9064  0.2819  0.6553
 1513TIP3    H225955   2.349   0.366  16.823  0.3457 -0.1215 -0.3932
 1514TIP3   OH225956   4.516   6.533  14.226 -0.0504 -0.2041 -0.3409
 1514TIP3    H125957   4.462   6.506  14.300  0.4395 -0.3722 -0.0397
 1514TIP3    H225958   4.462   6.514  14.149  0.5586 -2.8430 -0.2214
 1515TIP3   OH225959   2.845   5.027  15.374  0.7272  0.3344  0.1397
 1515TIP3    H125960   2.760   5.032  15.330  0.9975  0.2230 -0.4064
 1515TIP3    H225961   2.891   5.105  15.345  1.2588 -0.2112 -0.5401
 1516TIP3   OH225962   2.343   4.208   5.797  0.4321  0.1057 -0.2142
 1516TIP3    H125963   2.355   4.192   5.891 -0.0858 -0.7839 -0.2814
 1516TIP3    H225964   2.432   4.224   5.764  0.8231 -1.1163  0.1752
 1517TIP3   OH225965   5.666   1.482   0.774 -0.3867  0.7292  0.3550
 1517TIP3    H125966   5.613   1.544   0.823 -0.3294 -0.1549  1.5738
 1517TIP3    H225967   5.740   1.463   0.831 -2.7683 -4.2106  2.3758
 1518TIP3   OH225968   0.072   0.086   3.723 -0.4727 -0.3470  0.0020
 1518TIP3    H125969   0.064  -0.008   3.708  0.4661 -0.1294 -2.1875
 1518TIP3    H225970   0.165   0.104   3.714 -0.6544  0.8175  0.3356
 1519TIP3   OH225971   5.694   4.860   3.136 -0.1940  0.1113 -0.4181
 1519TIP3    H125972   5.607   4.877   3.100 -0.4559 -0.3407 -0.0141
 1519TIP3    H225973   5.735   4.947   3.142 -0.0327  0.1715 -2.0253
 1520TIP3   OH225974   3.582   3.656  16.124  0.1103  0.3553 -0.2103
 1520TIP3    H125975   3.585   3.750  16.142  1.0225  0.0449  1.5510
 1520TIP3    H225976   3.599   3.649  16.030  0.9429  1.9076 -0.2169
 1521TIP3   OH225977   5.561   3.849  12.776 -0.2167 -0.0378 -0.1367
 1521TIP3    H125978   5.645   3.821  12.741 -1.1412 -1.2094 -1.5280
 1521TIP3    H225979   5.541   3.785  12.844  1.8587  2.5660  3.2745
 1522TIP3   OH225980   3.129   4.536   3.108  0.5521  0.3328  0.1543
 1522TIP3    H125981   3.065   4.499   3.169  0.2427  0.1248 -0.2899
 1522TIP3    H225982   3.212   4.534   3.157  0.5264 -0.8572  0.1860
 1523TIP3   OH225983   3.725   1.943  12.521  0.6057  0.4465  0.1631
 1523TIP3    H125984   3.804   1.909  12.562  0.1247  0.8458  1.4915
 1523TIP3    H225985   3.656   1.929  12.587 -0.4493  0.0280 -0.9981
 1524TIP3   OH225986   0.832   1.633   1.980  0.1560  0.3105 -0.1530
 1524TIP3    H125987   0.925   1.613   1.993 -0.3283 -0.5679  2.4082
 1524TIP3    H225988   0.799   1.561   1.927  0.7188  0.0440 -0.1504
 1525TIP3   OH225989   4.108   0.797   2.882  0.2448 -0.0019  0.0919
 1525TIP3    H125990   4.018   0.763   2.881  0.5779 -0.9045  0.0698
 1525TIP3    H225991   4.140   0.783   2.793  0.0635  1.3066 -0.2055
 1526TIP3   OH225992   1.014   4.175   4.866  0.2519  0.2344  0.2874
 1526TIP3    H125993   0.919   4.162   4.871  0.3834 -1.2050 -0.5143
 1526TIP3    H225994   1.040   4.196   4.956 -0.6794 -0.4543  0.7342
 1527TIP3   OH225995   3.596   3.793   4.526  0.2614 -0.7434  0.2317
 1527TIP3    H125996   3.551   3.877   4.537  0.3529 -0.6220 -0.3077
 1527TIP3    H225997   3.588   3.750   4.611 -2.0351 -1.3156 -0.2048
 1528TIP3   OH225998   5.631   5.139  14.499  0.0399  1.0533 -0.3855
 1528TIP3    H125999   5.554   5.140  14.556 -0.6576  1.9337 -1.3149
 1528TIP3    H226000   5.681   5.217  14.526  0.0043  1.1454 -0.5876
 1529TIP3   OH226001   6.151   2.404  10.271  0.5573 -0.3045 -0.3000
 1529TIP3    H126002   6.195   2.319  10.278  0.5758 -0.2352  0.4446
 1529TIP3    H226003   6.073   2.396  10.326 -0.0824 -0.2409 -1.1838
 1530TIP3   OH226004   0.392   4.801  13.680 -0.0707 -0.0745  0.0633
 1530TIP3    H126005   0.432   4.866  13.623 -1.0114 -0.7493 -1.4353
 1530TIP3    H226006   0.298   4.822  13.677 -0.2773 -0.9442  0.2632
 1531TIP3   OH226007   0.310   6.607  15.384 -0.1658 -0.5640  0.0506
 1531TIP3    H126008   0.306   6.681  15.445 -0.4136 -1.6025  1.3474
 1531TIP3    H226009   0.314   6.647  15.297 -1.5103  0.9745  0.6441
 1532TIP3   OH226010   3.995   1.660   3.246  0.1352  0.1380 -0.7851
 1532TIP3    H126011   4.010   1.633   3.337 -1.4106 -4.3119 -1.6312
 1532TIP3    H226012   4.074   1.711   3.224  2.0366 -1.2391  2.1275
 1533TIP3   OH226013   2.630   2.085  13.223  0.1881  0.7177 -0.1831
 1533TIP3    H126014   2.645   2.167  13.271  1.1334  0.4920 -0.0823
 1533TIP3    H226015   2.549   2.100  13.175  0.3853  1.7428 -0.2141
 1534TIP3   OH226016   2.019   1.911   2.444 -0.1684  0.7267  0.3679
 1534TIP3    H126017   2.021   1.991   2.392 -0.7767  0.1356 -0.5907
 1534TIP3    H226018   2.092   1.920   2.506  1.3724  0.9079 -1.3885
 1535TIP3   OH226019   6.232   5.540  16.582 -0.0824 -0.1561  0.3416
 1535TIP3    H126020   6.263   5.630  16.597  0.1096 -0.2787  0.6909
 1535TIP3    H226021   6.244   5.526  16.489  1.5072 -0.4184  0.5556
 1536TIP3   OH226022   1.960   0.117  16.980  0.2864 -0.4371 -0.3838
 1536TIP3    H126023   1.921   0.039  17.018  1.8640 -0.8094  0.5836
 1536TIP3    H226024   2.049   0.119  17.016  1.3071  0.1422 -2.7768
 1537TIP3   OH226025   4.449   4.079   5.251 -0.0565  0.2412 -0.2431
 1537TIP3    H126026   4.446   4.021   5.176 -1.0574  0.3856 -0.3257
 1537TIP3    H226027   4.431   4.166   5.215 -0.9670  0.2486  0.2154
 1538TIP3   OH226028   4.788   5.727   5.512  0.1402  0.1164  0.6233
 1538TIP3    H126029   4.862   5.667   5.503  0.2328  0.1924  0.8683
 1538TIP3    H226030   4.828   5.811   5.532  0.0075  0.2531  0.3258
 1539TIP3   OH226031   5.773   0.243  14.654  0.5142 -0.6431  0.2089
 1539TIP3    H126032   5.755   0.272  14.565 -0.4275 -0.7912  0.3352
 1539TIP3    H226033   5.868   0.245  14.662  0.5784 -0.0779 -0.6125
 1540TIP3   OH226034   1.110   4.858   5.294 -0.2471  0.4711 -0.6967
 1540TIP3    H126035   1.122   4.765   5.317 -0.4142  0.8301  1.0211
 1540TIP3    H226036   1.161   4.870   5.215  0.6752 -0.8406 -0.3446
 1541TIP3   OH226037   0.680   4.640   5.220  0.0581  0.2181  0.1068
 1541TIP3    H126038   0.734   4.565   5.195  0.2002  1.1729 -2.7452
 1541TIP3    H226039   0.726   4.679   5.294  1.6077 -0.7382 -0.3085
 1542TIP3   OH226040   4.962   1.272  12.599  0.3047 -0.5263 -0.0607
 1542TIP3    H126041   4.995   1.212  12.666  1.0981 -1.0311 -0.8998
 1542TIP3    H226042   4.921   1.216  12.534  1.0772 -0.1670 -0.8667
 1543TIP3   OH226043   1.549   5.858   2.372  0.1641 -0.0052 -0.2345
 1543TIP3    H126044   1.598   5.909   2.436 -0.0685  0.8974 -0.7660
 1543TIP3    H226045   1.520   5.922   2.307 -0.5267 -0.7414 -0.6670
 1544TIP3   OH226046   3.466   0.772   3.439 -0.2405 -0.0336  0.0448
 1544TIP3    H126047   3.404   0.822   3.492 -0.9618  0.1219 -0.9057
 1544TIP3    H226048   3.463   0.814   3.353  0.5984 -0.5185 -0.2299
 1545TIP3   OH226049   0.400   1.041   1.629  0.5022 -0.2459  0.1310
 1545TIP3    H126050   0.391   1.026   1.535  0.9379 -2.1120  0.3397
 1545TIP3    H226051   0.364   1.129   1.643 -0.0178 -0.1226 -1.6950
 1546TIP3   OH226052   5.155   1.356  10.562  0.4106 -0.6402 -0.1089
 1546TIP3    H126053   5.211   1.419  10.609  0.7704 -1.7362  0.9735
 1546TIP3    H226054   5.177   1.370  10.470  0.1308  1.1432  0.0621
 1547TIP3   OH226055   4.708   0.687  13.782 -0.5276  0.3392 -0.2476
 1547TIP3    H126056   4.754   0.608  13.754 -0.4762  0.7808 -1.4861
 1547TIP3    H226057   4.759   0.720  13.856 -0.0218 -0.2847 -0.3096
 1548TIP3   OH226058   6.475   1.141   5.220  0.0503  0.4635 -0.6255
 1548TIP3    H126059   6.418   1.090   5.163 -1.3323  0.8478  0.3696
 1548TIP3    H226060   6.439   1.128   5.308  0.3695  2.2324 -0.1998
 1549TIP3   OH226061   1.268   3.296  12.228 -0.2426  0.2255 -0.3160
 1549TIP3    H126062   1.341   3.296  12.289 -0.3718 -0.2193 -0.1601
 1549TIP3    H226063   1.300   3.246  12.152 -0.9054 -1.3487  0.3948
 1550TIP3   OH226064   5.695   2.095   3.571  0.5193 -0.2144  0.2206
 1550TIP3    H126065   5.620   2.140   3.533  0.4069 -0.0580  0.6293
 1550TIP3    H226066   5.657   2.036   3.637  0.8121  0.4137  0.9635
 1551TIP3   OH226067   5.688   3.811   1.014  0.3501 -0.4339  0.3089
 1551TIP3    H126068   5.754   3.759   1.061  1.0800 -1.1762 -1.4623
 1551TIP3    H226069   5.714   3.806   0.922 -1.0414  0.9669 -0.2044
 1552TIP3   OH226070   5.592   6.488   4.997 -0.0849  0.6006  0.1692
 1552TIP3    H126071   5.539   6.537   4.935 -0.1514  0.3668  0.0423
 1552TIP3    H226072   5.530   6.431   5.042  0.3381 -1.0836 -1.3247
 1553TIP3   OH226073   4.039   2.655   1.225 -0.4599  0.3146  0.3191
 1553TIP3    H126074   4.057   2.680   1.316 -0.1252  0.5069  0.2007
 1553TIP3    H226075   3.966   2.593   1.231 -0.4601  0.3522  0.7160
 1554TIP3   OH226076   0.825   4.921  12.385  0.6605  0.2757 -0.0987
 1554TIP3    H126077   0.772   4.991  12.424 -0.3038  0.2319 -1.2346
 1554TIP3    H226078   0.910   4.927  12.427  0.0807  1.0888  0.9827
 1555TIP3   OH226079   2.181   1.995  11.288 -0.3146  0.2066 -0.2447
 1555TIP3    H126080   2.274   2.012  11.305  0.0097  0.9847 -2.3961
 1555TIP3    H226081   2.181   1.920  11.228 -1.0029  0.6793 -0.8573
 1556TIP3   OH226082   3.235   6.113   3.948  0.0614  0.7278  0.1455
 1556TIP3    H126083   3.280   6.029   3.958  1.2395  1.0289 -1.8889
 1556TIP3    H226084   3.306   6.177   3.944 -0.7288  1.6092  0.0344
 1557TIP3   OH226085   5.972   0.097   3.207 -0.1729  0.4386  0.0250
 1557TIP3    H126086   6.037   0.047   3.157 -1.1305 -0.0137 -0.7857
 1557TIP3    H226087   5.965   0.051   3.290  2.0360  1.6508  0.9810
 1558TIP3   OH226088   6.097   4.790   2.740  0.5856 -0.0847  0.0606
 1558TIP3    H126089   6.147   4.725   2.691  1.7862  1.6290 -1.1115
 1558TIP3    H226090   6.164   4.847   2.779 -0.4354  1.0405  0.2206
 1559TIP3   OH226091   0.409   4.169  16.788  0.0179 -0.8450 -0.6280
 1559TIP3    H126092   0.348   4.097  16.773 -0.9513 -0.1299 -0.2393
 1559TIP3    H226093   0.426   4.205  16.701 -0.2379 -0.9466 -0.7182
 1560TIP3   OH226094   6.078   6.767   5.650 -0.1991 -0.2116 -0.0508
 1560TIP3    H126095   6.035   6.796   5.570 -0.7304 -0.1088  0.2695
 1560TIP3    H226096   6.164   6.737   5.621 -0.6068 -0.7365 -0.7399
 1561TIP3   OH226097   3.991   1.782   5.112 -0.3327  0.5649  0.1415
 1561TIP3    H126098   3.949   1.731   5.180 -1.1440 -0.2278 -0.9183
 1561TIP3    H226099   4.082   1.752   5.110 -0.3403  0.5035  0.7721
 1562TIP3   OH226100   0.175   2.058   6.421 -0.5495  0.3921 -0.0594
 1562TIP3    H126101   0.251   2.057   6.480 -0.9003  0.7274  0.4070
 1562TIP3    H226102   0.137   1.971   6.431  0.8144 -0.4570 -1.6987
 1563TIP3   OH226103   5.764   5.795   0.416 -0.3523  0.1481 -0.3671
 1563TIP3    H126104   5.792   5.725   0.358 -1.1868 -0.7364  0.2670
 1563TIP3    H226105   5.712   5.751   0.484  0.7297  1.1179  1.1503
 1564TIP3   OH226106   5.657   4.402  12.911  0.3984 -0.0557 -0.5652
 1564TIP3    H126107   5.635   4.317  12.873 -2.3339  0.5834 -0.6522
 1564TIP3    H226108   5.636   4.392  13.004  1.0018  0.2495 -0.3941
 1565TIP3   OH226109   2.057   5.414  11.689 -0.0994  0.4622 -0.2861
 1565TIP3    H126110   2.056   5.408  11.594 -1.4385  0.7447 -0.3068
 1565TIP3    H226111   1.975   5.373  11.716  0.3407  0.2370  0.7667
 1566TIP3   OH226112   4.694   2.578   0.726  0.3202 -0.0044 -0.2292
 1566TIP3    H126113   4.621   2.557   0.784  0.5117  4.1506  1.9222
 1566TIP3    H226114   4.653   2.604   0.644 -0.1785 -2.5800 -0.8714
 1567TIP3   OH226115   4.147   1.784  12.831  0.1554 -0.3954 -0.7840
 1567TIP3    H126116   4.215   1.830  12.879 -1.1640 -1.1292  1.9918
 1567TIP3    H226117   4.188   1.704  12.800  0.3821 -1.4032  1.8699
 1568TIP3   OH226118   3.246   0.311  11.960 -0.1723  0.4345 -0.3680
 1568TIP3    H126119   3.266   0.345  11.872 -1.4416 -0.7987 -1.1784
 1568TIP3    H226120   3.151   0.320  11.968  0.0956  2.2437  1.6699
 1569TIP3   OH226121   2.813   0.756  15.218 -0.4485  0.9468 -0.0356
 1569TIP3    H126122   2.723   0.776  15.194 -0.5422  0.4073 -0.1325
 1569TIP3    H226123   2.807   0.720  15.306 -0.7286 -2.2849 -1.2560
 1570TIP3   OH226124   1.588   6.670   0.422 -0.2323  0.1396 -0.2578
 1570TIP3    H126125   1.535   6.590   0.428 -0.3241  0.2371  0.3041
 1570TIP3    H226126   1.548   6.729   0.486  1.9616 -0.6246  1.9926
 1571TIP3   OH226127   3.073   5.419  13.421 -0.5575  0.0561  0.6789
 1571TIP3    H126128   3.091   5.477  13.346  0.0837  1.5747  1.9560
 1571TIP3    H226129   3.092   5.331  13.388  3.6352  0.9602  0.0855
 1572TIP3   OH226130   6.141   3.848  12.269  0.8466 -0.5409 -0.1093
 1572TIP3    H126131   6.087   3.795  12.211  0.3623  0.8130 -0.9533
 1572TIP3    H226132   6.173   3.920  12.213 -0.2214  1.2137  1.4196
 1573TIP3   OH226133   5.091   1.059   1.596  0.0989  0.3025 -0.0593
 1573TIP3    H126134   5.185   1.043   1.605 -0.1376 -0.4643  1.4058
 1573TIP3    H226135   5.084   1.153   1.581  1.0191  0.8126  2.2469
 1574TIP3   OH226136   1.404   0.430  12.590 -0.7018  0.0952  0.0901
 1574TIP3    H126137   1.415   0.340  12.560 -0.6509 -0.0316  0.4847
 1574TIP3    H226138   1.312   0.450  12.575 -1.0553 -0.5033  1.2889
 1575TIP3   OH226139   3.234   0.801  14.440 -0.0407 -0.0479 -0.1943
 1575TIP3    H126140   3.239   0.758  14.354 -0.6247  0.1013 -0.3036
 1575TIP3    H226141   3.227   0.894  14.420  2.7865  0.3277  0.0426
 1576TIP3   OH226142   0.247   4.223  17.024  0.0512 -0.1475  0.3661
 1576TIP3    H126143   0.288   4.142  16.993 -1.3660 -0.6027 -0.4516
 1576TIP3    H226144   0.288   4.292  16.972 -0.0453 -0.5713 -0.2943
 1577TIP3   OH226145   3.521   6.103   2.520  0.1620 -0.6554 -0.4996
 1577TIP3    H126146   3.444   6.158   2.535  0.5602  0.0360 -0.9414
 1577TIP3    H226147   3.486   6.016   2.501 -0.4747 -0.5793  0.2942
 1578TIP3   OH226148   3.128   6.272  13.814  0.2759 -0.4204  0.3557
 1578TIP3    H126149   3.135   6.177  13.823  0.9257 -0.5271 -1.0187
 1578TIP3    H226150   3.108   6.285  13.721 -4.0270  0.5939  1.2018
 1579TIP3   OH226151   6.128   0.677  15.109 -0.2575 -0.2005  0.2101
 1579TIP3    H126152   6.057   0.742  15.114 -0.3928 -0.0263 -2.5004
 1579TIP3    H226153   6.193   0.718  15.053  0.5291 -1.6630  0.0323
 1580TIP3   OH226154   2.071   4.036  13.411  0.4761 -0.1225  0.5595
 1580TIP3    H126155   2.081   4.074  13.498 -2.6595  1.3060  0.4118
 1580TIP3    H226156   1.988   4.071  13.378 -0.4234 -3.6427 -1.4584
 1581TIP3   OH226157   2.221   1.861  14.187  0.2007 -0.2667 -0.6417
 1581TIP3    H126158   2.311   1.894  14.182 -0.0068  0.1827 -1.7568
 1581TIP3    H226159   2.173   1.928  14.237  0.3760 -0.2735 -0.4629
 1582TIP3   OH226160   4.677   5.938  15.742  0.8301 -0.3407 -0.2192
 1582TIP3    H126161   4.688   5.907  15.652  2.6518  1.4907 -0.7020
 1582TIP3    H226162   4.702   6.030  15.739 -0.7911  0.2537  1.8532
 1583TIP3   OH226163   3.479   2.085  12.256 -0.2804 -0.2091 -0.1684
 1583TIP3    H126164   3.405   2.031  12.230 -1.0235  0.7858 -0.1765
 1583TIP3    H226165   3.464   2.103  12.349 -0.3096  0.3896 -0.2864
 1584TIP3   OH226166   2.669   2.338   3.777  0.1288 -0.1983  0.2362
 1584TIP3    H126167   2.666   2.434   3.783  2.5919 -0.0938  0.9212
 1584TIP3    H226168   2.601   2.316   3.714 -1.0069  1.9321  0.6267
 1585TIP3   OH226169   3.226   1.742  12.344  0.0291 -0.4938 -0.3746
 1585TIP3    H126170   3.136   1.770  12.362 -0.9769 -2.7488 -1.5117
 1585TIP3    H226171   3.253   1.793  12.268  0.7043  1.9386  1.3376
 1586TIP3   OH226172   4.851   2.633   6.553  0.5209 -0.9497 -0.0704
 1586TIP3    H126173   4.910   2.579   6.500 -0.7331 -0.5788 -1.9278
 1586TIP3    H226174   4.871   2.608   6.643  2.0657 -2.3141 -0.7291
 1587TIP3   OH226175   1.165   5.851   1.563  0.5060 -0.4508 -0.1609
 1587TIP3    H126176   1.110   5.910   1.615  0.4253 -0.1465 -0.5870
 1587TIP3    H226177   1.141   5.764   1.593  0.2482 -0.2896  0.1072
 1588TIP3   OH226178   2.733   6.022  14.996  0.5712  0.2106 -0.0157
 1588TIP3    H126179   2.714   6.043  14.905 -0.2358 -1.5706 -0.2948
 1588TIP3    H226180   2.829   6.024  15.001  0.6590  4.0648  0.1101
 1589TIP3   OH226181   1.126   3.505   6.068 -0.2012  0.0742 -0.3909
 1589TIP3    H126182   1.046   3.475   6.023  0.1519 -1.5093 -0.0176
 1589TIP3    H226183   1.102   3.508   6.160  0.2411 -0.6418 -0.2512
 1590TIP3   OH226184   4.730   4.538   2.065  0.5384 -0.0514 -0.4678
 1590TIP3    H126185   4.784   4.614   2.084  0.0741  0.4903 -1.2658
 1590TIP3    H226186   4.666   4.569   2.000  0.5198 -1.1817 -1.0216
 1591TIP3   OH226187   2.376   1.554  11.524  0.0293  0.1711 -0.5955
 1591TIP3    H126188   2.365   1.460  11.532 -3.1584  0.5763  1.6669
 1591TIP3    H226189   2.458   1.573  11.571 -0.8149 -1.2501  1.5927
 1592TIP3   OH226190   3.972   5.886  11.089 -0.0059 -0.2769 -0.1308
 1592TIP3    H126191   4.006   5.823  11.026 -1.0925  0.1017 -1.1408
 1592TIP3    H226192   3.907   5.838  11.140 -0.8147 -0.0220 -0.8825
 1593TIP3   OH226193   4.553   2.761  16.632  0.3726  0.2325  0.0667
 1593TIP3    H126194   4.617   2.697  16.601  3.7159  2.9440  0.7578
 1593TIP3    H226195   4.554   2.752  16.727  1.4316  1.6989  0.2226
 1594TIP3   OH226196   1.791   4.013   1.937  0.5576  0.1985  0.1946
 1594TIP3    H126197   1.777   4.091   1.883  2.3248 -0.1245 -0.8180
 1594TIP3    H226198   1.817   3.945   1.874 -2.0978 -1.5890  0.8807
 1595TIP3   OH226199   4.154   1.727   4.386 -0.2950 -0.5091 -0.8780
 1595TIP3    H126200   4.156   1.813   4.343  0.4136 -0.1200 -0.0883
 1595TIP3    H226201   4.246   1.707   4.405 -0.6459  0.1486  2.0220
 1596TIP3   OH226202   3.552   0.981   2.621 -0.8072 -0.3034 -0.4627
 1596TIP3    H126203   3.466   0.950   2.591 -0.2020 -1.2980 -1.2624
 1596TIP3    H226204   3.586   1.032   2.547 -1.9229  2.7142  0.9551
 1597TIP3   OH226205   4.556   4.479   1.079  0.7341  0.3793 -0.2779
 1597TIP3    H126206   4.468   4.508   1.103  0.2760 -0.9970 -0.1823
 1597TIP3    H226207   4.571   4.401   1.133  1.4494 -0.2059 -1.2839
 1598TIP3   OH226208   3.502   0.515  11.504  0.4985  0.4180  0.0427
 1598TIP3    H126209   3.531   0.594  11.549  0.5963  0.0891  0.5606
 1598TIP3    H226210   3.496   0.542  11.412  1.8880  0.6631 -0.0110
 1599TIP3   OH226211   6.498   0.943   0.950 -0.1204 -0.1661 -0.2684
 1599TIP3    H126212   6.439   0.891   1.003  0.0445  0.0838  0.1696
 1599TIP3    H226213   6.528   1.012   1.009  0.0710  0.1124 -0.6856
 1600TIP3   OH226214   4.888   0.458  13.722 -0.5649 -0.2605 -0.2988
 1600TIP3    H126215   4.824   0.408  13.773  0.0182 -2.8454 -1.8977
 1600TIP3    H226216   4.972   0.420  13.746  0.3415  2.3029  0.8962
 1601TIP3   OH226217   1.110   1.220   4.701 -0.3940 -0.2370  0.3747
 1601TIP3    H126218   1.028   1.259   4.670  0.4373  0.8286 -0.5460
 1601TIP3    H226219   1.082   1.142   4.749 -1.8785 -0.7877 -1.2586
 1602TIP3   OH226220   4.424   1.228   2.611 -0.0563  0.2405 -0.1920
 1602TIP3    H126221   4.405   1.214   2.518  0.1701 -1.5397 -0.0235
 1602TIP3    H226222   4.357   1.289   2.641  0.0325  1.0494 -1.5778
 1603TIP3   OH226223   6.535   3.647   5.664 -0.6715 -0.2534 -0.1924
 1603TIP3    H126224   6.580   3.566   5.688 -2.3428 -0.4093  3.0563
 1603TIP3    H226225   6.594   3.717   5.694  1.1348 -0.0389 -3.6880
 1604TIP3   OH226226   1.843   6.355   5.326 -0.5493  0.3864 -0.4908
 1604TIP3    H126227   1.797   6.272   5.308  2.3081 -1.0819 -1.6430
 1604TIP3    H226228   1.828   6.407   5.247  1.8959 -1.2118 -2.1467
 1605TIP3   OH226229   0.093   3.980  10.492 -0.1544 -0.0836 -0.4202
 1605TIP3    H126230   0.187   3.991  10.474 -0.0802  0.0783  0.0628
 1605TIP3    H226231   0.065   4.065  10.525 -0.7800  0.3052 -1.8862
 1606TIP3   OH226232   1.651   4.530   1.624 -0.2623 -0.0128  0.0970
 1606TIP3    H126233   1.565   4.509   1.588 -0.0593 -0.9760  0.1441
 1606TIP3    H226234   1.634   4.546   1.717 -0.2968 -0.8497  0.2368
 1607TIP3   OH226235   1.648   1.314  10.358 -0.3558 -0.0310  0.4298
 1607TIP3    H126236   1.555   1.314  10.340 -0.5819  2.0296  1.3831
 1607TIP3    H226237   1.668   1.403  10.388  2.4898  0.5594 -2.5672
 1608TIP3   OH226238   0.451   0.238  16.918  0.3029  0.2575 -0.2440
 1608TIP3    H126239   0.498   0.185  16.853  2.7293  1.6598  0.2360
 1608TIP3    H226240   0.464   0.193  17.001  0.3379  0.3466 -0.2005
 1609TIP3   OH226241   6.624   1.810   0.245  0.2222  0.6159  0.3362
 1609TIP3    H126242   6.644   1.736   0.303 -0.1391 -0.2339 -0.5911
 1609TIP3    H226243   6.590   1.877   0.303 -0.0447 -0.1826  1.1270
 1610TIP3   OH226244   5.948   4.222  12.920 -0.4551  0.1375 -0.1185
 1610TIP3    H126245   6.025   4.264  12.959 -0.2019 -1.2814  0.9788
 1610TIP3    H226246   5.878   4.236  12.983 -0.5548 -0.4225 -0.0967
 1611TIP3   OH226247   3.466   0.441   5.941 -0.7775 -0.2034 -0.0926
 1611TIP3    H126248   3.456   0.409   5.852 -2.0715  2.9356 -1.2102
 1611TIP3    H226249   3.388   0.408   5.987 -1.1628 -0.1867 -0.7144
 1612TIP3   OH226250   6.237   4.241  15.063 -0.0978  0.1742 -0.0791
 1612TIP3    H126251   6.151   4.203  15.052 -0.9527  1.4216  1.7237
 1612TIP3    H226252   6.271   4.202  15.144 -0.1884  1.7178  0.7474
 1613TIP3   OH226253   2.326   0.794   5.238 -0.4462  0.2527 -0.7048
 1613TIP3    H126254   2.388   0.772   5.308  0.5297  0.2414 -1.5478
 1613TIP3    H226255   2.242   0.758   5.268  0.2164 -0.8797 -0.1166
 1614TIP3   OH226256   3.768   5.921  11.461 -0.1352 -0.3831 -0.2804
 1614TIP3    H126257   3.745   5.995  11.405 -0.5612 -0.2348  0.0762
 1614TIP3    H226258   3.857   5.938  11.489 -0.1749 -0.0872 -0.3348
 1615TIP3   OH226259   2.159   5.281   3.088 -0.1729  0.1413 -0.3643
 1615TIP3    H126260   2.167   5.264   2.994 -2.1433 -1.0550 -0.3697
 1615TIP3    H226261   2.164   5.376   3.096  0.6551  0.2231 -1.5886
 1616TIP3   OH226262   3.521   0.948  16.737  0.1080 -0.2045 -0.6720
 1616TIP3    H126263   3.543   0.859  16.765 -0.9180 -1.1423 -2.5939
 1616TIP3    H226264   3.430   0.942  16.708  0.4423  1.1165 -2.1492
 1617TIP3   OH226265   1.992   2.191  13.201 -0.3813  0.0104  0.1072
 1617TIP3    H126266   2.081   2.210  13.232 -0.1964  0.6190 -0.7750
 1617TIP3    H226267   2.002   2.176  13.107 -1.2793  0.5227 -0.0822
 1618TIP3   OH226268   5.803   4.185   3.676 -0.0166 -0.6873  0.1388
 1618TIP3    H126269   5.861   4.259   3.659  0.4648 -1.3462 -1.2099
 1618TIP3    H226270   5.716   4.217   3.653  0.0341 -0.2065  0.5992
 1619TIP3   OH226271   3.911   2.060  13.329 -0.2540  0.1510 -1.0085
 1619TIP3    H126272   3.956   2.124  13.383 -0.5781  0.1245 -0.7064
 1619TIP3    H226273   3.863   2.005  13.391  1.3405 -1.4475 -1.0970
 1620TIP3   OH226274   2.865   5.326   5.983 -0.5091  0.7049 -0.1622
 1620TIP3    H126275   2.858   5.358   6.072 -0.1921  2.4393 -0.7293
 1620TIP3    H226276   2.942   5.268   5.984  0.1612  1.5973  0.4449
 1621TIP3   OH226277   4.349   1.214  12.275 -0.0236 -0.4569  0.0071
 1621TIP3    H126278   4.416   1.272  12.237 -1.5698  2.0212  0.8202
 1621TIP3    H226279   4.372   1.210  12.368  0.6564 -2.0810 -0.1970
 1622TIP3   OH226280   4.397   3.492   2.751 -0.1403 -0.1844  0.3536
 1622TIP3    H126281   4.427   3.441   2.826  0.9998 -0.5861 -0.3529
 1622TIP3    H226282   4.304   3.471   2.744 -0.1318 -0.6024  1.2832
 1623TIP3   OH226283   3.630   0.470   5.437  0.3579  0.2002 -0.3081
 1623TIP3    H126284   3.591   0.383   5.435  1.7539 -0.4393 -1.1106
 1623TIP3    H226285   3.561   0.527   5.472 -0.7933 -1.1010 -0.3996
 1624TIP3   OH226286   6.610   3.494  12.463 -0.1802 -0.1153 -0.5475
 1624TIP3    H126287   6.586   3.563  12.525  0.5891  0.8808 -1.3128
 1624TIP3    H226288   6.554   3.509  12.387  0.3989  0.0459 -0.9501
 1625TIP3   OH226289   4.853   3.078  14.977 -0.0699  0.3591  0.8301
 1625TIP3    H126290   4.878   2.993  15.012 -1.1681 -0.9061 -1.3199
 1625TIP3    H226291   4.914   3.094  14.905 -0.9605  0.5721  0.1133
 1626TIP3   OH226292   5.268   0.022  15.894 -0.1620 -0.4007  0.1369
 1626TIP3    H126293   5.187   0.073  15.907  0.1808  0.2934 -0.3834
 1626TIP3    H226294   5.286  -0.015  15.980  0.0126  1.0293  0.7449
 1627TIP3   OH226295   0.979   2.050   4.415  0.5094  0.6292  0.5622
 1627TIP3    H126296   1.019   2.134   4.394 -0.1910  0.8109 -0.0809
 1627TIP3    H226297   0.890   2.073   4.444 -1.0878 -0.0534 -3.1869
 1628TIP3   OH226298   2.420   4.833   0.258  0.4376  0.1845 -0.1264
 1628TIP3    H126299   2.515   4.840   0.250  0.7453 -2.8478 -0.2778
 1628TIP3    H226300   2.396   4.900   0.322  2.8824 -0.0033  1.1041
 1629TIP3   OH226301   0.476   1.701   2.977 -0.0659  0.2611  0.4036
 1629TIP3    H126302   0.427   1.745   3.047 -0.1759  0.4194  0.2276
 1629TIP3    H226303   0.415   1.698   2.904 -0.5234 -1.3663  0.8170
 1630TIP3   OH226304   4.823   5.382   1.646 -0.1100  0.0151  0.1347
 1630TIP3    H126305   4.801   5.358   1.556  0.5221 -0.6386  0.1442
 1630TIP3    H226306   4.869   5.465   1.637 -0.7469  0.3556 -0.0666
 1631TIP3   OH226307   1.555   5.062  13.937  0.1071  0.6669  0.1669
 1631TIP3    H126308   1.591   5.041  13.851 -0.1090 -0.4844  0.3324
 1631TIP3    H226309   1.629   5.050  13.997  0.1932  1.2175  0.1719
 1632TIP3   OH226310   6.796   2.393  10.578  0.5126 -0.2478  0.9940
 1632TIP3    H126311   6.878   2.377  10.531  0.2101 -0.8910  0.6761
 1632TIP3    H226312   6.822   2.398  10.670  0.8542 -0.8952  0.9385
 1633TIP3   OH226313   2.093   4.743   2.585 -0.2165  0.5328  0.0865
 1633TIP3    H126314   2.137   4.724   2.668 -0.1258  0.6059  0.0554
 1633TIP3    H226315   2.163   4.737   2.519 -0.0240  1.7495  0.1694
 1634TIP3   OH226316   2.686   6.253   0.438 -0.0517 -0.1473  0.4517
 1634TIP3    H126317   2.756   6.250   0.503  0.4648  2.2168  0.0940
 1634TIP3    H226318   2.732   6.250   0.354 -0.6196 -1.5871  0.1586
 1635TIP3   OH226319   3.746   0.800   4.159 -0.3017 -0.8851  0.2875
 1635TIP3    H126320   3.708   0.755   4.083 -1.0887  0.7444 -0.3204
 1635TIP3    H226321   3.808   0.863   4.123 -1.1913  0.4001  0.9148
 1636TIP3   OH226322   1.802   5.193   5.015  0.2938 -0.6508 -0.3096
 1636TIP3    H126323   1.893   5.182   4.988  0.7349 -0.5877  1.0764
 1636TIP3    H226324   1.770   5.103   5.028  0.9368 -0.6370  1.6000
 1637TIP3   OH226325   3.131   1.402   3.009 -0.1668 -0.1227 -0.2315
 1637TIP3    H126326   3.224   1.422   2.996 -0.1654  0.1797  0.2252
 1637TIP3    H226327   3.090   1.486   3.028 -0.4719 -0.3018 -0.0768
 1638TIP3   OH226328   2.439   4.038   2.290  0.1081  0.0140 -0.2970
 1638TIP3    H126329   2.467   3.976   2.358 -1.5479 -1.1012 -0.5793
 1638TIP3    H226330   2.428   3.984   2.212 -0.6916  0.8002 -0.7399
 1639TIP3   OH226331   3.347   4.081  15.231  0.4540 -0.3741 -0.1179
 1639TIP3    H126332   3.443   4.078  15.228  0.5874  0.0290  2.0872
 1639TIP3    H226333   3.323   4.019  15.299 -0.8133  0.1307 -0.0810
 1640TIP3   OH226334   2.002   4.213   1.747 -0.1659 -0.0480  0.1893
 1640TIP3    H126335   1.985   4.261   1.666  2.2232  1.3657  0.4045
 1640TIP3    H226336   1.992   4.278   1.816 -1.6363 -1.1076  1.0386
 1641TIP3   OH226337   4.268   6.181  16.014 -0.4105 -0.6055  0.1255
 1641TIP3    H126338   4.363   6.175  16.024 -0.5125 -3.2662  0.3501
 1641TIP3    H226339   4.244   6.263  16.057  1.8340  0.5127 -0.6073
 1642TIP3   OH226340   6.684   3.721  14.570 -0.0188  0.3218  0.1934
 1642TIP3    H126341   6.737   3.737  14.649  0.2462  0.7485 -0.0664
 1642TIP3    H226342   6.604   3.682  14.603  0.4140 -0.2374  0.6062
 1643TIP3   OH226343   1.450   3.476  12.008 -0.4054  0.4801 -0.7035
 1643TIP3    H126344   1.424   3.385  12.018 -1.0481  0.7564  0.3799
 1643TIP3    H226345   1.368   3.524  11.998 -0.0002  0.7796 -2.9860
 1644TIP3   OH226346   1.938   4.907  11.200  0.3207  0.2784 -0.1177
 1644TIP3    H126347   1.978   4.987  11.164 -0.9069  0.7252 -0.5473
 1644TIP3    H226348   1.861   4.938  11.247  1.4333 -0.3900  2.2583
 1645TIP3   OH226349   0.222   5.137   5.620 -0.3314 -0.4719  0.0799
 1645TIP3    H126350   0.285   5.081   5.575  0.9609 -0.9163  2.2732
 1645TIP3    H226351   0.247   5.131   5.713 -1.7420  1.7371  0.6812
 1646TIP3   OH226352   5.782   0.582   5.834 -0.1115 -0.0569  0.3350
 1646TIP3    H126353   5.806   0.513   5.896 -1.8504 -0.1576  0.9646
 1646TIP3    H226354   5.689   0.598   5.852 -0.3120  0.8453 -1.3645
 1647TIP3   OH226355   4.985   2.582  14.675  0.0724 -0.6472  0.0442
 1647TIP3    H126356   5.019   2.552  14.591 -1.2555 -2.8529  0.2170
 1647TIP3    H226357   5.019   2.671  14.684  1.5795 -0.9295 -2.0516
 1648TIP3   OH226358   6.194   1.430  17.129 -0.1944  0.0993 -0.4482
 1648TIP3    H126359   6.278   1.460  17.095  0.0804 -1.5059 -1.3086
 1648TIP3    H226360   6.215   1.387  17.211 -0.1644 -0.2750 -0.6480
 1649TIP3   OH226361   4.827   5.803   5.811 -0.1285  0.1361  0.3693
 1649TIP3    H126362   4.835   5.877   5.871  2.2973 -0.9135  1.4321
 1649TIP3    H226363   4.883   5.826   5.737 -2.0510  0.8105 -0.9710
 1650TIP3   OH226364   5.933   1.159  13.318 -0.1804  0.0971 -0.5577
 1650TIP3    H126365   5.862   1.189  13.262  0.8690 -0.0324 -2.0224
 1650TIP3    H226366   5.921   1.064  13.323 -0.5269  0.1587 -0.1948
 1651TIP3   OH226367   1.178   1.888   6.060 -0.8217  0.0775 -0.1401
 1651TIP3    H126368   1.155   1.824   6.128 -1.7182  1.1074  0.5596
 1651TIP3    H226369   1.273   1.895   6.065 -0.7425 -0.9080  0.0313
 1652TIP3   OH226370   2.657   3.572  14.838 -0.4071 -0.6845  0.1030
 1652TIP3    H126371   2.642   3.533  14.924 -0.7347 -1.8491 -0.4594
 1652TIP3    H226372   2.577   3.621  14.820 -0.0552  0.1603  0.7494
 1653TIP3   OH226373   3.118   6.033  15.797  0.4172  0.1017 -0.1686
 1653TIP3    H126374   3.130   6.125  15.819  0.3317 -0.5710  3.3472
 1653TIP3    H226375   3.189   5.988  15.843 -0.3503 -1.7076 -0.6549
 1654TIP3   OH226376   5.455   4.220   0.412  0.8105 -0.0493  0.4487
 1654TIP3    H126377   5.455   4.250   0.503 -1.2153  2.6526 -0.3059
 1654TIP3    H226378   5.384   4.156   0.408  0.6260  0.1378  0.6848
 1655TIP3   OH226379   6.097   1.707  15.974 -0.1181 -0.3056  0.1923
 1655TIP3    H126380   6.020   1.701  15.916  0.5950 -1.6229 -0.6923
 1655TIP3    H226381   6.063   1.683  16.060 -0.8122 -0.3767 -0.0869
 1656TIP3   OH226382   1.025   2.176  10.723  0.8871 -0.3113  0.1984
 1656TIP3    H126383   0.947   2.205  10.675  1.8191  1.4461 -0.3528
 1656TIP3    H226384   1.033   2.239  10.795  0.9595 -1.3919  1.1616
 1657TIP3   OH226385   0.125   3.547  14.161  0.5034 -0.0189 -0.3676
 1657TIP3    H126386   0.151   3.455  14.162  0.7431 -0.0384  2.9943
 1657TIP3    H226387   0.205   3.594  14.184  0.2415  1.0253 -1.4928
 1658TIP3   OH226388   4.149   2.809  13.228  0.0223 -0.1408 -0.1234
 1658TIP3    H126389   4.117   2.763  13.305  0.1984  0.9644  0.6309
 1658TIP3    H226390   4.073   2.854  13.192  0.1572  0.2455  0.0638
 1659TIP3   OH226391   5.052   3.981   2.339 -0.2911  0.3826  0.4560
 1659TIP3    H126392   5.079   4.052   2.281  1.0740 -0.5986 -0.1506
 1659TIP3    H226393   5.109   3.991   2.416  0.6209 -0.6287 -0.0645
 1660TIP3   OH226394   3.683   2.270  13.176  0.2681  0.2112  0.1579
 1660TIP3    H126395   3.733   2.323  13.114  1.4027 -0.5143  0.4242
 1660TIP3    H226396   3.750   2.221  13.225 -0.7408 -1.4084 -0.0307
 1661TIP3   OH226397   1.770   3.957   3.845 -0.1524 -0.1617  0.4417
 1661TIP3    H126398   1.677   3.974   3.834 -0.7567 -2.0615  2.0006
 1661TIP3    H226399   1.797   4.014   3.918  0.0279  0.6849 -0.2728
 1662TIP3   OH226400   5.816   5.355   2.259 -0.4310  0.3871  0.3290
 1662TIP3    H126401   5.849   5.308   2.183 -1.5776 -0.3723  0.2816
 1662TIP3    H226402   5.744   5.301   2.292  0.5787  0.2421  2.4804
 1663TIP3   OH226403   3.796   3.192  11.619  0.1403  0.2483  0.8285
 1663TIP3    H126404   3.861   3.252  11.584 -0.3826 -0.0715 -0.7929
 1663TIP3    H226405   3.713   3.239  11.611 -0.4875 -1.1252 -1.8298
 1664TIP3   OH226406   0.101   4.638   5.093 -0.1931  0.0928  0.1950
 1664TIP3    H126407   0.033   4.650   5.026  0.6237 -1.1537 -0.8985
 1664TIP3    H226408   0.065   4.681   5.171 -2.1477 -0.3307 -0.4081
 1665TIP3   OH226409   4.922   5.833   3.972  0.0820  0.2843  0.0946
 1665TIP3    H126410   4.949   5.773   4.041 -0.6330 -1.3253 -0.9547
 1665TIP3    H226411   4.975   5.808   3.896 -2.2774 -1.1064 -1.2095
 1666TIP3   OH226412   0.833   0.531   0.993 -0.0786  0.0465 -0.1939
 1666TIP3    H126413   0.891   0.483   1.053  0.1132 -0.0145 -0.4272
 1666TIP3    H226414   0.771   0.575   1.051 -0.1182 -0.3022  0.0380
 1667TIP3   OH226415   3.614   5.160   0.006  0.0831 -0.1100 -0.1851
 1667TIP3    H126416   3.705   5.155  -0.021 -0.1362 -0.7482 -0.8292
 1667TIP3    H226417   3.617   5.195   0.095  0.9130  0.4167 -0.4106
 1668TIP3   OH226418   5.704   4.971  12.469 -0.1303  0.1384 -0.3799
 1668TIP3    H126419   5.797   4.961  12.450 -0.1778  1.2135 -1.2782
 1668TIP3    H226420   5.664   4.889  12.438  0.2431  0.5277 -1.9665
 1669TIP3   OH226421   4.425   2.401   6.194 -0.5993 -0.1806  0.1085
 1669TIP3    H126422   4.470   2.438   6.270 -0.4064  0.2376 -0.2067
 1669TIP3    H226423   4.381   2.324   6.228 -1.5380  0.6879  0.9328
 1670TIP3   OH226424   0.793   3.425   6.106  0.6124  0.0050 -0.0719
 1670TIP3    H126425   0.841   3.399   6.027  0.5341  1.9449 -0.8031
 1670TIP3    H226426   0.701   3.406   6.085  0.7294 -0.8309  0.1346
 1671TIP3   OH226427   3.029   5.945   0.918  0.3056  0.1476  0.2167
 1671TIP3    H126428   3.078   5.920   0.840 -0.0689  0.6453 -0.1803
 1671TIP3    H226429   3.083   6.012   0.959  0.5274 -0.1498  0.4242
 1672TIP3   OH226430   3.174   5.438  16.004  0.5203 -0.3476 -0.1972
 1672TIP3    H126431   3.227   5.472  15.932  1.7366 -0.4079  0.6502
 1672TIP3    H226432   3.084   5.459  15.979  0.8883 -0.7372 -1.9248
 1673TIP3   OH226433   0.460   2.040   4.571  0.4690 -0.2502 -0.1935
 1673TIP3    H126434   0.395   2.094   4.528  0.3142  0.1045  0.4628
 1673TIP3    H226435   0.419   1.954   4.579  1.0407 -0.7141 -2.0015
 1674TIP3   OH226436   1.901   1.448  16.275  0.1423  0.4332  0.6106
 1674TIP3    H126437   1.936   1.536  16.262 -0.7878  0.4973 -1.9864
 1674TIP3    H226438   1.810   1.453  16.243  0.1952 -1.5353  0.0070
 1675TIP3   OH226439   6.230   6.083   3.264  0.1149 -0.1840 -0.3775
 1675TIP3    H126440   6.177   6.094   3.186  0.8712 -0.9036 -1.0126
 1675TIP3    H226441   6.301   6.147   3.254 -0.2022  0.2409  0.0854
 1676TIP3   OH226442   1.172   0.748  15.392  0.3691  0.6959  0.1601
 1676TIP3    H126443   1.096   0.698  15.423 -0.3180  1.6326  0.0137
 1676TIP3    H226444   1.247   0.696  15.421 -0.3163 -0.7878 -0.5728
 1677TIP3   OH226445   1.759   4.392  11.648  0.2338 -0.5633 -0.1579
 1677TIP3    H126446   1.700   4.391  11.572 -0.6589 -2.4206  0.4902
 1677TIP3    H226447   1.724   4.323  11.706  0.4194  1.2827  2.2988
 1678TIP3   OH226448   5.304   0.228  14.959 -0.0670 -0.6581  0.5450
 1678TIP3    H126449   5.373   0.277  15.004 -2.3395  1.4194  2.0865
 1678TIP3    H226450   5.276   0.161  15.022 -0.4861 -0.4459  0.5923
 1679TIP3   OH226451   4.905   0.420  17.088  0.2026  0.7907 -0.2967
 1679TIP3    H126452   4.911   0.377  17.173  0.8170  0.9461 -0.2566
 1679TIP3    H226453   4.970   0.489  17.091 -0.0285  1.0353 -0.7598
 1680TIP3   OH226454   3.702   2.901  17.064  1.2732 -0.1035 -0.4989
 1680TIP3    H126455   3.790   2.925  17.037  1.3416  0.9573  0.5842
 1680TIP3    H226456   3.713   2.823  17.117  1.8980  1.3677  1.6612
 1681TIP3   OH226457   0.667   3.353   1.862  0.1416  0.8652 -0.1432
 1681TIP3    H126458   0.746   3.357   1.916 -0.7818 -4.6169  2.2681
 1681TIP3    H226459   0.595   3.366   1.924 -1.0450  3.0001 -1.8180
 1682TIP3   OH226460   2.601   3.938  16.888 -0.5354 -0.1251  0.2647
 1682TIP3    H126461   2.658   3.865  16.912 -0.5230 -0.2925 -0.2774
 1682TIP3    H226462   2.612   4.000  16.960  1.5177  0.5319 -0.5555
 1683TIP3   OH226463   2.334   3.197  12.710  0.6524 -0.7701  0.4651
 1683TIP3    H126464   2.401   3.148  12.758  0.2766  0.2542  2.1286
 1683TIP3    H226465   2.380   3.230  12.633  2.5110  0.9336  2.1627
 1684TIP3   OH226466   5.138   0.322   0.620 -0.2818  0.4779 -0.1040
 1684TIP3    H126467   5.111   0.231   0.632  0.1674  0.1093 -1.6581
 1684TIP3    H226468   5.155   0.330   0.526  1.9812  1.4950  0.3135
 1685TIP3   OH226469   4.745   2.682  15.402  0.1296 -0.0395  0.6676
 1685TIP3    H126470   4.731   2.659  15.310 -0.9756 -0.7552  0.9975
 1685TIP3    H226471   4.658   2.708  15.433  0.6717  1.1372  1.2715
 1686TIP3   OH226472   5.526   3.797   2.821 -0.1611 -0.2097 -0.2889
 1686TIP3    H126473   5.523   3.755   2.736 -0.7922  1.3152 -1.0536
 1686TIP3    H226474   5.620   3.801   2.843 -0.0497 -1.3182 -0.5274
 1687TIP3   OH226475   2.061   5.565  15.178 -0.6398 -0.4348  0.1387
 1687TIP3    H126476   2.115   5.494  15.146  0.5965  0.4856  0.0981
 1687TIP3    H226477   2.074   5.636  15.115 -0.3667  0.4467  1.1533
 1688TIP3   OH226478   6.518   0.796   0.041 -0.2890  0.7070  0.5752
 1688TIP3    H126479   6.569   0.768   0.118  0.7976 -1.2402 -0.7552
 1688TIP3    H226480   6.427   0.791   0.069  0.0003 -1.5152  1.3528
 1689TIP3   OH226481   1.708   4.090  14.779  0.1775  0.0655  0.2168
 1689TIP3    H126482   1.678   4.175  14.809  1.2920  0.3970  0.4497
 1689TIP3    H226483   1.713   4.097  14.684  0.9166  0.4921  0.2821
 1690TIP3   OH226484   2.781   0.913   0.975  0.5336  0.3003  0.2860
 1690TIP3    H126485   2.714   0.853   0.942  0.7339  0.2065  0.0453
 1690TIP3    H226486   2.844   0.857   1.021  0.1479  0.4538  1.0149
 1691TIP3   OH226487   2.589   2.725  15.438  0.0788 -0.1326  0.6417
 1691TIP3    H126488   2.615   2.713  15.529 -0.2483  1.0053  0.8972
 1691TIP3    H226489   2.667   2.761  15.395  0.3088 -0.8937  0.4111
 1692TIP3   OH226490   2.729   5.352  14.357 -0.0285 -0.4199 -0.1413
 1692TIP3    H126491   2.714   5.273  14.306  1.5193 -1.3857  0.8200
 1692TIP3    H226492   2.707   5.424  14.297  0.1145 -1.5442 -1.5906
 1693TIP3   OH226493   1.739   5.070  14.161  0.3478  0.2633  0.6253
 1693TIP3    H126494   1.691   5.153  14.158  2.1734  1.4009  0.6916
 1693TIP3    H226495   1.817   5.087  14.108  0.9912 -1.2737  1.0396
 1694TIP3   OH226496   4.351   1.403  15.921 -0.4222 -0.6414  0.5845
 1694TIP3    H126497   4.368   1.464  15.849  0.8943 -1.9810 -0.3011
 1694TIP3    H226498   4.290   1.339  15.885  0.1676 -1.2652  0.6564
 1695TIP3   OH226499   5.644   0.379   2.570 -0.4379  0.0601  0.0657
 1695TIP3    H126500   5.581   0.309   2.588 -1.9884  0.1701 -3.8276
 1695TIP3    H226501   5.730   0.340   2.586 -1.2654 -2.7276 -1.6379
 1696TIP3   OH226502   2.899   4.962   0.729 -0.3551  0.4727  0.8434
 1696TIP3    H126503   2.917   4.892   0.666 -0.8418 -0.4122  1.6605
 1696TIP3    H226504   2.834   5.017   0.686 -0.8072 -0.2137  0.6271
 1697TIP3   OH226505   0.486   0.541   0.054 -0.6522 -0.1564  0.1718
 1697TIP3    H126506   0.515   0.632   0.053  0.6161 -0.5342  0.5970
 1697TIP3    H226507   0.518   0.506   0.137  0.7362 -1.5559 -0.8983
 1698TIP3   OH226508   0.209   6.249   3.052  0.4262  0.0608 -0.0315
 1698TIP3    H126509   0.265   6.300   2.994 -1.1821  1.3805 -0.5150
 1698TIP3    H226510   0.124   6.293   3.047 -0.3151 -1.0826  1.6701
 1699TIP3   OH226511   1.652   4.340   2.122  0.4740 -0.0438 -0.0015
 1699TIP3    H126512   1.696   4.424   2.126  2.3201 -0.4991 -4.4134
 1699TIP3    H226513   1.703   4.283   2.179  1.9372  0.8533 -0.3667
 1700TIP3   OH226514   2.955   4.765  13.963 -0.4825 -0.0372 -0.0117
 1700TIP3    H126515   3.045   4.756  13.994 -0.3320 -1.0977 -0.7050
 1700TIP3    H226516   2.962   4.816  13.883 -0.9286  3.2065  1.8195
 1701TIP3   OH226517   6.090   2.272   0.780 -0.1873  0.2947 -0.0852
 1701TIP3    H126518   6.119   2.251   0.869  1.0099 -0.3836 -0.6240
 1701TIP3    H226519   6.004   2.314   0.793  0.2774  0.8601  1.4285
 1702TIP3   OH226520   2.050   1.804  13.244  0.3146 -0.1387 -0.0143
 1702TIP3    H126521   1.982   1.854  13.200  0.2811  0.6075  0.8513
 1702TIP3    H226522   2.005   1.729  13.281  0.4952 -1.2736 -1.9779
 1703TIP3   OH226523   2.065   1.957  15.221 -0.5507 -0.1634  0.0314
 1703TIP3    H126524   2.082   1.972  15.128  0.7682 -0.6173  0.1821
 1703TIP3    H226525   2.142   1.991  15.266 -2.7399  3.7269  1.3608
 1704TIP3   OH226526   2.971   1.342   3.727 -0.3543  0.1377  0.7835
 1704TIP3    H126527   2.930   1.302   3.650  0.2199  1.1914 -0.0979
 1704TIP3    H226528   2.911   1.411   3.754  1.4247  2.8184 -1.5226
 1705TIP3   OH226529   1.413   4.248  13.521  0.3851  0.4769  0.0236
 1705TIP3    H126530   1.433   4.233  13.613 -0.3307  0.2969  0.1527
 1705TIP3    H226531   1.435   4.340  13.506 -1.2694  1.0361  0.8553
 1706TIP3   OH226532   4.397   0.649   0.534 -0.1644  0.2199  0.1926
 1706TIP3    H126533   4.326   0.712   0.528 -1.5946 -1.3591 -0.4069
 1706TIP3    H226534   4.455   0.683   0.602 -1.5475  1.5015  0.7678
 1707TIP3   OH226535   1.890   5.612  11.406  0.4350  0.4299  0.2860
 1707TIP3    H126536   1.886   5.516  11.400  1.3388  0.4765 -2.5577
 1707TIP3    H226537   1.819   5.643  11.351 -0.3968  1.4605  1.8631
 1708TIP3   OH226538   0.066   5.492  11.354 -0.1782  0.6053 -0.4113
 1708TIP3    H126539  -0.002   5.543  11.398  0.8469  1.2644  0.4651
 1708TIP3    H226540   0.032   5.403  11.354 -1.7842  1.1673 -1.5148
 1709TIP3   OH226541   5.069   2.008  16.075  0.3781  0.1752  0.5808
 1709TIP3    H126542   5.101   2.033  15.988 -0.0261 -0.0271  0.3681
 1709TIP3    H226543   5.017   2.083  16.103 -0.3484 -0.1699  0.1963
 1710TIP3   OH226544   0.421   2.484  15.956 -0.2722  0.3247 -0.6453
 1710TIP3    H126545   0.461   2.400  15.935  0.4204  0.9568 -2.0063
 1710TIP3    H226546   0.440   2.498  16.049  2.3544  0.4092 -1.1252
 1711TIP3   OH226547   1.384   5.089  14.828  0.3646  0.7159 -0.1914
 1711TIP3    H126548   1.310   5.078  14.888 -1.1728 -0.7914 -2.2147
 1711TIP3    H226549   1.364   5.032  14.754  2.0568  2.6105 -2.2645
 1712TIP3   OH226550   2.472   3.872   2.054 -0.8812  0.6593  0.1065
 1712TIP3    H126551   2.497   3.933   1.985 -0.7858 -0.2636 -0.6917
 1712TIP3    H226552   2.385   3.841   2.028 -0.6313 -0.0821  0.1133
 1713TIP3   OH226553   1.644   2.932  11.291  0.4862  0.4389 -0.1174
 1713TIP3    H126554   1.710   2.868  11.317 -0.3961 -0.9412 -1.1409
 1713TIP3    H226555   1.561   2.885  11.297 -0.2727  1.7092 -0.2464
 1714TIP3   OH226556   0.292   0.180  16.574 -0.1595 -0.1114  0.0453
 1714TIP3    H126557   0.278   0.182  16.479  0.2294  0.8430  0.0029
 1714TIP3    H226558   0.257   0.263  16.606  0.7526  0.0783  0.5891
 1715TIP3   OH226559   2.514   0.098  15.199  0.2885 -0.0802  0.0523
 1715TIP3    H126560   2.604   0.065  15.202 -0.1250 -1.1711  1.6052
 1715TIP3    H226561   2.514   0.159  15.125  2.0133 -0.8734 -0.6686
 1716TIP3   OH226562   3.365   4.686   0.571 -0.0123 -0.1288  0.2084
 1716TIP3    H126563   3.365   4.624   0.644 -1.1470 -0.6900 -0.2547
 1716TIP3    H226564   3.444   4.665   0.522  2.8339  2.5351  3.0903
 1717TIP3   OH226565   1.596   6.168  16.072 -0.0772  0.1817  0.8205
 1717TIP3    H126566   1.646   6.088  16.055 -0.0785  0.4472 -0.5337
 1717TIP3    H226567   1.662   6.236  16.084 -0.0108  0.8868 -2.6936
 1718TIP3   OH226568   3.494   5.150   5.574  0.5714 -0.6343  0.4955
 1718TIP3    H126569   3.488   5.180   5.484  1.3361 -0.2425  0.5599
 1718TIP3    H226570   3.491   5.230   5.627  2.6484 -0.6108  0.6682
 1719TIP3   OH226571   2.736   2.718  12.904  0.2065  0.7340 -0.0327
 1719TIP3    H126572   2.720   2.773  12.827  0.4938  1.0756  0.1421
 1719TIP3    H226573   2.693   2.765  12.976 -0.3510  0.2428 -0.0414
 1720TIP3   OH226574   0.149   6.221   4.328 -0.0214  0.4583 -0.0436
 1720TIP3    H126575   0.133   6.134   4.291 -1.6112  0.4954  0.4565
 1720TIP3    H226576   0.236   6.245   4.296  1.1903 -1.9719  1.0772
 1721TIP3   OH226577   1.918   0.828   2.656  0.4691 -0.4120 -0.5697
 1721TIP3    H126578   1.833   0.803   2.691  0.1572  1.1032 -0.1947
 1721TIP3    H226579   1.910   0.815   2.562 -0.2136 -0.2023 -0.5455
 1722TIP3   OH226580   1.844   6.458  13.250  0.3485 -0.0071 -0.0186
 1722TIP3    H126581   1.825   6.520  13.321 -1.2039 -1.8695  1.2929
 1722TIP3    H226582   1.797   6.494  13.174 -0.7147  0.3488  0.7782
 1723TIP3   OH226583   2.266   3.835  15.782  0.0229  0.4053 -0.6024
 1723TIP3    H126584   2.333   3.886  15.737 -0.3061  2.1757  0.7962
 1723TIP3    H226585   2.298   3.826  15.872 -0.0810 -1.6557 -0.7250
 1724TIP3   OH226586   0.366   4.267   1.156  0.3216 -0.3221 -0.3939
 1724TIP3    H126587   0.373   4.260   1.251  0.4287  2.8579 -0.0670
 1724TIP3    H226588   0.272   4.271   1.139  0.3172 -0.3065 -0.3657
 1725TIP3   OH226589   1.763   5.821  14.829  0.3194  0.2895  0.0250
 1725TIP3    H126590   1.775   5.885  14.899 -1.1916 -0.8150  1.3770
 1725TIP3    H226591   1.748   5.873  14.751  1.0026  1.5682  0.7164
 1726TIP3   OH226592   3.877   2.415   2.575 -0.5578  0.3634  0.0040
 1726TIP3    H126593   3.808   2.443   2.515 -0.1275 -1.9183 -1.6886
 1726TIP3    H226594   3.942   2.486   2.570 -0.9384  0.6539 -1.6051
 1727TIP3   OH226595   6.047   5.373  13.385  0.4972  0.2560  0.1868
 1727TIP3    H126596   6.052   5.453  13.437 -1.4826  0.0581  0.7609
 1727TIP3    H226597   6.031   5.404  13.296  1.7445  0.5205  0.0269
 1728TIP3   OH226598   1.973   6.077  17.064 -0.2442  0.3622 -0.3663
 1728TIP3    H126599   1.946   6.017  16.994 -1.1545 -0.7001  0.8512
 1728TIP3    H226600   2.068   6.066  17.069 -0.1598  0.4834 -1.4455
 1729TIP3   OH226601   4.172   1.954   2.375 -0.0362  0.6336 -0.0391
 1729TIP3    H126602   4.114   2.011   2.325  1.1248  1.1419 -0.8492
 1729TIP3    H226603   4.142   1.865   2.357 -0.5341  0.8868 -0.4593
 1730TIP3   OH226604   3.310   2.169   4.299  0.0085  0.0429  0.3848
 1730TIP3    H126605   3.242   2.236   4.307 -0.4597 -0.0849 -2.0256
 1730TIP3    H226606   3.377   2.197   4.362 -0.5157  2.3542  0.0220
 1731TIP3   OH226607   6.085   4.848   0.279 -0.2227  0.2919 -0.3124
 1731TIP3    H126608   6.160   4.797   0.310  1.5244  3.4010  1.0669
 1731TIP3    H226609   6.113   4.939   0.287 -3.0934  1.5566 -2.6596
 1732TIP3   OH226610   5.080   3.343  11.594 -0.6985  0.4597 -0.7591
 1732TIP3    H126611   5.026   3.299  11.660  2.3798  0.6561  2.1378
 1732TIP3    H226612   5.078   3.435  11.619  1.0347  0.4494 -0.4966
 1733TIP3   OH226613   0.979   3.238  15.790 -0.1526  0.2105  0.2847
 1733TIP3    H126614   0.913   3.305  15.771  0.4608  1.5054  2.3955
 1733TIP3    H226615   1.062   3.280  15.768  0.1337 -0.6783 -0.4017
 1734TIP3   OH226616   3.026   1.934  13.610 -0.3977  0.0847  0.0193
 1734TIP3    H126617   3.052   1.843  13.596 -0.6204  0.1798 -1.1153
 1734TIP3    H226618   2.938   1.940  13.572 -0.4890  0.7092  0.3215
 1735TIP3   OH226619   4.528   0.865   5.803  0.2207  0.2321 -0.1862
 1735TIP3    H126620   4.610   0.858   5.755  0.4370 -0.7145  0.2941
 1735TIP3    H226621   4.508   0.958   5.803  1.7994  0.6040  0.5247
 1736TIP3   OH226622   6.099   5.475  16.308 -0.0976 -0.1453 -0.1975
 1736TIP3    H126623   6.146   5.556  16.288 -0.5009 -0.0934 -0.9936
 1736TIP3    H226624   6.016   5.505  16.346  0.3506 -0.2265  0.8623
 1737TIP3   OH226625   1.265   4.458   3.958 -0.2189 -0.4382 -0.3288
 1737TIP3    H126626   1.276   4.548   3.990  0.8134 -0.5599 -0.3058
 1737TIP3    H226627   1.208   4.416   4.022  0.5360 -0.2247  0.4995
 1738TIP3   OH226628   4.718   1.427  17.162 -0.5317  0.2453  0.2222
 1738TIP3    H126629   4.645   1.487  17.180 -0.7694 -0.0782  0.3618
 1738TIP3    H226630   4.790   1.484  17.137 -0.7802  0.5852  0.2615
 1739TIP3   OH226631   0.813   2.721   0.885  0.6453 -0.1864 -0.1716
 1739TIP3    H126632   0.877   2.649   0.890 -0.8254 -1.9013 -3.1413
 1739TIP3    H226633   0.846   2.778   0.816  0.6820  0.8585  0.6823
 1740TIP3   OH226634   3.956   4.815   2.568 -0.4020  0.5494 -0.7669
 1740TIP3    H126635   3.968   4.733   2.616 -0.2013  0.8288 -0.3420
 1740TIP3    H226636   4.025   4.872   2.600  0.3474  0.4301 -2.0783
 1741TIP3   OH226637   4.457   1.688   2.302 -0.4702 -0.4629  0.6814
 1741TIP3    H126638   4.465   1.769   2.351 -1.0475  0.9096 -1.3755
 1741TIP3    H226639   4.363   1.669   2.303 -0.8245  0.8294 -1.6790
 1742TIP3   OH226640   3.047   2.147  13.425  0.5879  0.3652 -0.4624
 1742TIP3    H126641   3.116   2.192  13.475  1.2562 -1.9667  0.8316
 1742TIP3    H226642   3.014   2.080  13.485 -1.7910  0.4261 -1.6056
 1743TIP3   OH226643   5.429   3.343  11.512  0.1946  0.6891  0.1171
 1743TIP3    H126644   5.355   3.302  11.558 -0.1477 -0.5013 -1.4085
 1743TIP3    H226645   5.504   3.287  11.532 -0.0183 -0.0200 -0.9478
 1744TIP3   OH226646   3.595   1.476  12.457 -0.2703  0.4002  0.1275
 1744TIP3    H126647   3.575   1.405  12.518  0.4783  1.1208  1.2487
 1744TIP3    H226648   3.618   1.431  12.375  1.2128 -0.7341  1.1091
 1745TIP3   OH226649   6.590   1.065  14.604 -0.2018 -0.5334  0.0378
 1745TIP3    H126650   6.556   1.060  14.694  1.0676  1.0521  0.6471
 1745TIP3    H226651   6.528   1.123  14.559 -1.0006 -1.5542 -0.2327
 1746TIP3   OH226652   3.683   6.583  16.951  0.5964 -0.4795 -0.1853
 1746TIP3    H126653   3.671   6.626  16.866  2.2700 -0.7610 -0.6013
 1746TIP3    H226654   3.754   6.520  16.936  0.1774 -1.3127  1.1547
 1747TIP3   OH226655   0.121   2.682  12.940 -0.5116 -0.0472  0.7274
 1747TIP3    H126656   0.030   2.658  12.957 -0.8346 -0.3939 -1.1588
 1747TIP3    H226657   0.122   2.777  12.941 -1.0377 -0.0306  0.1722
 1748TIP3   OH226658   0.219   6.044  13.924  0.3420  0.3044  0.1570
 1748TIP3    H126659   0.282   6.063  13.855  1.1026 -0.9966  0.4720
 1748TIP3    H226660   0.251   5.965  13.966 -1.4405 -0.3504  0.3917
 1749TIP3   OH226661   6.466   4.816   3.934  0.0782 -0.1343 -0.1747
 1749TIP3    H126662   6.456   4.756   4.008  0.8498  0.1952  0.2072
 1749TIP3    H226663   6.376   4.842   3.912 -0.2414 -1.2075 -0.1735
 1750TIP3   OH226664   5.487   4.644   0.964  0.2269  0.8116 -0.0109
 1750TIP3    H126665   5.456   4.553   0.965  1.6711  0.3069 -0.1017
 1750TIP3    H226666   5.471   4.673   0.874 -1.4720  1.1182  0.3462
 1751TIP3   OH226667   5.993   4.607  16.547 -0.0144 -0.1619 -0.5033
 1751TIP3    H126668   6.068   4.642  16.595 -0.2472 -0.9822  0.5072
 1751TIP3    H226669   6.025   4.594  16.458  0.3104  1.7978 -0.7126
 1752TIP3   OH226670   2.653   4.610  14.812  0.3143 -0.0158 -0.2578
 1752TIP3    H126671   2.610   4.679  14.761 -1.9335 -0.3876  1.0121
 1752TIP3    H226672   2.745   4.613  14.784 -0.3954  1.2189 -2.6757
 1753TIP3   OH226673   1.657   4.808   2.780  0.1652  0.6945 -0.2540
 1753TIP3    H126674   1.715   4.870   2.825 -1.3645  2.1326 -0.1673
 1753TIP3    H226675   1.570   4.847   2.788 -0.9062 -1.5948 -0.0176
 1754TIP3   OH226676   6.728   6.760   1.524  0.2240  0.3019  0.0530
 1754TIP3    H126677   6.734   6.711   1.442 -2.7793 -1.7748  0.8858
 1754TIP3    H226678   6.666   6.831   1.505 -1.3319 -0.8179  0.6652
 1755TIP3   OH226679   3.020   0.958   2.339  0.2107  0.2271  0.0069
 1755TIP3    H126680   3.051   0.986   2.253  1.7592  0.0169  0.4719
 1755TIP3    H226681   3.078   1.001   2.401  0.1838 -0.9438  0.8825
 1756TIP3   OH226682   6.521   1.944   3.388  0.0262  0.8365  0.7906
 1756TIP3    H126683   6.463   1.942   3.464  0.2102 -1.2469  0.9270
 1756TIP3    H226684   6.493   2.021   3.339 -0.1682  2.1756  2.8952
 1757TIP3   OH226685   5.456   4.423  13.125 -1.0489  0.5150  0.8487
 1757TIP3    H126686   5.386   4.365  13.153 -0.1898 -0.5539  0.8442
 1757TIP3    H226687   5.529   4.404  13.184  0.4666 -1.0894 -1.3591
 1758TIP3   OH226688   5.041   6.469   1.600 -0.1282  0.2186 -0.5152
 1758TIP3    H126689   5.048   6.388   1.549 -0.4023  0.0710 -0.3210
 1758TIP3    H226690   5.132   6.492   1.620 -0.0775 -0.5071  0.1515
 1759TIP3   OH226691   6.746   3.232   0.626 -0.1037 -0.3435 -0.0656
 1759TIP3    H126692   6.800   3.217   0.704  0.8825  0.4037 -0.5714
 1759TIP3    H226693   6.794   3.189   0.555 -1.0465 -1.1090 -0.2539
 1760TIP3   OH226694   5.205   4.347  15.503  0.0228 -0.1060  0.1928
 1760TIP3    H126695   5.169   4.277  15.557  0.1109 -0.1926  0.1380
 1760TIP3    H226696   5.299   4.330  15.500  0.0985  0.2302  0.4946
 1761TIP3   OH226697   3.572   2.899  11.837  0.5457  0.4751 -0.1478
 1761TIP3    H126698   3.536   2.872  11.921  2.1157 -0.0426  0.3987
 1761TIP3    H226699   3.575   2.995  11.842  1.0872  0.4319  0.6070
 1762TIP3   OH226700   0.855   0.549   2.837  0.1065 -0.5201  0.4693
 1762TIP3    H126701   0.803   0.624   2.866  0.5837  0.2406 -0.5803
 1762TIP3    H226702   0.795   0.498   2.783  0.2592  0.0700 -0.2894
 1763TIP3   OH226703   4.475   1.639   3.177 -0.1653 -0.2652 -0.5196
 1763TIP3    H126704   4.411   1.601   3.237 -0.4604 -0.2322 -0.8135
 1763TIP3    H226705   4.422   1.683   3.110  0.1391 -1.4009 -1.5396
 1764TIP3   OH226706   2.085   4.983  14.456 -0.3011  0.4388  0.5786
 1764TIP3    H126707   2.104   5.050  14.521  1.8766  1.0634 -0.5694
 1764TIP3    H226708   1.990   4.977  14.453 -0.6739  4.3202 -0.0569
 1765TIP3   OH226709   5.033   2.599   4.277  0.3238 -0.1010  0.2328
 1765TIP3    H126710   5.037   2.560   4.365 -0.6666  1.3811  0.9884
 1765TIP3    H226711   4.946   2.640   4.274  1.1842  1.7594 -0.6014
 1766TIP3   OH226712   4.141   6.615   5.395  0.1853 -0.0859  0.4690
 1766TIP3    H126713   4.216   6.596   5.338 -0.9643  0.0549 -1.1557
 1766TIP3    H226714   4.089   6.679   5.347 -2.7527 -2.6263 -0.1022
 1767TIP3   OH226715   3.109   0.457  12.210 -0.2190 -0.4878  0.0220
 1767TIP3    H126716   3.124   0.499  12.294  1.3502 -0.0445 -0.4435
 1767TIP3    H226717   3.100   0.530  12.148 -2.5042 -0.7696 -0.0750
 1768TIP3   OH226718   3.878   3.722  11.300 -0.7651 -0.4172 -0.7626
 1768TIP3    H126719   3.829   3.773  11.236 -0.6990 -0.5283 -0.9025
 1768TIP3    H226720   3.873   3.774  11.381 -0.9077 -0.3122 -0.8383
 1769TIP3   OH226721   1.906   1.493  11.716  0.1092  0.0299 -0.6074
 1769TIP3    H126722   1.940   1.495  11.627 -0.4005 -1.0648 -0.8380
 1769TIP3    H226723   1.860   1.577  11.727 -0.9315 -0.3640 -1.8173
 1770TIP3   OH226724   0.261   1.375  14.469  0.3163 -0.1996 -0.3542
 1770TIP3    H126725   0.298   1.379  14.381  0.4674 -0.3531 -0.2983
 1770TIP3    H226726   0.337   1.368  14.527  0.2937  1.2012 -0.1180
 1771TIP3   OH226727   6.252   4.074  13.110  0.1760  0.0115 -0.0214
 1771TIP3    H126728   6.255   4.019  13.032  1.3005  0.8943 -0.6361
 1771TIP3    H226729   6.193   4.145  13.087 -0.3399 -0.2959  0.3368
 1772TIP3   OH226730   0.263   1.438  13.081  0.5418  0.3938 -0.3268
 1772TIP3    H126731   0.318   1.505  13.039  2.0724  0.2980  1.4176
 1772TIP3    H226732   0.306   1.421  13.165  0.0124 -2.5611 -0.5603
 1773TIP3   OH226733   0.321   6.177   4.852  0.2281  0.4641 -0.1311
 1773TIP3    H126734   0.365   6.117   4.792 -0.2260  0.3592 -0.3610
 1773TIP3    H226735   0.232   6.185   4.818 -0.0907  0.2688  0.6248
 1774TIP3   OH226736   1.821   4.917  12.311 -0.2455  0.2120 -0.4728
 1774TIP3    H126737   1.815   4.827  12.278  1.6496 -0.2517  0.2772
 1774TIP3    H226738   1.766   4.917  12.390 -1.9478  0.3406 -1.6152
 1775TIP3   OH226739   6.294   0.473   4.293 -1.0667  0.1646  0.1745
 1775TIP3    H126740   6.242   0.421   4.354 -0.4139 -0.1730  0.4593
 1775TIP3    H226741   6.384   0.442   4.306 -0.8645  0.3663 -0.6832
 1776TIP3   OH226742   4.564   4.244   3.087 -0.2380 -0.0770  0.2959
 1776TIP3    H126743   4.471   4.263   3.073 -0.5042 -1.9570 -0.8661
 1776TIP3    H226744   4.594   4.312   3.148 -2.0218  1.3962 -0.3815
 1777TIP3   OH226745   0.335   3.719   3.979  0.2791 -0.0875 -0.1870
 1777TIP3    H126746   0.273   3.678   3.918  0.9921 -0.7456 -0.4931
 1777TIP3    H226747   0.360   3.800   3.937 -1.6422  1.0458  0.7202
 1778TIP3   OH226748   2.090   5.386  14.826  0.1797  0.1784 -0.0519
 1778TIP3    H126749   2.130   5.309  14.867  0.5084  0.0471 -0.6136
 1778TIP3    H226750   2.159   5.452  14.826  0.7642 -0.3770 -1.9636
 1779TIP3   OH226751   4.392   4.741   5.568  0.1682 -0.4317 -0.0198
 1779TIP3    H126752   4.309   4.789   5.563  0.2397 -0.1318  1.3814
 1779TIP3    H226753   4.458   4.805   5.541  0.2547  0.2832  1.7610
 1780TIP3   OH226754   1.452   4.012  10.913 -0.4803 -0.4482 -0.9418
 1780TIP3    H126755   1.525   3.965  10.873  1.2011 -0.2821  1.7050
 1780TIP3    H226756   1.429   3.959  10.990 -0.9135  1.1863  0.1161
 1781TIP3   OH226757   4.724   0.063   2.440 -0.0617 -0.5994 -0.3320
 1781TIP3    H126758   4.779   0.138   2.419 -0.1693 -0.2321  0.6443
 1781TIP3    H226759   4.736   0.003   2.366 -0.3996  0.5972 -1.3858
 1782TIP3   OH226760   6.347   1.686  11.886  0.4653 -0.2254 -0.3651
 1782TIP3    H126761   6.351   1.718  11.977 -0.8693  0.7736 -0.6225
 1782TIP3    H226762   6.404   1.746  11.837 -0.1869  0.3282 -0.4600
 1783TIP3   OH226763   0.737   6.086   6.070  0.0439  0.2766 -0.4164
 1783TIP3    H126764   0.675   6.150   6.104 -0.0093 -1.3415  2.9576
 1783TIP3    H226765   0.697   6.001   6.090  2.0395 -0.8015 -0.7576
 1784TIP3   OH226766   2.362   3.750   1.737 -0.5619 -0.4153 -0.9280
 1784TIP3    H126767   2.331   3.740   1.828  0.5502 -0.8130 -0.5764
 1784TIP3    H226768   2.363   3.660   1.703 -0.5214 -0.3154 -1.1846
 1785TIP3   OH226769   4.401   6.327  15.750  0.1180  0.0916 -0.3979
 1785TIP3    H126770   4.411   6.398  15.814  3.0713  0.6317 -1.2722
 1785TIP3    H226771   4.392   6.248  15.802 -2.0960  0.9268  0.6043
 1786TIP3   OH226772   0.475   2.511   3.194  0.5579 -0.4856  0.1498
 1786TIP3    H126773   0.477   2.592   3.144 -1.4330 -0.1577  0.5369
 1786TIP3    H226774   0.565   2.499   3.224  1.2195  0.7038 -1.2594
 1787TIP3   OH226775   4.146   3.108   2.964 -0.1847  0.1708  0.2988
 1787TIP3    H126776   4.090   3.126   3.040  0.7569  0.5083  0.9362
 1787TIP3    H226777   4.201   3.035   2.991 -1.0847 -0.9271 -0.7431
 1788TIP3   OH226778   5.832   2.028  14.371  0.5844 -0.0063  0.1525
 1788TIP3    H126779   5.908   2.085  14.360  0.6370 -0.3037 -1.1668
 1788TIP3    H226780   5.821   2.020  14.466  2.1107  0.1430  0.3585
 1789TIP3   OH226781   6.600   0.619  13.572  0.1917 -0.7514  0.1919
 1789TIP3    H126782   6.594   0.620  13.477 -0.0404  1.2389  0.1977
 1789TIP3    H226783   6.528   0.563  13.600  1.2110 -2.6786 -0.8057
 1790TIP3   OH226784   2.299   1.810  11.491 -0.0122 -0.5679 -0.2359
 1790TIP3    H126785   2.386   1.820  11.452  0.6731  0.0972  1.3739
 1790TIP3    H226786   2.296   1.718  11.517 -0.1316 -0.7971 -1.0261
 1791TIP3   OH226787   1.904   3.310  16.601  0.2509 -0.3498  0.1139
 1791TIP3    H126788   1.892   3.267  16.685  0.5048 -0.7009 -0.0255
 1791TIP3    H226789   1.901   3.404  16.621 -1.1684 -0.4115  0.2963
 1792TIP3   OH226790   3.302   4.621  12.072 -0.4049 -0.0671  0.5558
 1792TIP3    H126791   3.388   4.659  12.054 -0.3142 -1.0853 -1.4656
 1792TIP3    H226792   3.275   4.582  11.989 -2.6078 -0.2235  1.2759
 1793TIP3   OH226793   2.738   0.091   0.628  0.0040 -0.0484 -0.0543
 1793TIP3    H126794   2.651   0.106   0.665 -0.6899  2.4963 -2.3882
 1793TIP3    H226795   2.767   0.009   0.668 -2.1788  0.5332  3.0604
 1794TIP3   OH226796   3.457   6.488   0.962 -0.3323 -0.3531 -0.1915
 1794TIP3    H126797   3.469   6.492   0.867  0.5148  0.3199 -0.0687
 1794TIP3    H226798   3.527   6.431   0.993  0.1268  0.3632  0.1335
 1795TIP3   OH226799   3.168   6.696  11.332  0.2651 -1.2287 -0.5658
 1795TIP3    H126800   3.174   6.782  11.375 -0.0925 -2.2919  1.7659
 1795TIP3    H226801   3.090   6.703  11.276 -0.9073 -0.5898  1.0590
 1796TIP3   OH226802   1.222   4.501   1.004 -0.2849 -0.0851 -0.0535
 1796TIP3    H126803   1.263   4.415   0.996  1.3776  0.5738  0.8420
 1796TIP3    H226804   1.248   4.532   1.091 -3.8742 -0.1613  1.2025
 1797TIP3   OH226805   6.505   4.801   6.110  0.0120 -0.5610 -1.0391
 1797TIP3    H126806   6.497   4.709   6.132  0.7329 -0.3338  0.2717
 1797TIP3    H226807   6.547   4.841   6.187 -0.9550  0.9822 -1.2696
 1798TIP3   OH226808   6.719   3.543  11.407  0.5133 -0.1351  0.4935
 1798TIP3    H126809   6.787   3.552  11.473  1.4448 -0.6671 -0.3622
 1798TIP3    H226810   6.637   3.542  11.456  1.1788 -0.4394  1.6197
 1799TIP3   OH226811   1.971   4.369   2.698  0.2883  0.0019 -0.3525
 1799TIP3    H126812   2.000   4.399   2.784  0.9740 -1.6955  0.0602
 1799TIP3    H226813   1.951   4.449   2.650  0.0112  0.9983  1.3348
 1800TIP3   OH226814   0.610   1.812   1.909 -0.1088 -0.2437 -0.0295
 1800TIP3    H126815   0.576   1.833   1.997 -0.6834 -2.0945  0.2288
 1800TIP3    H226816   0.689   1.761   1.925 -1.3127 -2.3689 -0.5005
 1801TIP3   OH226817   0.737   3.620  12.584  0.1543 -0.6406  0.1200
 1801TIP3    H126818   0.771   3.584  12.666 -0.1974 -0.6743  0.2551
 1801TIP3    H226819   0.645   3.594  12.583 -0.6572  1.7879  1.1660
 1802TIP3   OH226820   2.221   3.287   4.857 -0.6880 -0.3558  0.2542
 1802TIP3    H126821   2.247   3.276   4.948 -0.7931  1.9586  0.6328
 1802TIP3    H226822   2.184   3.375   4.854  0.1691 -0.0205 -2.2304
 1803TIP3   OH226823   6.442   0.983  13.510  0.1189  0.5462  0.1604
 1803TIP3    H126824   6.353   1.016  13.525  0.3713  2.1074 -1.4235
 1803TIP3    H226825   6.429   0.902  13.461 -0.4677  0.8051 -0.1351
 1804TIP3   OH226826   2.441   5.625   2.296  0.4379  0.4231 -0.0875
 1804TIP3    H126827   2.371   5.574   2.337  0.1989  0.7362 -0.1009
 1804TIP3    H226828   2.521   5.585   2.328  0.2545  0.8204  0.8989
 1805TIP3   OH226829   2.681   3.591   5.729 -0.2036 -0.6604  0.0909
 1805TIP3    H126830   2.775   3.597   5.746 -0.1631 -1.1886  0.0618
 1805TIP3    H226831   2.641   3.611   5.814 -0.1025  0.6309 -0.1401
 1806TIP3   OH226832   2.756   1.540   4.954  0.1367  0.4381 -0.5479
 1806TIP3    H126833   2.784   1.592   5.029  1.3848  1.5466 -1.7250
 1806TIP3    H226834   2.665   1.517   4.974 -0.5420  3.1776  0.0150
 1807TIP3   OH226835   6.446   3.097   0.475 -0.1214  0.0243 -0.7287
 1807TIP3    H126836   6.536   3.064   0.475  0.0423  0.4719 -0.4061
 1807TIP3    H226837   6.396   3.029   0.519  0.2942  0.4062  0.3551
 1808TIP3   OH226838   3.688   1.230  13.900 -0.1614 -0.1623 -0.4028
 1808TIP3    H126839   3.609   1.183  13.928 -1.3206  1.1761 -1.2928
 1808TIP3    H226840   3.758   1.194  13.955 -1.1955 -2.0620 -0.2272
 1809TIP3   OH226841   0.459   4.807   3.824 -0.4650 -0.4833  0.6493
 1809TIP3    H126842   0.550   4.832   3.840 -0.4927 -0.1943  0.3831
 1809TIP3    H226843   0.411   4.839   3.900 -0.0551 -2.4740  1.8217
 1810TIP3   OH226844   3.201   0.854  13.506  0.1636 -0.2464  0.0285
 1810TIP3    H126845   3.275   0.888  13.456  0.3520 -0.4371  0.1806
 1810TIP3    H226846   3.240   0.802  13.575 -0.1276 -0.9774 -0.3472
 1811TIP3   OH226847   5.400   4.916  13.463  0.7529  0.9354 -0.2345
 1811TIP3    H126848   5.451   4.945  13.539 -0.3206  2.4834 -0.0711
 1811TIP3    H226849   5.364   4.996  13.426 -1.5780 -0.0837 -0.3503
 1812TIP3   OH226850   1.913   0.041  13.693 -0.1573  0.2937 -0.0336
 1812TIP3    H126851   1.938   0.133  13.687 -1.7868  0.6817 -1.3766
 1812TIP3    H226852   1.832   0.034  13.644 -0.4929 -1.7266  0.7004
 1813TIP3   OH226853   2.164   0.746   1.490 -0.4061 -0.3996 -0.0634
 1813TIP3    H126854   2.120   0.808   1.432 -0.4773  0.4788  0.9047
 1813TIP3    H226855   2.170   0.792   1.574  1.1612 -1.0173  0.1858
 1814TIP3   OH226856   1.569   5.949  16.539 -0.1097  0.0528  0.2912
 1814TIP3    H126857   1.515   5.967  16.615  0.4017 -0.5212  0.8031
 1814TIP3    H226858   1.643   5.899  16.573  1.3480  1.7764 -0.2082
 1815TIP3   OH226859   5.126   6.438   5.538  0.1088  0.4366  0.5249
 1815TIP3    H126860   5.178   6.436   5.619 -0.7813 -0.8382  1.1118
 1815TIP3    H226861   5.111   6.346   5.518  1.3525  0.6783 -1.8339
 1816TIP3   OH226862   3.043   0.581   2.600 -0.4967 -0.1473 -0.9712
 1816TIP3    H126863   3.041   0.543   2.688 -0.9028  1.3970 -0.2715
 1816TIP3    H226864   3.133   0.567   2.570 -0.0992  0.0654  0.0562
 1817TIP3   OH226865   5.405   1.569   2.681  0.3406 -0.1631  0.1139
 1817TIP3    H126866   5.422   1.602   2.769  1.8085 -0.9229  0.1375
 1817TIP3    H226867   5.490   1.573   2.637 -0.2624 -0.2967 -1.1132
 1818TIP3   OH226868   6.721   0.588   6.214  0.1504  0.3051  0.5974
 1818TIP3    H126869   6.739   0.512   6.270 -1.4133  0.4006  1.2842
 1818TIP3    H226870   6.634   0.570   6.177  1.3346 -0.0613 -2.3638
 1819TIP3   OH226871   3.522   5.962  10.577 -0.3355 -0.0962  0.5631
 1819TIP3    H126872   3.572   6.038  10.548 -0.1245  0.0342  1.2441
 1819TIP3    H226873   3.431   5.987  10.565 -0.3026 -0.9127 -2.1984
 1820TIP3   OH226874   2.584   4.532   3.137  0.0403  0.2053  0.8019
 1820TIP3    H126875   2.537   4.609   3.168  0.1550  1.0105 -0.8925
 1820TIP3    H226876   2.653   4.517   3.202  0.7034  2.1992  0.6138
 1821TIP3   OH226877   1.309   3.670  11.480 -0.1745  0.1680 -0.3395
 1821TIP3    H126878   1.395   3.630  11.466 -0.0371  0.1605  0.4955
 1821TIP3    H226879   1.319   3.722  11.559 -0.8104  0.5566 -0.5050
 1822TIP3   OH226880   1.602   3.250   3.256  0.7397 -0.1890  0.6409
 1822TIP3    H126881   1.600   3.203   3.173  2.4843  0.1169  0.3910
 1822TIP3    H226882   1.516   3.232   3.295  0.8637 -2.5391  0.0100
 1823TIP3   OH226883   4.512   5.398   1.642 -0.3521  0.3289  0.0787
 1823TIP3    H126884   4.528   5.347   1.722  0.1300  1.5056  0.7576
 1823TIP3    H226885   4.598   5.404   1.600 -0.6607 -0.5467 -0.7068
 1824TIP3   OH226886   6.249   5.366   3.287 -0.0048 -0.6474 -0.2651
 1824TIP3    H126887   6.162   5.342   3.255 -0.0945  0.0731 -0.5763
 1824TIP3    H226888   6.236   5.449   3.333  0.6228 -0.1757 -0.9152
 1825TIP3   OH226889   3.273   3.733   0.491 -0.3236 -0.0090 -0.2390
 1825TIP3    H126890   3.247   3.763   0.404 -0.1564  2.1893  0.4161
 1825TIP3    H226891   3.368   3.742   0.492 -0.4696  1.7341  0.7463
 1826TIP3   OH226892   3.220   3.272  13.843 -0.5647  0.2383  0.4517
 1826TIP3    H126893   3.252   3.276  13.933 -0.9199  1.6610  0.5451
 1826TIP3    H226894   3.156   3.200  13.843  0.8804 -1.0919  0.8171
 1827TIP3   OH226895   5.554   4.413  12.311 -0.4420 -0.5279  0.4944
 1827TIP3    H126896   5.607   4.468  12.253 -1.0711  0.2292  0.6182
 1827TIP3    H226897   5.501   4.475  12.361  0.7117 -1.0857  2.5378
 1828TIP3   OH226898   4.626   1.465  12.861 -0.4228 -0.3551 -0.0581
 1828TIP3    H126899   4.679   1.512  12.797  0.7844  0.7530  1.6973
 1828TIP3    H226900   4.616   1.377  12.824  1.4792 -0.1882 -1.0848
 1829TIP3   OH226901   4.018   4.659   4.765 -0.4187  0.1910 -0.0636
 1829TIP3    H126902   4.077   4.708   4.708  0.7512  1.8425  2.3761
 1829TIP3    H226903   4.019   4.708   4.848 -1.6379 -2.3146  1.5505
 1830TIP3   OH226904   3.046   0.282  14.309  0.0255  0.0240 -0.3132
 1830TIP3    H126905   2.993   0.204  14.325  0.7720 -0.5428 -0.5699
 1830TIP3    H226906   3.006   0.350  14.364 -1.3743 -0.1996 -1.0100
 1831TIP3   OH226907   6.670   3.231  11.537  0.0630 -0.1377  0.0278
 1831TIP3    H126908   6.727   3.163  11.573  1.3255  0.5046 -0.6848
 1831TIP3    H226909   6.731   3.295  11.499 -1.1303  0.8471 -0.2635
 1832TIP3   OH226910   0.018   1.840  12.183  0.0565 -0.1553 -0.1380
 1832TIP3    H126911   0.006   1.751  12.216 -0.9730  0.1385  0.3019
 1832TIP3    H226912   0.113   1.848  12.172  0.3498 -0.6852  1.5852
 1833TIP3   OH226913   5.742   5.981   5.556 -0.6515  0.0232  0.4007
 1833TIP3    H126914   5.697   5.978   5.640  0.8629  0.7007  1.2929
 1833TIP3    H226915   5.803   6.055   5.565 -0.4575  0.1007 -1.2934
 1834TIP3   OH226916   0.768   0.057  12.913 -0.1399 -0.6563 -0.2648
 1834TIP3    H126917   0.862   0.050  12.897  0.3491 -2.9902  2.6197
 1834TIP3    H226918   0.753   0.150  12.928  1.4494 -0.0789 -1.9518
 1835TIP3   OH226919   0.621   1.259  14.790  0.0114 -0.5787 -0.0649
 1835TIP3    H126920   0.703   1.211  14.804  1.6175  2.0875  0.2563
 1835TIP3    H226921   0.598   1.294  14.877  0.3062  1.3169 -0.7090
 1836TIP3   OH226922   0.217   1.456  11.768 -0.7407  0.3667 -0.3342
 1836TIP3    H126923   0.211   1.397  11.843  0.2278 -0.0544 -0.5808
 1836TIP3    H226924   0.304   1.442  11.733 -0.3359  2.2084 -0.1815
 1837TIP3   OH226925   5.628   3.180  12.699 -0.1112 -0.5318 -0.3509
 1837TIP3    H126926   5.662   3.258  12.743  0.8120 -1.4480  0.6184
 1837TIP3    H226927   5.613   3.208  12.608  3.6644 -0.1152 -0.9986
 1838TIP3   OH226928   3.634   5.777  10.349  0.4367  0.7879 -0.0452
 1838TIP3    H126929   3.601   5.862  10.319 -1.3709  0.6148  1.2923
 1838TIP3    H226930   3.653   5.729  10.269 -1.3833  1.3793 -0.8752
 1839TIP3   OH226931   6.404   2.651   3.713 -0.0609  0.2342  0.6032
 1839TIP3    H126932   6.421   2.570   3.664  0.1092 -0.1022  1.1980
 1839TIP3    H226933   6.313   2.644   3.739  0.0577  0.0511  0.9760
 1840TIP3   OH226934   3.029   3.690  10.888  0.2939 -0.1096 -0.1794
 1840TIP3    H126935   3.045   3.601  10.919  1.6595  0.4366  0.7657
 1840TIP3    H226936   3.108   3.714  10.840  0.3322  0.9291  0.3790
 1841TIP3   OH226937   6.532   1.261   2.753  0.2494  0.0256  0.0834
 1841TIP3    H126938   6.511   1.285   2.662  0.3392  2.3040  0.5896
 1841TIP3    H226939   6.615   1.305   2.770  1.9509 -2.9950  0.3383
 1842TIP3   OH226940   1.215   1.020   5.919 -0.0571  0.2227  0.0484
 1842TIP3    H126941   1.123   1.004   5.941 -0.0529  1.5460  1.1963
 1842TIP3    H226942   1.252   1.056   6.000  1.2666  0.5039 -0.6631
 1843TIP3   OH226943   1.722   1.987   4.194 -0.3370 -0.1240 -0.0303
 1843TIP3    H126944   1.809   1.948   4.192 -1.1191 -1.8939 -1.6608
 1843TIP3    H226945   1.672   1.934   4.256 -1.2662 -1.5644 -1.8989
 1844TIP3   OH226946   5.922   5.986   0.484 -0.1116  0.1290 -0.0116
 1844TIP3    H126947   5.955   6.030   0.406 -0.5116  0.5552  0.0604
 1844TIP3    H226948   5.849   5.933   0.453  1.1831 -1.5573 -0.3441
 1845TIP3   OH226949   1.849   3.027   2.134  1.1233 -0.1100  0.0365
 1845TIP3    H126950   1.838   3.109   2.086 -0.7104 -0.5011 -0.2890
 1845TIP3    H226951   1.851   3.054   2.226 -2.6025  0.1786  0.1818
 1846TIP3   OH226952   3.621   4.320   0.487 -0.0842 -0.1174  0.0648
 1846TIP3    H126953   3.667   4.238   0.471  1.2075  0.4573  0.6708
 1846TIP3    H226954   3.555   4.298   0.552  0.0257 -0.7469 -0.0256
 1847TIP3   OH226955   6.388   5.829  13.812  0.0570 -0.0674  0.3295
 1847TIP3    H126956   6.417   5.909  13.768  0.3143  0.5453  1.5548
 1847TIP3    H226957   6.442   5.760  13.773  0.0835  0.4044 -0.4958
 1848TIP3   OH226958   3.231   5.141   5.728 -0.2415  0.8427 -0.5196
 1848TIP3    H126959   3.287   5.214   5.703  0.5795  0.2609 -0.4172
 1848TIP3    H226960   3.267   5.110   5.811 -1.4999  1.2613  0.2211
 1849TIP3   OH226961   5.342   5.716  11.622  0.5890 -0.1682  0.3815
 1849TIP3    H126962   5.247   5.714  11.620  0.2333  3.3356  3.3568
 1849TIP3    H226963   5.367   5.755  11.539 -0.8539  1.3161  0.5882
 1850TIP3   OH226964   1.656   6.543   5.516 -0.5257 -0.1408 -0.2456
 1850TIP3    H126965   1.731   6.532   5.458  0.5001  2.3722  0.4682
 1850TIP3    H226966   1.669   6.479   5.585  1.0780  0.3645 -0.0532
 1851TIP3   OH226967   1.223   6.190   0.615 -0.3464  0.3902  0.2197
 1851TIP3    H126968   1.291   6.247   0.650 -2.2596  2.2033  1.2439
 1851TIP3    H226969   1.269   6.109   0.591  2.1524  1.6005  0.6147
 1852TIP3   OH226970   1.298   2.763   1.814  0.5995  0.0900  0.0276
 1852TIP3    H126971   1.361   2.810   1.868 -1.3003  0.8301  1.6987
 1852TIP3    H226972   1.231   2.828   1.793  0.6749 -0.4908 -2.2932
 1853TIP3   OH226973   1.915   2.785  15.314  0.2684 -0.1996 -0.4687
 1853TIP3    H126974   2.002   2.780  15.354  0.2891  0.3832 -0.4355
 1853TIP3    H226975   1.881   2.870  15.340 -0.5180 -0.6190 -0.0807
 1854TIP3   OH226976   5.257   3.050   5.218  0.7005  0.1047  0.0683
 1854TIP3    H126977   5.266   2.980   5.282 -1.3971  0.2655  0.6083
 1854TIP3    H226978   5.193   3.110   5.256  1.6874  1.8218 -0.8207
 1855TIP3   OH226979   6.022   6.739  13.259 -0.7276 -0.4079 -0.0301
 1855TIP3    H126980   6.004   6.761  13.351  0.2161 -0.3499  0.1443
 1855TIP3    H226981   5.940   6.760  13.214 -0.6669  1.1913  0.5257
 1856TIP3   OH226982   1.364   3.108  17.126 -0.3992  0.3430  0.5998
 1856TIP3    H126983   1.291   3.125  17.066  0.7824 -0.7898 -1.2566
 1856TIP3    H226984   1.434   3.075  17.070  0.5547 -1.4503  2.6872
 1857TIP3   OH226985   2.170   2.130   2.665 -0.4165 -0.7788 -0.1498
 1857TIP3    H126986   2.226   2.058   2.692 -1.1376 -1.0501  0.6443
 1857TIP3    H226987   2.214   2.209   2.696 -0.2487 -0.9622  0.0741
 1858TIP3   OH226988   1.736   6.357   5.728 -0.7353 -0.1733 -0.4517
 1858TIP3    H126989   1.793   6.309   5.667 -1.7856 -0.8428 -0.9277
 1858TIP3    H226990   1.684   6.289   5.770  0.4000  0.2058  1.7057
 1859TIP3   OH226991   4.679   1.447  16.386 -0.0660  0.4440 -0.3077
 1859TIP3    H126992   4.709   1.371  16.336 -0.2263  0.8550 -1.0325
 1859TIP3    H226993   4.606   1.413  16.439  0.8466 -0.2675  0.5399
 1860TIP3   OH226994   6.361   5.586   3.961  0.0202 -0.5007  0.2439
 1860TIP3    H126995   6.428   5.534   3.917 -0.0100 -0.9822  0.7604
 1860TIP3    H226996   6.280   5.535   3.952 -0.3653  0.2388 -0.6798
 1861TIP3   OH226997   6.176   6.199   3.588 -0.4403 -0.0579  0.0590
 1861TIP3    H126998   6.213   6.156   3.664  0.9552  2.7506  1.1197
 1861TIP3    H226999   6.239   6.185   3.518  0.2765  0.6456  0.5462
 1862TIP3   OH227000   1.260   0.869   5.693 -0.2557  0.2015 -0.0409
 1862TIP3    H127001   1.264   0.913   5.778  0.5555  1.3614 -0.6438
 1862TIP3    H227002   1.185   0.910   5.649 -0.7477 -0.4822  0.1568
 1863TIP3   OH227003   4.254   2.855   2.831  0.1777 -0.0500  0.4915
 1863TIP3    H127004   4.221   2.777   2.877  1.8127 -1.2194 -0.2212
 1863TIP3    H227005   4.208   2.853   2.747 -0.0254 -0.0670  0.6023
 1864TIP3   OH227006   0.295   1.228   0.675  0.8992 -0.0369  0.2300
 1864TIP3    H127007   0.273   1.321   0.666 -1.3244 -0.6512 -1.6365
 1864TIP3    H227008   0.214   1.187   0.703  0.7854 -1.8607 -2.4283
 1865TIP3   OH227009   6.573   5.121   4.579  0.6465 -0.1153 -0.2201
 1865TIP3    H127010   6.592   5.213   4.597 -0.6357  0.2515 -0.6497
 1865TIP3    H227011   6.571   5.079   4.665 -0.7414  0.6636  0.1514
 1866TIP3   OH227012   4.147   5.411  11.049  0.5860  0.2328 -0.0676
 1866TIP3    H127013   4.241   5.423  11.035  0.6274  0.2650  0.2427
 1866TIP3    H227014   4.114   5.381  10.964  0.5645  1.9690 -0.6945
 1867TIP3   OH227015   2.867   1.238   1.687  0.8566  0.2546 -0.2522
 1867TIP3    H127016   2.925   1.307   1.719 -0.3563  1.1694  0.0579
 1867TIP3    H227017   2.805   1.224   1.759 -0.3701  0.5540 -1.2282
 1868TIP3   OH227018   4.769   3.110   4.131 -0.6064  0.0707  0.0950
 1868TIP3    H127019   4.778   3.200   4.164  1.2713 -0.4565  1.1723
 1868TIP3    H227020   4.823   3.108   4.052 -3.2618  0.7029 -1.8701
 1869TIP3   OH227021   6.176   4.785  11.275 -0.5343 -0.3425  0.2705
 1869TIP3    H127022   6.173   4.881  11.276 -0.0356 -0.3332  1.6382
 1869TIP3    H227023   6.093   4.760  11.234  0.0816  0.6812 -1.7503
 1870TIP3   OH227024   1.791   2.385  16.021  0.2461 -0.0545 -0.2275
 1870TIP3    H127025   1.751   2.469  16.043  0.8402 -0.0386  0.8669
 1870TIP3    H227026   1.729   2.344  15.961 -1.0896  0.2643  0.8923
 1871TIP3   OH227027   0.175   3.070   3.853  0.7369  0.2430  0.1604
 1871TIP3    H127028   0.250   3.071   3.913  0.9270 -0.0050 -0.0672
 1871TIP3    H227029   0.109   3.017   3.898  1.4120 -1.1813 -0.4651
 1872TIP3   OH227030   3.221   2.924  16.935 -0.5464 -0.0013  0.1304
 1872TIP3    H127031   3.148   2.970  16.975 -0.7890 -0.1634 -0.1191
 1872TIP3    H227032   3.299   2.963  16.974 -0.6549  2.0377 -1.4958
 1873TIP3   OH227033   1.345   2.777  17.005  0.8947  0.2874  0.1180
 1873TIP3    H127034   1.388   2.714  16.947 -0.1367  0.9272 -1.4095
 1873TIP3    H227035   1.401   2.854  17.003  0.9371  0.2556  0.0961
 1874TIP3   OH227036   2.469   5.668  12.254  0.0860 -0.3254 -0.1361
 1874TIP3    H127037   2.453   5.608  12.181  0.8334  0.2331 -0.7680
 1874TIP3    H227038   2.523   5.737  12.218  0.0645  0.2224  0.8354
 1875TIP3   OH227039   3.409   6.658  17.058 -0.2810 -0.0929  0.2868
 1875TIP3    H127040   3.477   6.615  17.005  0.3499 -0.9318  1.7387
 1875TIP3    H227041   3.364   6.586  17.102 -2.3094  0.4225 -0.7945
 1876TIP3   OH227042   4.174   4.595   5.889  0.0230  0.0939 -0.2457
 1876TIP3    H127043   4.177   4.689   5.905  1.3391 -0.1267  1.0852
 1876TIP3    H227044   4.150   4.557   5.974 -0.2669 -0.7812 -0.7045
 1877TIP3   OH227045   6.179   5.343   0.264 -0.0367 -0.0637  0.1156
 1877TIP3    H127046   6.267   5.381   0.267 -0.0514  0.0291 -0.4105
 1877TIP3    H227047   6.154   5.349   0.172 -0.5079 -0.2909  0.2247
 1878TIP3   OH227048   2.740   1.829  15.768  0.0230  0.5799  0.1976
 1878TIP3    H127049   2.785   1.886  15.832 -0.9970  0.4962  1.0200
 1878TIP3    H227050   2.767   1.741  15.791  0.6947  0.6376 -0.3417
 1879TIP3   OH227051   2.348   1.921  16.165 -0.1963 -0.2205 -0.7575
 1879TIP3    H127052   2.438   1.919  16.133  2.9436 -0.4220  6.1623
 1879TIP3    H227053   2.321   1.829  16.167 -0.1130 -0.2775 -1.7667
 1880TIP3   OH227054   0.282   4.059  14.433 -0.4918  0.4866  0.1931
 1880TIP3    H127055   0.220   4.097  14.496 -1.9338 -2.4937  0.7274
 1880TIP3    H227056   0.229   4.039  14.356  0.3763  0.1739 -0.3383
 1881TIP3   OH227057   6.167   1.126   4.441  1.0455 -0.0530  0.2680
 1881TIP3    H127058   6.107   1.175   4.496  3.1523  2.1320  0.8185
 1881TIP3    H227059   6.168   1.038   4.478 -0.8053  0.1854  0.9961
 1882TIP3   OH227060   5.574   1.746  15.766 -0.5152 -0.2424 -0.5322
 1882TIP3    H127061   5.642   1.740  15.699  1.5014  0.7597  1.2952
 1882TIP3    H227062   5.595   1.675  15.827 -2.5424 -1.3763 -1.0755
 1883TIP3   OH227063   6.652   6.339  15.357  0.1807 -0.3009 -0.0010
 1883TIP3    H127064   6.683   6.386  15.435 -0.2972  0.6149 -0.3518
 1883TIP3    H227065   6.730   6.332  15.301  0.4521 -0.6870  0.4177
 1884TIP3   OH227066   5.109   2.975   4.042  0.1428 -0.2170  0.5173
 1884TIP3    H127067   5.086   2.884   4.023 -0.4758 -0.5951  2.8070
 1884TIP3    H227068   5.034   3.026   4.014  0.4657 -0.4002 -0.7166
 1885TIP3   OH227069   0.438   3.214   2.307  0.1715 -0.1959  0.2056
 1885TIP3    H127070   0.360   3.161   2.292 -0.2028 -0.5997  3.0695
 1885TIP3    H227071   0.492   3.161   2.365  1.8834  0.7473 -0.4672
 1886TIP3   OH227072   3.397   2.075  10.692  0.1053 -0.5447 -0.0808
 1886TIP3    H127073   3.453   2.053  10.618 -0.2993  1.3895 -1.0421
 1886TIP3    H227074   3.309   2.048  10.665  0.2703 -2.0039  0.7209
 1887TIP3   OH227075   3.196   6.344   5.884  0.5692 -0.1029 -0.1867
 1887TIP3    H127076   3.204   6.262   5.834 -0.2711 -0.9423  1.0032
 1887TIP3    H227077   3.229   6.323   5.971 -0.4901  0.5516  0.4040
 1888TIP3   OH227078   3.927   6.522   5.170  0.5860 -0.6330 -0.1351
 1888TIP3    H127079   3.840   6.532   5.131  0.1336 -1.6261  0.5942
 1888TIP3    H227080   3.955   6.611   5.190  0.2712 -0.2000 -1.4986
 1889TIP3   OH227081   5.852   4.625  14.302  0.2638 -0.2362  0.5531
 1889TIP3    H127082   5.883   4.547  14.346 -2.2577 -0.9495  1.2505
 1889TIP3    H227083   5.869   4.696  14.363  4.3760  0.2551 -0.8652
 1890TIP3   OH227084   1.172   1.917  14.973  0.0241  0.5942  0.2341
 1890TIP3    H127085   1.090   1.886  14.935 -0.2165 -0.8947  1.8241
 1890TIP3    H227086   1.146   1.990  15.030  0.0268  1.0913 -0.3911
 1891TIP3   OH227087   1.358   3.814  12.165  0.3344 -0.4245  0.0987
 1891TIP3    H127088   1.336   3.758  12.240  0.2340  1.3273  1.4540
 1891TIP3    H227089   1.304   3.781  12.094 -2.6229  0.2744  1.8451
 1892TIP3   OH227090   4.443   0.462  13.356  0.0397  0.1656  0.4369
 1892TIP3    H127091   4.361   0.490  13.396 -0.4521  1.6513 -1.4219
 1892TIP3    H227092   4.454   0.520  13.281  2.8667  0.1082  0.6647
 1893TIP3   OH227093   5.327   4.610   3.551 -0.0922 -0.4275  0.2687
 1893TIP3    H127094   5.341   4.537   3.611 -1.4149 -2.1407 -1.4045
 1893TIP3    H227095   5.252   4.657   3.587 -0.4559 -1.0450  0.3242
 1894TIP3   OH227096   3.557   5.591   5.310  0.4634  0.2853 -0.5602
 1894TIP3    H127097   3.606   5.593   5.228  1.7646 -0.1865  0.1809
 1894TIP3    H227098   3.560   5.682   5.342  1.3159  0.1725 -0.2795
 1895TIP3   OH227099   3.396   4.615  10.525  0.2783 -0.4593 -0.0184
 1895TIP3    H127100   3.362   4.690  10.476 -0.0879 -1.7524 -1.8452
 1895TIP3    H227101   3.322   4.555  10.530  0.6995 -0.9154  1.0218
 1896TIP3   OH227102   3.514   5.403  14.749 -0.2195 -0.4887  0.0650
 1896TIP3    H127103   3.431   5.406  14.797 -0.4868  2.4255 -0.4068
 1896TIP3    H227104   3.550   5.492  14.759  2.3889 -1.4046 -0.5436
 1897TIP3   OH227105   4.043   4.130   6.353  0.1885  0.0979 -0.3469
 1897TIP3    H127106   3.996   4.060   6.307  2.8574  0.6069 -4.3891
 1897TIP3    H227107   4.005   4.211   6.318  0.6258  0.5876  0.2966
 1898TIP3   OH227108   1.409   4.760   3.254 -0.1128  0.5730 -0.0534
 1898TIP3    H127109   1.323   4.801   3.254  0.6350  2.2499  0.7446
 1898TIP3    H227110   1.465   4.821   3.302  0.9590 -1.6941  1.8408
 1899TIP3   OH227111   2.053   3.319   2.475 -0.0187  0.2297  0.1335
 1899TIP3    H127112   2.018   3.376   2.543 -0.0246 -0.0429  0.3621
 1899TIP3    H227113   2.135   3.361   2.448 -0.6194  0.9887 -0.5612
 1900TIP3   OH227114   2.254   3.285  11.843 -0.2429  0.4308 -0.0150
 1900TIP3    H127115   2.319   3.326  11.787  0.0588 -0.8942 -0.6465
 1900TIP3    H227116   2.283   3.195  11.854 -1.1572  0.2252  0.9480
 1901TIP3   OH227117   4.928   5.903  14.688 -0.5786 -0.3065  0.0997
 1901TIP3    H127118   4.835   5.889  14.670 -0.0138 -0.6639 -3.0775
 1901TIP3    H227119   4.974   5.839  14.633  1.5703  0.9458  0.3034
 1902TIP3   OH227120   0.468   0.795  12.324 -0.3654 -0.1545 -0.4808
 1902TIP3    H127121   0.546   0.747  12.297 -0.0720  0.2353 -0.3304
 1902TIP3    H227122   0.402   0.727  12.339  0.2784 -0.5678  0.5053
 1903TIP3   OH227123   4.753   3.567  13.784 -0.7978  0.2589  0.6442
 1903TIP3    H127124   4.672   3.561  13.835 -0.0690  0.0048  1.8283
 1903TIP3    H227125   4.793   3.481  13.794 -0.7735  0.1035 -0.6462
 1904TIP3   OH227126   3.070   6.292  11.180 -0.5542  0.2598  0.7823
 1904TIP3    H127127   3.095   6.206  11.147 -3.3093  0.6447 -3.0924
 1904TIP3    H227128   2.991   6.277  11.231 -1.1586  0.4337 -0.0723
 1905TIP3   OH227129   3.396   0.608   5.519 -0.1567  0.8780  0.8640
 1905TIP3    H127130   3.344   0.678   5.481  0.2772  1.1948  0.8523
 1905TIP3    H227131   3.336   0.534   5.524 -0.8757  1.4976  1.6928
 1906TIP3   OH227132   1.623   2.509  13.871  0.0858  0.5870  0.0121
 1906TIP3    H127133   1.583   2.596  13.877 -0.8530  0.1723 -0.1118
 1906TIP3    H227134   1.559   2.450  13.911  1.4236  0.1414  1.6467
 1907TIP3   OH227135   2.430   0.576   3.037  0.2270  0.5178  0.0412
 1907TIP3    H127136   2.477   0.659   3.038 -1.2017  1.3578  0.7787
 1907TIP3    H227137   2.470   0.524   3.107  1.5368  0.3061 -0.8253
 1908TIP3   OH227138   4.269   2.808   1.663 -0.1155  0.9652  0.0977
 1908TIP3    H127139   4.274   2.717   1.691 -1.4583  1.0507  0.7028
 1908TIP3    H227140   4.232   2.854   1.738  2.4044  2.3960  0.5779
 1909TIP3   OH227141   6.427   3.260  15.216 -0.8172 -0.3263  0.4457
 1909TIP3    H127142   6.459   3.174  15.191 -3.3634 -0.5262 -2.7555
 1909TIP3    H227143   6.503   3.318  15.207  0.7613 -2.0419  1.9972
 1910TIP3   OH227144   4.335   4.196   6.269 -0.9368  0.4860  0.2927
 1910TIP3    H127145   4.351   4.160   6.182  1.6453  0.1180  0.8337
 1910TIP3    H227146   4.241   4.186   6.282 -1.3286  0.1547 -2.2586
 1911TIP3   OH227147   4.199   5.278  14.419 -0.5807  0.1660 -0.2281
 1911TIP3    H127148   4.186   5.225  14.498  0.3946 -0.1816 -0.2881
 1911TIP3    H227149   4.240   5.359  14.451 -2.4248  1.1043 -0.0831
 1912TIP3   OH227150   2.914   5.821   1.297  0.5132  0.1396  0.2203
 1912TIP3    H127151   2.865   5.798   1.217  0.4799  1.0626 -0.0401
 1912TIP3    H227152   2.847   5.849   1.359  0.5233 -0.7567  0.6439
 1913TIP3   OH227153   1.584   3.168   5.510  0.8144  0.2481 -0.2561
 1913TIP3    H127154   1.578   3.081   5.470 -0.0840 -0.0652  0.5354
 1913TIP3    H227155   1.615   3.224   5.439  1.3333 -0.6909 -0.8053
 1914TIP3   OH227156   5.623   3.593   0.426 -0.0260  0.6210  0.1385
 1914TIP3    H127157   5.630   3.688   0.435 -1.2688  0.5965  1.8616
 1914TIP3    H227158   5.632   3.577   0.332 -0.4222  2.5026 -0.2616
 1915TIP3   OH227159   6.092   0.341   4.964  0.6227  0.2495 -0.7069
 1915TIP3    H127160   6.145   0.264   4.984  2.2740  1.0832 -1.5791
 1915TIP3    H227161   6.096   0.394   5.043 -1.8223 -1.1680  0.4834
 1916TIP3   OH227162   3.848   6.552  15.725  0.2112  0.1768  0.0202
 1916TIP3    H127163   3.811   6.582  15.642  2.8938  2.4118 -0.4821
 1916TIP3    H227164   3.927   6.505  15.700  0.6820  0.2618  1.3021
 1917TIP3   OH227165   0.692   3.784  12.189  0.7694 -0.1573 -0.1926
 1917TIP3    H127166   0.695   3.788  12.093  1.5224  0.5084 -0.1535
 1917TIP3    H227167   0.632   3.711  12.208  0.4093 -0.1307 -1.1618
 1918TIP3   OH227168   5.721   2.920   6.298  0.1228  0.0969  0.4037
 1918TIP3    H127169   5.706   3.012   6.277  0.1967  0.1080  0.3998
 1918TIP3    H227170   5.637   2.889   6.332  0.0831  0.1521  0.3552
 1919TIP3   OH227171   5.672   2.327  11.136  0.7345  0.1037 -0.3180
 1919TIP3    H127172   5.627   2.401  11.176 -1.9904 -1.1362 -0.8550
 1919TIP3    H227173   5.627   2.312  11.053 -0.3898 -3.4416  0.7312
 1920TIP3   OH227174   0.017   1.843  14.720  0.2062  0.5231 -0.2248
 1920TIP3    H127175   0.009   1.849  14.815 -0.1421 -1.8485 -0.0473
 1920TIP3    H227176   0.086   1.906  14.697 -0.4483  1.9092  1.4361
 1921TIP3   OH227177   4.918   0.826  11.791  0.3156  0.3745  0.0093
 1921TIP3    H127178   4.896   0.910  11.749  0.8016  0.2331 -0.5449
 1921TIP3    H227179   4.991   0.848  11.849  0.8991  0.2177 -0.6462
 1922TIP3   OH227180   1.311   5.625  14.513  0.6044 -0.6193 -0.0520
 1922TIP3    H127181   1.329   5.715  14.543 -2.3535  0.0292  0.1245
 1922TIP3    H227182   1.339   5.624  14.422  0.4202  0.5957 -0.1401
 1923TIP3   OH227183   5.227   6.540   4.188 -0.2460 -0.9466 -0.0391
 1923TIP3    H127184   5.154   6.545   4.127  0.4375 -0.0236 -0.8289
 1923TIP3    H227185   5.238   6.447   4.206 -0.5493 -1.2304 -1.2383
 1924TIP3   OH227186   3.379   1.682   1.298 -0.0836 -0.3458 -0.6195
 1924TIP3    H127187   3.349   1.645   1.381 -0.2575  0.3217 -0.3750
 1924TIP3    H227188   3.432   1.613   1.259  1.4035 -0.0775  0.8315
 1925TIP3   OH227189   0.619   5.770  15.529  0.1775 -0.0674  0.1315
 1925TIP3    H127190   0.639   5.708  15.599 -0.3189 -0.3068  0.0659
 1925TIP3    H227191   0.524   5.779  15.532 -0.1835 -2.0359 -2.1294
 1926TIP3   OH227192   4.119   3.765   0.480  0.3043 -0.6482 -0.5134
 1926TIP3    H127193   4.193   3.729   0.430  1.2176  1.1554 -0.5557
 1926TIP3    H227194   4.155   3.843   0.522 -1.3423 -0.2789  0.2811
 1927TIP3   OH227195   0.415   3.534   0.923 -0.3763 -0.1928  0.1019
 1927TIP3    H127196   0.390   3.441   0.929 -2.4821  0.4262  2.8315
 1927TIP3    H227197   0.504   3.537   0.957 -0.2341 -1.2002 -0.1365
 1928TIP3   OH227198   4.632   3.863  17.011  0.0256  0.1910 -0.1691
 1928TIP3    H127199   4.572   3.796  17.042 -0.1168 -0.2788 -1.3889
 1928TIP3    H227200   4.602   3.883  16.922  1.7819 -0.2411 -0.9186
 1929TIP3   OH227201   5.182   5.347   5.713  0.6294  0.1954  0.2632
 1929TIP3    H127202   5.201   5.408   5.642 -1.4948 -1.3121 -1.7474
 1929TIP3    H227203   5.231   5.268   5.690 -1.1704 -0.7849 -0.3594
 1930TIP3   OH227204   6.154   3.030   6.091 -0.6218 -0.0321  0.3516
 1930TIP3    H127205   6.175   2.979   6.170  0.9559 -2.0082 -1.2386
 1930TIP3    H227206   6.181   2.974   6.018 -0.0596  2.5389 -1.5669
 1931TIP3   OH227207   4.021   2.703  15.102 -0.1809 -0.2858  0.7243
 1931TIP3    H127208   3.933   2.666  15.107  0.1724 -1.1150  0.9133
 1931TIP3    H227209   4.056   2.669  15.019  0.3514 -0.8562  1.1730
 1932TIP3   OH227210   2.337   0.357   2.095  0.2491 -0.2246 -0.3403
 1932TIP3    H127211   2.383   0.297   2.154  1.1612  0.8619  0.0994
 1932TIP3    H227212   2.370   0.336   2.008 -0.2670 -1.0861 -0.3401
 1933TIP3   OH227213   5.264   4.016   1.641  0.1412  0.1698  0.0440
 1933TIP3    H127214   5.282   3.936   1.592 -0.7524  0.1988 -0.3441
 1933TIP3    H227215   5.222   3.986   1.722  1.7640  0.1098  0.9012
 1934TIP3   OH227216   6.427   6.169   0.473  0.0557 -0.5584  0.5589
 1934TIP3    H127217   6.400   6.260   0.465  0.6733 -0.3697  0.6095
 1934TIP3    H227218   6.358   6.120   0.429 -1.0023 -0.1826  1.7168
 1935TIP3   OH227219   6.422   6.399  15.595 -0.0185 -0.2782  0.5033
 1935TIP3    H127220   6.443   6.481  15.551  1.3157 -0.1731  1.2737
 1935TIP3    H227221   6.422   6.333  15.525  0.1987  0.1793  0.0679
 1936TIP3   OH227222   0.122   1.346   5.705  0.4577 -0.7745  0.0192
 1936TIP3    H127223   0.062   1.326   5.777  0.7313  0.7252  0.7112
 1936TIP3    H227224   0.144   1.439   5.718  1.4034 -0.7854 -1.3461
 1937TIP3   OH227225   1.166   5.313   2.060 -0.1703  0.0972 -0.0393
 1937TIP3    H127226   1.243   5.330   2.114  0.4845 -1.6670 -0.3548
 1937TIP3    H227227   1.199   5.311   1.971 -1.1782  2.5702 -0.5466
 1938TIP3   OH227228   3.345   4.655  16.345  0.0716 -0.0621 -0.1674
 1938TIP3    H127229   3.327   4.748  16.361  2.8960  0.4331  0.7357
 1938TIP3    H227230   3.383   4.623  16.427  2.7736 -0.9264 -1.6299
 1939TIP3   OH227231   5.868   5.241   4.304 -0.4727  0.1097 -0.0490
 1939TIP3    H127232   5.950   5.275   4.267  0.2089  0.1766  1.4574
 1939TIP3    H227233   5.894   5.163   4.353 -1.5271 -0.6339 -0.6403
 1940TIP3   OH227234   1.176   5.397  15.782  0.2855 -0.6590 -0.1761
 1940TIP3    H127235   1.264   5.408  15.818 -0.4907 -0.6554  1.8320
 1940TIP3    H227236   1.177   5.311  15.740  1.9421  0.3713 -2.5037
 1941TIP3   OH227237   3.499   0.030   3.742  0.2793 -0.1982  0.3835
 1941TIP3    H127238   3.443  -0.045   3.720  0.5744 -0.3116 -0.0088
 1941TIP3    H227239   3.551   0.045   3.663 -0.5637  1.1476  0.0568
 1942TIP3   OH227240   6.099   1.398  12.600 -0.2455 -0.1531 -0.0525
 1942TIP3    H127241   6.165   1.466  12.589 -0.9773  0.5405 -0.2256
 1942TIP3    H227242   6.036   1.414  12.530 -0.7041 -0.6815  0.2321
 1943TIP3   OH227243   1.688   5.659   5.098  0.1908 -1.0165  0.3979
 1943TIP3    H127244   1.685   5.708   5.180 -0.7422  1.3993 -0.9808
 1943TIP3    H227245   1.750   5.707   5.044 -1.2590 -0.9195 -1.2460
 1944TIP3   OH227246   5.581   5.725   4.311  0.0913 -0.2172  0.2242
 1944TIP3    H127247   5.592   5.804   4.258 -0.2389 -0.3157  0.0050
 1944TIP3    H227248   5.641   5.737   4.385  2.6121 -1.2794 -1.5155
 1945TIP3   OH227249   1.211   3.978   1.195 -0.4093 -0.2810  0.2286
 1945TIP3    H127250   1.191   4.071   1.203 -0.3130 -0.3107  0.8457
 1945TIP3    H227251   1.191   3.941   1.281  1.0521 -0.5376  0.4921
 1946TIP3   OH227252   3.731   0.358  13.657 -0.2496  0.2647 -0.1678
 1946TIP3    H127253   3.779   0.423  13.709 -0.4584  0.0974  0.2365
 1946TIP3    H227254   3.771   0.274  13.681 -2.0310 -0.1159  1.6829
 1947TIP3   OH227255   6.008   3.326   5.197  0.6976  0.6300  0.0675
 1947TIP3    H127256   6.073   3.320   5.267  0.1370  1.3666  0.6647
 1947TIP3    H227257   6.009   3.418   5.170  0.4208  0.4931 -0.4235
 1948TIP3   OH227258   2.570   0.362   1.660  0.5889  0.8961  0.4165
 1948TIP3    H127259   2.489   0.336   1.616  0.6451 -0.4144  1.0314
 1948TIP3    H227260   2.616   0.416   1.596  0.7964 -1.1412 -1.2752
 1949TIP3   OH227261   4.559   3.594   3.193  0.0203  0.2124 -0.5256
 1949TIP3    H127262   4.585   3.545   3.271 -1.3131  1.8597  1.0403
 1949TIP3    H227263   4.464   3.582   3.187 -0.0376  0.9237 -1.3108
 1950TIP3   OH227264   0.331   2.572  14.192  0.2089 -0.5513  0.2226
 1950TIP3    H127265   0.236   2.578  14.196  0.2482 -0.0707  0.5360
 1950TIP3    H227266   0.358   2.655  14.154  0.4607 -0.9941 -0.5889
 1951TIP3   OH227267   0.708   6.386   4.126 -0.2293 -0.0748  0.0790
 1951TIP3    H127268   0.615   6.390   4.148 -0.6190  0.2318 -1.5038
 1951TIP3    H227269   0.752   6.436   4.195 -1.2164 -0.3108  0.9004
 1952TIP3   OH227270   1.366   2.040   3.231  0.5326 -0.0137  0.4956
 1952TIP3    H127271   1.421   1.971   3.193  2.0165  0.5395  1.5655
 1952TIP3    H227272   1.413   2.069   3.308 -1.4876  0.2006  1.7370
 1953TIP3   OH227273   0.504   0.349  12.794  0.7565 -0.1545 -0.0186
 1953TIP3    H127274   0.596   0.373  12.811  1.4871 -1.2571 -2.0221
 1953TIP3    H227275   0.497   0.350  12.699 -1.3127 -0.2154  0.0940
 1954TIP3   OH227276   5.141   1.516  10.861  0.3281  0.3434  0.4237
 1954TIP3    H127277   5.206   1.505  10.793 -1.4387 -0.4823 -1.2227
 1954TIP3    H227278   5.169   1.594  10.910  1.0547  1.6613 -1.9655
 1955TIP3   OH227279   2.302   1.323   2.217 -0.2094  0.2074  0.1805
 1955TIP3    H127280   2.317   1.403   2.268  0.2980  1.0243 -1.1977
 1955TIP3    H227281   2.207   1.319   2.208 -0.1715  2.0713 -1.8226
 1956TIP3   OH227282   5.625   5.532   5.077  0.2518  0.0322  0.3278
 1956TIP3    H127283   5.647   5.543   4.985  1.0562 -3.3949 -0.0531
 1956TIP3    H227284   5.530   5.536   5.080  0.1123 -1.3543 -1.0006
 1957TIP3   OH227285   5.927   5.459  14.334 -0.3256 -0.1220  0.0726
 1957TIP3    H127286   5.989   5.529  14.357 -0.1376 -0.4299  0.5200
 1957TIP3    H227287   5.952   5.433  14.246 -0.6711  0.6666 -0.2731
 1958TIP3   OH227288   0.744   2.078   4.539  0.3664 -0.2411  0.1422
 1958TIP3    H127289   0.670   2.018   4.532 -0.0810  0.4048 -0.8016
 1958TIP3    H227290   0.714   2.147   4.598  0.2202  0.0118 -0.2264
 1959TIP3   OH227291   1.869   0.046   5.273 -0.3118 -0.0105 -0.2525
 1959TIP3    H127292   1.897   0.129   5.234 -1.0449 -0.1128 -1.0415
 1959TIP3    H227293   1.774   0.044   5.258 -0.3423 -0.8545  0.0213
 1960TIP3   OH227294   1.875   0.267   1.726  0.3988 -0.4397  0.3601
 1960TIP3    H127295   1.884   0.189   1.672 -0.1058 -0.3301  0.1125
 1960TIP3    H227296   1.831   0.330   1.669  2.1731  0.5740  0.0037
 1961TIP3   OH227297   5.440   0.400  11.465  0.1375 -0.1695  0.1715
 1961TIP3    H127298   5.396   0.349  11.397  0.0165 -1.0756  0.9159
 1961TIP3    H227299   5.377   0.403  11.538  1.1826 -1.2506  1.1539
 1962TIP3   OH227300   6.126   2.946  11.218  0.1928 -0.8257  0.7825
 1962TIP3    H127301   6.071   2.906  11.285 -1.4526 -0.1870 -0.1089
 1962TIP3    H227302   6.136   2.878  11.151 -0.4168 -0.6058  0.4618
 1963TIP3   OH227303   0.004   0.362   4.988  0.1139 -0.1302 -0.1650
 1963TIP3    H127304  -0.088   0.351   4.963 -0.1709  1.3937  0.1358
 1963TIP3    H227305   0.053   0.326   4.914 -0.6956 -1.5996 -0.0331
 1964TIP3   OH227306   4.052   0.546   1.511 -0.0940  0.0521 -0.2311
 1964TIP3    H127307   4.066   0.521   1.602  1.0860 -0.2393 -0.4716
 1964TIP3    H227308   4.099   0.629   1.502 -0.1451  0.0446 -0.5889
 1965TIP3   OH227309   5.769   2.123  14.826 -1.3602  0.1637 -0.5414
 1965TIP3    H127310   5.680   2.086  14.828 -0.5840 -2.0967 -2.5130
 1965TIP3    H227311   5.765   2.189  14.756 -1.0310 -1.6088 -2.3498
 1966TIP3   OH227312   6.733   3.956   5.603 -0.1793  0.0107  0.4600
 1966TIP3    H127313   6.690   3.893   5.545 -1.1417 -0.6347  1.8083
 1966TIP3    H227314   6.807   3.908   5.639  1.5955  1.0300 -1.6384
 1967TIP3   OH227315   6.254   1.827   4.440 -0.3463  0.5646 -0.0278
 1967TIP3    H127316   6.315   1.755   4.453  0.3608  0.7243 -2.0286
 1967TIP3    H227317   6.167   1.789   4.454  0.1024 -0.1320  0.9750
 1968TIP3   OH227318   5.465   5.924   1.668 -0.3032  0.1686  0.5352
 1968TIP3    H127319   5.552   5.932   1.630 -0.4258 -0.9904 -0.0309
 1968TIP3    H227320   5.416   5.997   1.632 -0.0975 -0.2621 -0.6671
 1969TIP3   OH227321   4.595   2.466  16.524  0.0368  0.0541  0.0500
 1969TIP3    H127322   4.627   2.511  16.446 -0.8474 -0.8966 -0.8930
 1969TIP3    H227323   4.658   2.396  16.540  0.0025 -0.0039 -0.0656
 1970TIP3   OH227324   4.610   2.366   0.544  0.6127 -0.2695 -0.8991
 1970TIP3    H127325   4.519   2.346   0.565  0.6749 -0.1150 -0.4828
 1970TIP3    H227326   4.611   2.459   0.524  0.9895  0.1375  0.8716
 1971TIP3   OH227327   4.769   2.623   2.929  0.2019 -0.0108  0.2436
 1971TIP3    H127328   4.777   2.682   3.004 -3.8662  0.1656  0.8075
 1971TIP3    H227329   4.740   2.540   2.966 -0.2384 -0.4363 -0.9868
 1972TIP3   OH227330   1.932   0.579  11.538  0.2612 -0.6283 -0.4508
 1972TIP3    H127331   1.838   0.580  11.522  0.3733  0.7743 -1.1790
 1972TIP3    H227332   1.952   0.486  11.554 -1.0687 -1.1058 -1.3203
 1973TIP3   OH227333   3.956   1.826  13.752  0.0710 -0.1464 -0.3239
 1973TIP3    H127334   3.918   1.870  13.676  0.0161 -1.2319 -0.9498
 1973TIP3    H227335   4.016   1.762  13.715  0.1295 -0.6218  0.5549
 1974TIP3   OH227336   3.019   3.231   5.013  0.1100 -0.5330 -0.7856
 1974TIP3    H127337   3.054   3.210   4.927  1.9428  1.5914 -0.6310
 1974TIP3    H227338   2.957   3.160   5.031 -1.2566 -0.4451 -4.3309
 1975TIP3   OH227339   4.301   3.782   6.024  0.0198  0.2949  0.3508
 1975TIP3    H127340   4.336   3.869   6.008  1.0821  0.0565  1.2612
 1975TIP3    H227341   4.256   3.788   6.108  0.4199 -0.1172  0.6007
 1976TIP3   OH227342   6.149   3.796  13.625 -0.3359  1.1043  0.4755
 1976TIP3    H127343   6.095   3.751  13.559  1.6296 -1.2984  0.3568
 1976TIP3    H227344   6.177   3.877  13.581 -0.9832  0.6934 -0.7573
 1977TIP3   OH227345   6.134   0.460   2.339 -0.4886 -0.6840  0.2734
 1977TIP3    H127346   6.135   0.393   2.270  0.7581 -2.8172  2.2147
 1977TIP3    H227347   6.056   0.512   2.322 -0.0123 -0.8151 -2.9622
 1978TIP3   OH227348   1.375   3.058  16.365  0.3456  0.1683  0.0333
 1978TIP3    H127349   1.340   2.981  16.318 -1.2207  0.7525  0.1699
 1978TIP3    H227350   1.379   3.030  16.456 -2.7555  0.9563  0.5525
 1979TIP3   OH227351   1.823   1.013   4.271 -0.1462 -0.7406 -0.0997
 1979TIP3    H127352   1.787   1.095   4.238 -1.7086 -0.2118  2.5816
 1979TIP3    H227353   1.756   0.947   4.251 -0.0381 -0.8708 -0.0342
 1980TIP3   OH227354   6.048   0.879   3.085  0.4071 -0.2662 -0.2142
 1980TIP3    H127355   6.031   0.812   3.151 -0.9709 -1.3555 -1.5972
 1980TIP3    H227356   6.143   0.888   3.084  0.4734 -0.3952  1.7033
 1981TIP3   OH227357   0.600   5.080  12.061 -0.0007 -0.2763  0.6943
 1981TIP3    H127358   0.629   5.015  11.996 -0.8103  1.2935 -1.3796
 1981TIP3    H227359   0.508   5.096  12.038  0.6048  2.8350 -0.0971
 1982TIP3   OH227360   0.654   0.201   0.573  0.1914 -0.8778 -0.0872
 1982TIP3    H127361   0.745   0.216   0.599 -0.2607  1.4128  0.4255
 1982TIP3    H227362   0.657   0.199   0.477  0.9414 -2.3112 -0.0615
 1983TIP3   OH227363   2.226   6.569  12.246  0.2869  0.0103  0.4807
 1983TIP3    H127364   2.310   6.612  12.237  0.9509 -1.4061 -0.4354
 1983TIP3    H227365   2.239   6.505  12.317  0.1031 -0.4356  0.1220
 1984TIP3   OH227366   4.997   2.050  15.318  0.5537 -0.1895 -0.0871
 1984TIP3    H127367   5.065   1.988  15.292  1.1062 -0.0129  0.9069
 1984TIP3    H227368   5.032   2.136  15.296  0.0347 -0.1689 -0.9068
 1985TIP3   OH227369   6.002   4.249  16.414 -0.7216 -0.2697 -0.3599
 1985TIP3    H127370   6.051   4.289  16.342 -0.0780  1.1252  0.7974
 1985TIP3    H227371   5.912   4.276  16.399 -0.3010  1.6429  0.3761
 1986TIP3   OH227372   2.421   4.018   1.104 -0.1168 -0.0460 -0.7241
 1986TIP3    H127373   2.383   3.960   1.038  0.5732 -2.2506  0.7163
 1986TIP3    H227374   2.434   3.962   1.180  1.2577  1.8702  0.5264
 1987TIP3   OH227375   5.658   0.128  16.268 -0.1207 -1.0632  0.1306
 1987TIP3    H127376   5.572   0.124  16.226 -0.4567 -2.2185  0.8732
 1987TIP3    H227377   5.639   0.156  16.358  0.4482  0.0720 -0.0791
 1988TIP3   OH227378   1.887   2.917   5.628 -0.3150  0.2808  0.2138
 1988TIP3    H127379   1.823   2.866   5.677 -1.9773  1.7244 -0.3589
 1988TIP3    H227380   1.967   2.864   5.629 -1.4919 -1.5343  1.0055
 1989TIP3   OH227381   3.308   4.825  10.378 -0.3277 -0.4088 -0.2646
 1989TIP3    H127382   3.330   4.825  10.284  0.1188  0.8222 -0.1781
 1989TIP3    H227383   3.231   4.882  10.384 -0.3596 -0.4953  0.1247
 1990TIP3   OH227384   5.417   3.807   1.180  0.1484 -0.0695 -0.7175
 1990TIP3    H127385   5.387   3.760   1.258 -0.4369  0.3785 -0.6569
 1990TIP3    H227386   5.512   3.800   1.182  0.0717 -1.1848 -0.6815
 1991TIP3   OH227387   4.573   4.658   4.556 -0.2854  1.0057  0.3098
 1991TIP3    H127388   4.646   4.721   4.551  1.0631 -0.3689  1.6564
 1991TIP3    H227389   4.497   4.708   4.527  1.3155  2.2456 -2.1515
 1992TIP3   OH227390   2.619   4.327   4.127 -0.4895  0.0624 -0.5432
 1992TIP3    H127391   2.696   4.336   4.072 -0.8199 -0.2368 -1.0622
 1992TIP3    H227392   2.626   4.398   4.191  0.3484 -0.1248 -0.4183
 1993TIP3   OH227393   4.619   2.677  11.695  0.0996 -0.1037  0.7992
 1993TIP3    H127394   4.603   2.694  11.602  1.3648 -0.3822  0.5209
 1993TIP3    H227395   4.533   2.688  11.736 -0.5109 -0.1606 -0.4258
 1994TIP3   OH227396   4.526   5.420   2.317  0.4796  0.3497 -0.3391
 1994TIP3    H127397   4.431   5.406   2.317  0.3305  1.0196  1.6940
 1994TIP3    H227398   4.545   5.452   2.229 -1.1341 -0.0223 -0.8627
 1995TIP3   OH227399   3.567   2.892   1.983  0.1358 -0.0413  0.8958
 1995TIP3    H127400   3.510   2.959   1.946  1.6929  0.2255 -1.1790
 1995TIP3    H227401   3.518   2.810   1.972 -0.3786  0.3350  0.3445
 1996TIP3   OH227402   4.158   3.066  11.310 -0.6150  0.1216  0.3942
 1996TIP3    H127403   4.148   3.005  11.237  1.1058 -0.5807  0.6899
 1996TIP3    H227404   4.196   3.144  11.271  0.6396 -0.3853  0.5671
 1997TIP3   OH227405   1.104   3.687  13.010 -0.1975 -0.4655  0.2793
 1997TIP3    H127406   1.092   3.717  12.920 -0.4193 -1.6691 -0.1133
 1997TIP3    H227407   1.166   3.615  13.003  1.0214  0.4479  1.3042
 1998TIP3   OH227408   1.460   2.367  12.727 -0.1092  0.0955  0.1310
 1998TIP3    H127409   1.551   2.351  12.701 -0.2625  0.9553 -1.0266
 1998TIP3    H227410   1.453   2.462  12.732 -1.1124  0.0751 -0.4956
 1999TIP3   OH227411   0.756   2.140  15.195  0.0610  0.3493  0.2431
 1999TIP3    H127412   0.676   2.100  15.163  1.1387 -2.8479  1.2137
 1999TIP3    H227413   0.729   2.227  15.224 -3.2795 -0.9338  1.4620
 2000TIP3   OH227414   4.580   1.964  13.529 -0.0063  0.2098  0.1561
 2000TIP3    H127415   4.507   1.923  13.482  0.8879  0.5997 -1.6363
 2000TIP3    H227416   4.643   1.893  13.541 -0.6005 -0.1045  1.6227
 2001TIP3   OH227417   5.470   3.531   4.192 -0.2315 -0.3012  0.1424
 2001TIP3    H127418   5.441   3.546   4.282  1.3452 -0.0998  0.6430
 2001TIP3    H227419   5.550   3.480   4.200 -0.9377 -1.7278 -1.2306
 2002TIP3   OH227420   3.465   4.181   1.547 -0.0317  0.2796  0.0253
 2002TIP3    H127421   3.511   4.209   1.468  0.3578  0.4885  0.3256
 2002TIP3    H227422   3.479   4.086   1.550  2.3693  0.6052  1.3425
 2003TIP3   OH227423   1.769   2.067   0.821 -0.2043 -0.0002 -0.3277
 2003TIP3    H127424   1.856   2.028   0.834 -1.1643 -2.0000  0.4155
 2003TIP3    H227425   1.786   2.143   0.765  2.2077  0.5093  0.9497
 2004TIP3   OH227426   2.406   2.771   5.088  0.4263 -0.0628  0.2150
 2004TIP3    H127427   2.391   2.703   5.153 -1.1270 -0.6431 -0.6903
 2004TIP3    H227428   2.396   2.727   5.004 -1.7096  1.4261 -0.4160
 2005TIP3   OH227429   4.357   1.888  12.950  0.4441  0.4241  1.0948
 2005TIP3    H127430   4.398   1.973  12.938 -0.6700  0.8109 -0.2748
 2005TIP3    H227431   4.375   1.865  13.041  1.0862  1.9370  1.3834
 2006TIP3   OH227432   0.436   6.692  15.828 -0.0373  0.2615 -0.1033
 2006TIP3    H127433   0.402   6.726  15.911 -0.3956 -0.8862  0.2366
 2006TIP3    H227434   0.512   6.747  15.808  1.2528 -0.6433  2.0027
 2007TIP3   OH227435   3.722   2.037  16.322 -0.2863 -0.0245  0.0058
 2007TIP3    H127436   3.727   2.066  16.230  1.1356 -0.5058 -0.0873
 2007TIP3    H227437   3.812   2.018  16.346 -0.8145 -1.4042  1.0281
 2008TIP3   OH227438   2.380   5.037  15.629 -0.3949  0.2226  0.3691
 2008TIP3    H127439   2.328   5.109  15.666  0.4397  1.2742 -0.4407
 2008TIP3    H227440   2.367   5.046  15.534 -0.0416 -0.5200  0.2507
 2009TIP3   OH227441   2.935   4.129  12.229 -0.3017  0.4368  0.0734
 2009TIP3    H127442   2.908   4.125  12.320  1.0521 -1.4517  0.4630
 2009TIP3    H227443   2.936   4.037  12.200 -1.2527  1.0236 -2.0209
 2010TIP3   OH227444   6.181   6.436  11.591  1.0040 -0.0837  0.0018
 2010TIP3    H127445   6.147   6.414  11.505 -2.1336  1.6442  0.6321
 2010TIP3    H227446   6.276   6.441  11.579  0.7326 -0.5657 -3.1461
 2011TIP3   OH227447   6.550   0.216   5.334 -0.0506  0.1719  0.5289
 2011TIP3    H127448   6.489   0.232   5.406 -0.1588  2.6743 -0.0392
 2011TIP3    H227449   6.516   0.138   5.291 -1.6328  0.2844  1.5034
 2012TIP3   OH227450   0.404   5.815   4.046 -0.3437  0.0435 -0.3359
 2012TIP3    H127451   0.470   5.872   4.007  2.0269 -2.1834  0.2118
 2012TIP3    H227452   0.345   5.794   3.973  0.9285  0.2212 -1.4483
 2013TIP3   OH227453   4.528   3.244  16.307  0.0779  0.6576 -0.4788
 2013TIP3    H127454   4.518   3.324  16.254 -1.2198  0.2394 -0.8853
 2013TIP3    H227455   4.503   3.173  16.248 -0.0082  0.0521  0.2720
 2014TIP3   OH227456   1.656   6.416   2.106 -0.3055 -0.1318 -0.2402
 2014TIP3    H127457   1.727   6.369   2.063  0.4866  1.0161 -0.2041
 2014TIP3    H227458   1.698   6.470   2.172 -1.1459  1.0091 -0.6028
 2015TIP3   OH227459   6.092   5.749  12.010  0.6726  0.2002  0.0893
 2015TIP3    H127460   6.009   5.796  12.023  0.6725 -0.0100  0.9117
 2015TIP3    H227461   6.069   5.676  11.953  0.4304  0.5359 -0.2429
 2016TIP3   OH227462   6.241   4.047  14.308 -0.2332  0.4447 -0.1012
 2016TIP3    H127463   6.165   4.012  14.353 -2.3846  1.5007 -2.6044
 2016TIP3    H227464   6.261   4.129  14.353  0.2798 -0.4372  1.3377
 2017TIP3   OH227465   3.823   0.439  16.491  0.5135 -0.3073  0.2707
 2017TIP3    H127466   3.813   0.464  16.583  1.6781 -1.7259  0.8172
 2017TIP3    H227467   3.909   0.397  16.487 -0.1588 -1.6444 -1.1484
 2018TIP3   OH227468   5.389   2.188  12.325  0.5446 -0.0731 -0.2388
 2018TIP3    H127469   5.297   2.171  12.304  0.4535  0.4655 -0.2791
 2018TIP3    H227470   5.411   2.122  12.391 -0.1971  0.5164  0.6154
 2019TIP3   OH227471   3.101   5.315  12.280  0.0899  0.0795 -0.4168
 2019TIP3    H127472   3.143   5.231  12.295 -1.3001 -0.6530 -0.4762
 2019TIP3    H227473   3.109   5.361  12.364  0.8197 -0.1133 -0.3723
 2020TIP3   OH227474   2.854   4.851   4.493  0.7813 -0.1956 -0.3525
 2020TIP3    H127475   2.770   4.815   4.467  1.2462 -0.5347 -1.4579
 2020TIP3    H227476   2.911   4.834   4.418  1.8089  0.0983  0.3437
 2021TIP3   OH227477   4.993   3.053  13.419  0.7305 -0.1886  0.2624
 2021TIP3    H127478   4.971   3.024  13.508 -0.3275 -0.0231  0.0730
 2021TIP3    H227479   4.947   2.990  13.363  3.4469 -1.8791 -0.2299
 2022TIP3   OH227480   6.597   6.076  10.439 -0.2248 -0.4527  0.2751
 2022TIP3    H127481   6.621   6.030  10.359 -1.8851  1.3488 -1.3804
 2022TIP3    H227482   6.633   6.164  10.428 -0.8753 -0.0341  1.3011
 2023TIP3   OH227483   2.999   2.278   2.790 -0.1174 -0.3402 -0.3211
 2023TIP3    H127484   3.053   2.201   2.772  0.4203  0.2924 -1.4910
 2023TIP3    H227485   3.059   2.352   2.786 -0.0597  0.0041  3.5338
 2024TIP3   OH227486   5.841   3.073   1.120 -0.3030 -0.0605  0.4921
 2024TIP3    H127487   5.928   3.032   1.115  0.2743  1.3082 -1.5550
 2024TIP3    H227488   5.780   3.001   1.104  0.1959 -1.5453  4.2275
 2025TIP3   OH227489   2.754   5.255   3.270  0.4893 -0.3039 -0.3998
 2025TIP3    H127490   2.791   5.337   3.303  0.3086 -0.1522 -0.5637
 2025TIP3    H227491   2.668   5.249   3.313  0.4061 -0.2896 -0.5630
 2026TIP3   OH227492   0.544   4.498  13.996  0.5570 -0.3369 -0.5005
 2026TIP3    H127493   0.506   4.553  14.065  1.3008  0.0627 -0.4021
 2026TIP3    H227494   0.475   4.435  13.976  0.0941 -0.0616  0.1635
 2027TIP3   OH227495   2.838   3.346  17.121 -0.1683 -0.0539  0.2456
 2027TIP3    H127496   2.855   3.384  17.035 -0.5626 -0.2337  0.0832
 2027TIP3    H227497   2.757   3.295  17.109 -0.1725 -0.1577  0.6966
 2028TIP3   OH227498   0.621   6.282   1.483  0.4940 -0.1296  0.3276
 2028TIP3    H127499   0.535   6.254   1.513  0.6245  1.3168  2.2663
 2028TIP3    H227500   0.675   6.203   1.488 -0.6847 -1.0554 -0.9373
 2029TIP3   OH227501   2.687   6.336   5.331 -0.0545  0.2852  0.6163
 2029TIP3    H127502   2.781   6.328   5.311 -0.0327 -1.0634  1.1541
 2029TIP3    H227503   2.666   6.255   5.378 -1.6934  0.1397 -0.3081
 2030TIP3   OH227504   3.898   6.750  12.435 -0.0713  0.2639 -0.1228
 2030TIP3    H127505   3.805   6.738  12.456 -0.0896 -1.9787 -1.2512
 2030TIP3    H227506   3.943   6.736  12.519 -0.5847 -1.5947 -0.1231
 2031TIP3   OH227507   1.152   3.405  14.831 -0.0676  0.1534  0.2832
 2031TIP3    H127508   1.157   3.330  14.772 -2.1386 -1.0089  1.4928
 2031TIP3    H227509   1.113   3.474  14.779 -2.8933 -1.1787  0.4640
 2032TIP3   OH227510   0.912   2.605  16.779  1.1087 -0.3595 -0.1999
 2032TIP3    H127511   0.824   2.578  16.755  0.2645  2.4533 -0.5910
 2032TIP3    H227512   0.900   2.661  16.857  2.5839 -0.2613 -0.0033
 2033TIP3   OH227513   2.411   4.533  14.143 -0.7421 -0.2102 -0.1739
 2033TIP3    H127514   2.343   4.558  14.205  0.1364  0.5203  0.5242
 2033TIP3    H227515   2.387   4.576  14.061  0.1910  2.1846  0.7316
 2034TIP3   OH227516   0.019   0.388   6.364 -0.0617 -0.0515  0.1925
 2034TIP3    H127517   0.013   0.314   6.423 -0.5747 -1.2132 -1.2619
 2034TIP3    H227518   0.096   0.371   6.311 -0.7427 -0.0889 -0.8200
 2035TIP3   OH227519   5.718   6.064   2.571 -0.0476  0.5903  0.3049
 2035TIP3    H127520   5.717   5.971   2.594 -2.0919 -0.2077 -2.4403
 2035TIP3    H227521   5.656   6.104   2.632 -2.4768 -0.7333 -1.1459
 2036TIP3   OH227522   0.694   1.135  10.794  0.1877  0.0238  0.3470
 2036TIP3    H127523   0.689   1.077  10.718  1.2830  1.1720 -0.6620
 2036TIP3    H227524   0.613   1.186  10.791 -0.1266 -0.4651  0.4129
 2037TIP3   OH227525   5.843   1.871   4.239  0.4030  0.1390  0.0139
 2037TIP3    H127526   5.874   1.961   4.231 -0.0418  0.2268 -0.8498
 2037TIP3    H227527   5.797   1.868   4.323  1.1255  0.4961  0.4256
 2038TIP3   OH227528   5.258   5.995  14.568 -0.3905  0.0568  0.7049
 2038TIP3    H127529   5.248   5.902  14.549  0.8595 -0.0783  0.6026
 2038TIP3    H227530   5.344   6.002  14.611 -0.7277  1.0840  1.2658
 2039TIP3   OH227531   6.619   2.233  14.978  0.4983  0.2620 -0.6224
 2039TIP3    H127532   6.567   2.279  14.912 -0.3236 -2.0286 -1.6604
 2039TIP3    H227533   6.709   2.265  14.963  0.0716  1.0238 -1.7201
 2040TIP3   OH227534   1.156   5.894  12.317  0.5748 -0.2890 -0.1518
 2040TIP3    H127535   1.215   5.937  12.379 -0.5547  0.7988  0.2117
 2040TIP3    H227536   1.098   5.842  12.372 -0.6822  0.9844 -0.2258
 2041TIP3   OH227537   3.822   2.598   0.304 -0.4046 -0.0565 -0.2241
 2041TIP3    H127538   3.868   2.522   0.268  1.4698  0.7821  0.2472
 2041TIP3    H227539   3.731   2.570   0.312  0.0367 -1.8786 -1.0470
 2042TIP3   OH227540   5.798   5.039   1.234  0.0571 -0.0622 -0.0807
 2042TIP3    H127541   5.774   4.961   1.185 -0.5325  0.5482 -0.7946
 2042TIP3    H227542   5.763   5.112   1.182  1.0085  0.7044  0.3186
 2043TIP3   OH227543   3.821   4.711  12.291 -0.9257  0.7267 -0.1114
 2043TIP3    H127544   3.845   4.619  12.289 -1.7587  0.5170 -0.6679
 2043TIP3    H227545   3.847   4.744  12.204 -0.7778  0.9760  0.0261
 2044TIP3   OH227546   3.467   5.707   0.719 -0.0971 -0.1171  0.0111
 2044TIP3    H127547   3.433   5.659   0.643 -0.1674 -0.6707  0.3923
 2044TIP3    H227548   3.514   5.642   0.770  1.1001  0.5193 -0.2278
 2045TIP3   OH227549   0.946   4.283  12.520 -0.3282  0.5054 -0.4565
 2045TIP3    H127550   0.869   4.300  12.466 -0.7222  0.5520  0.1070
 2045TIP3    H227551   0.912   4.283  12.610  0.2582  0.1215 -0.2298
 2046TIP3   OH227552   3.506   4.130   2.000  0.3424  0.0239  0.8762
 2046TIP3    H127553   3.497   4.039   1.970 -0.4574  0.5717 -0.6694
 2046TIP3    H227554   3.416   4.162   2.003  0.6867  1.0988  0.2443
 2047TIP3   OH227555   3.697   1.825   4.419 -0.1842  0.1300 -0.2454
 2047TIP3    H127556   3.673   1.748   4.471 -0.8926  0.7973  0.4515
 2047TIP3    H227557   3.614   1.872   4.408  0.4771  1.5412  0.6050
 2048TIP3   OH227558   0.338   5.942   2.262  0.4503  0.1629 -0.3501
 2048TIP3    H127559   0.412   5.981   2.309  1.2046 -0.7403 -0.7568
 2048TIP3    H227560   0.275   5.920   2.331  0.3522  1.3485 -0.0445
 2049TIP3   OH227561   5.036   2.801  16.179 -0.2209  0.2868  0.1530
 2049TIP3    H127562   4.955   2.851  16.186 -0.5316 -0.1579 -0.1912
 2049TIP3    H227563   5.094   2.840  16.244 -0.8455  0.3483  0.6812
 2050TIP3   OH227564   0.849   2.535  12.491  0.0331 -0.5505  0.4917
 2050TIP3    H127565   0.923   2.514  12.547 -0.6117 -1.3644  1.0534
 2050TIP3    H227566   0.818   2.620  12.523  2.3037  1.1517 -1.4362
 2051TIP3   OH227567   4.782   4.986  17.073  0.6784 -0.2476  0.2972
 2051TIP3    H127568   4.876   4.996  17.087  1.0052 -1.8410 -0.5288
 2051TIP3    H227569   4.775   4.912  17.012 -1.0364  0.7693 -0.8158
 2052TIP3   OH227570   4.056   5.245   0.210  0.4449  0.1099 -0.9343
 2052TIP3    H127571   4.001   5.317   0.240 -1.7259 -1.1073 -1.7516
 2052TIP3    H227572   4.042   5.176   0.275  2.8269  0.4947  0.0739
 2053TIP3   OH227573   6.314   4.977   1.638 -0.0826  0.1708 -0.0145
 2053TIP3    H127574   6.278   4.932   1.714 -0.3537 -1.1083 -0.8739
 2053TIP3    H227575   6.317   5.069   1.664  2.0479 -0.4531  2.4493
 2054TIP3   OH227576   0.971   3.303   5.947  0.1331 -0.0682  0.5469
 2054TIP3    H127577   0.961   3.212   5.973 -0.2055 -0.1833  0.0179
 2054TIP3    H227578   1.045   3.303   5.887 -1.1669 -0.3404 -1.1095
 2055TIP3   OH227579   2.774   3.292   2.960  0.1613 -0.5380 -0.1223
 2055TIP3    H127580   2.785   3.315   2.868 -1.3631 -0.3170 -0.2720
 2055TIP3    H227581   2.859   3.312   3.000 -0.6468  4.7565 -0.3595
 2056TIP3   OH227582   4.977   2.953   1.639 -0.2967  0.3165  0.0476
 2056TIP3    H127583   4.896   2.903   1.639 -0.7535  1.0061  1.5139
 2056TIP3    H227584   4.978   2.997   1.554  0.2838 -2.3358 -1.4598
 2057TIP3   OH227585   1.968   1.784   1.041  0.1579 -0.1478  0.0927
 2057TIP3    H127586   1.886   1.749   1.075 -0.3950 -0.4346 -1.4534
 2057TIP3    H227587   2.031   1.712   1.050  0.7750  0.6357  2.9320
 2058TIP3   OH227588   2.941   3.643   5.760 -0.4112 -0.0567 -0.7478
 2058TIP3    H127589   2.939   3.691   5.842 -2.0169 -0.1600 -0.6983
 2058TIP3    H227590   3.017   3.678   5.713 -0.4062  1.1302  0.1069
 2059TIP3   OH227591   4.224   5.874   1.690  0.0232  0.1475  0.3652
 2059TIP3    H127592   4.218   5.905   1.599 -3.1022 -0.7174  0.1559
 2059TIP3    H227593   4.246   5.782   1.682  0.9498  0.3351  0.5927
 2060TIP3   OH227594   3.799   3.951  11.776 -0.0123 -0.3885  0.3979
 2060TIP3    H127595   3.869   3.988  11.830  1.1122 -0.0163 -1.2639
 2060TIP3    H227596   3.758   3.885  11.832  0.6325  0.4798  1.9451
 2061TIP3   OH227597   1.016   4.102  13.194 -0.2325  0.5056  0.6218
 2061TIP3    H127598   1.002   4.196  13.188  0.6196  0.7476  2.0023
 2061TIP3    H227599   0.995   4.080  13.284 -0.2339 -0.5941  0.3710
 2062TIP3   OH227600   5.291   1.290   0.271  0.5688  0.0269  0.4257
 2062TIP3    H127601   5.378   1.330   0.268  0.2176  0.7834 -0.3963
 2062TIP3    H227602   5.245   1.327   0.195 -0.1685 -1.0663  0.3152
 2063TIP3   OH227603   3.918   2.220   4.357 -0.0172 -0.4583  0.4619
 2063TIP3    H127604   3.831   2.247   4.329  0.3837 -0.7134 -1.1072
 2063TIP3    H227605   3.902   2.149   4.419 -0.9638  1.0730  2.0348
 2064TIP3   OH227606   2.688   1.630  14.148 -0.5561  0.1666  0.3821
 2064TIP3    H127607   2.716   1.587  14.068 -0.4399  0.2721  0.3653
 2064TIP3    H227608   2.621   1.693  14.120  0.0747  0.7875  0.2559
 2065TIP3   OH227609   2.751   3.958  14.288  0.0275  0.4726 -0.0145
 2065TIP3    H127610   2.787   3.892  14.230 -0.3480 -0.1355  0.4329
 2065TIP3    H227611   2.666   3.924  14.314 -1.2292  2.1910 -1.5926
 2066TIP3   OH227612   1.623   5.369   1.353  0.0252  0.1402  0.1674
 2066TIP3    H127613   1.670   5.443   1.392  1.0772 -0.0010 -0.7734
 2066TIP3    H227614   1.540   5.407   1.324  0.7206  1.0754 -0.6833
 2067TIP3   OH227615   1.448   6.474  13.623 -0.2366  0.1155  0.1105
 2067TIP3    H127616   1.511   6.528  13.575 -1.3537  1.5679  0.2120
 2067TIP3    H227617   1.451   6.507  13.713  0.7528 -1.5883  0.7509
 2068TIP3   OH227618   3.706   5.840   2.722  0.1843  0.0421  0.1677
 2068TIP3    H127619   3.635   5.831   2.659 -0.2335 -4.2610  0.9608
 2068TIP3    H227620   3.785   5.812   2.675  0.7250  1.2738  0.3064
 2069TIP3   OH227621   2.195   2.320   0.064  0.0747 -0.1862 -0.4080
 2069TIP3    H127622   2.165   2.410   0.071  0.1188 -0.2783  2.1881
 2069TIP3    H227623   2.115   2.270   0.046 -0.2423  0.2087 -0.1226
 2070TIP3   OH227624   6.342   1.150  14.451  0.2982  0.3319 -0.2729
 2070TIP3    H127625   6.390   1.202  14.386 -0.0703  1.0099 -0.0104
 2070TIP3    H227626   6.363   1.059  14.429  1.4303  0.5997 -0.3768
 2071TIP3   OH227627   1.650   1.266  14.204  0.0979  0.1141 -0.0650
 2071TIP3    H127628   1.595   1.317  14.144  0.6857  0.7724 -0.0615
 2071TIP3    H227629   1.589   1.232  14.270 -0.5547 -0.5897 -0.9996
 2072TIP3   OH227630   4.980   6.731  12.972  0.0839  0.1399 -0.5329
 2072TIP3    H127631   4.893   6.747  13.009  0.0968  3.1015 -1.5608
 2072TIP3    H227632   5.035   6.801  13.007  1.1866  0.3846 -2.5707
 2073TIP3   OH227633   4.246   4.867   5.831 -0.0555  0.1023 -0.1375
 2073TIP3    H127634   4.192   4.927   5.882 -0.5944 -1.3112  1.0485
 2073TIP3    H227635   4.188   4.837   5.760  0.6285  1.9088 -1.5403
 2074TIP3   OH227636   6.585   0.493   3.379 -0.1293 -0.6017 -0.2663
 2074TIP3    H127637   6.605   0.556   3.310 -0.3926 -1.0157 -0.7277
 2074TIP3    H227638   6.649   0.423   3.367  0.0472 -0.5109  0.1311
 2075TIP3   OH227639   4.954   0.395  12.895 -0.2541 -0.5889 -0.5148
 2075TIP3    H127640   4.878   0.352  12.855  0.2417 -1.0515 -0.9660
 2075TIP3    H227641   4.936   0.489  12.885 -1.2126 -0.6649  0.2374
 2076TIP3   OH227642   0.173   6.694  16.895  0.3633  0.4918  0.3505
 2076TIP3    H127643   0.154   6.665  16.807  0.9303  0.2234  0.3115
 2076TIP3    H227644   0.110   6.765  16.911 -2.4236 -1.9896  1.2046
 2077TIP3   OH227645   0.137   5.235  12.003  0.1620  0.5647 -1.1649
 2077TIP3    H127646   0.048   5.239  12.036  0.8724  0.1183  0.9770
 2077TIP3    H227647   0.143   5.304  11.937 -1.8905  0.2228 -1.7604
 2078TIP3   OH227648   2.648   4.996  15.199 -0.2772  0.0421  0.4520
 2078TIP3    H127649   2.584   4.953  15.143 -0.4335 -1.8304  1.9835
 2078TIP3    H227650   2.732   4.979  15.157 -0.5618  0.6646 -0.4123
 2079TIP3   OH227651   6.184   4.032   5.028  0.3523  0.4312 -0.7625
 2079TIP3    H127652   6.175   3.962   4.963 -3.8045 -0.3290  0.3707
 2079TIP3    H227653   6.095   4.062   5.043  1.4361  2.4363  2.6252
 2080TIP3   OH227654   6.544   3.860  15.193 -0.1483 -0.5975 -0.1438
 2080TIP3    H127655   6.561   3.954  15.199 -0.5716 -0.2806 -2.7831
 2080TIP3    H227656   6.449   3.852  15.198 -0.0798 -0.9820  0.7615
 2081TIP3   OH227657   1.305   1.781   5.228 -0.5984 -0.4762  0.7972
 2081TIP3    H127658   1.286   1.733   5.147 -1.9064  0.7719  0.3111
 2081TIP3    H227659   1.358   1.855   5.201 -0.1954 -0.5917  1.2496
 2082TIP3   OH227660   1.974   2.887  11.218 -0.5865  0.4927 -0.0791
 2082TIP3    H127661   1.912   2.824  11.256 -0.3842  0.6652  0.5632
 2082TIP3    H227662   2.035   2.834  11.168  0.0881  0.0557  1.1449
 2083TIP3   OH227663   0.595   0.740  13.793 -0.2025  0.2091 -0.3213
 2083TIP3    H127664   0.589   0.762  13.700  0.2466  0.1016 -0.3810
 2083TIP3    H227665   0.552   0.655  13.800  0.3926 -0.1246 -0.5679
 2084TIP3   OH227666   3.554   6.075   0.547  0.1644 -0.1862  0.1099
 2084TIP3    H127667   3.648   6.056   0.545 -0.1604 -1.8747 -0.6115
 2084TIP3    H227668   3.528   6.060   0.638 -0.0313 -3.3382 -0.3556
 2085TIP3   OH227669   5.508   4.701  13.970 -0.1449  0.0369  0.2473
 2085TIP3    H127670   5.476   4.641  14.037  1.1787  1.0999  1.9287
 2085TIP3    H227671   5.432   4.752  13.944 -0.8795 -1.0596  0.1889
 2086TIP3   OH227672   0.091   0.384  12.541 -0.1283 -0.4104 -0.1787
 2086TIP3    H127673   0.020   0.321  12.533 -0.0349 -0.6508  0.7380
 2086TIP3    H227674   0.081   0.442  12.466 -2.0199  0.2748  0.5329
 2087TIP3   OH227675   2.328   4.239   4.660  0.6523 -0.6311 -0.2386
 2087TIP3    H127676   2.364   4.276   4.579 -0.4775  1.2411  0.0660
 2087TIP3    H227677   2.271   4.307   4.695 -0.0490 -1.9692  1.3838
 2088TIP3   OH227678   0.200   4.185   3.685  0.4046  0.5453  0.1651
 2088TIP3    H127679   0.197   4.138   3.769  2.0349  1.3149  0.6977
 2088TIP3    H227680   0.268   4.141   3.635 -0.3953  0.2458 -0.6867
 2089TIP3   OH227681   5.942   0.243   0.506 -0.3458 -0.2242 -0.0889
 2089TIP3    H127682   5.873   0.196   0.551  0.2410 -1.0499 -0.0343
 2089TIP3    H227683   5.898   0.316   0.462 -1.4482 -1.5211 -1.1934
 2090TIP3   OH227684   5.068   1.070  14.575  0.0745  0.5492 -0.1647
 2090TIP3    H127685   5.033   1.152  14.540  1.2081  0.7594 -0.8699
 2090TIP3    H227686   5.161   1.072  14.552  0.2518 -0.6451  0.3715
 2091TIP3   OH227687   3.154   0.768  15.301 -0.3341 -0.4173 -0.4631
 2091TIP3    H127688   3.240   0.729  15.284  0.6474  1.4127  0.0303
 2091TIP3    H227689   3.156   0.851  15.254 -1.4097  0.1511  0.4557
 2092TIP3   OH227690   5.638   2.425   6.046 -0.0158  0.3514 -0.3841
 2092TIP3    H127691   5.637   2.404   5.953  0.9921  1.1157 -0.5840
 2092TIP3    H227692   5.655   2.341   6.090 -2.1528 -0.3355 -0.7487
 2093TIP3   OH227693   4.205   1.210   6.021  0.5287 -0.1395  0.4572
 2093TIP3    H127694   4.127   1.185   6.070 -0.0561 -0.9377 -0.8348
 2093TIP3    H227695   4.267   1.238   6.088 -0.6934  0.0682  1.5443
 2094TIP3   OH227696   4.193   6.435   3.098 -0.6683 -0.3582 -0.1709
 2094TIP3    H127697   4.142   6.508   3.064 -1.3743  0.1897  1.9139
 2094TIP3    H227698   4.272   6.434   3.044 -0.7580  1.7848 -0.4379
 2095TIP3   OH227699   3.516   4.945  15.883 -0.6302  0.1237  0.7820
 2095TIP3    H127700   3.481   4.912  15.966 -0.5926  0.0545  0.7702
 2095TIP3    H227701   3.606   4.971  15.903 -0.4729 -0.3186  0.6551
 2096TIP3   OH227702   5.420   1.376  16.877  0.7547  0.8211 -0.4157
 2096TIP3    H127703   5.412   1.417  16.791  0.2810  0.8105 -0.3760
 2096TIP3    H227704   5.372   1.434  16.936  2.0739  1.4840  0.0685
 2097TIP3   OH227705   3.470   2.622  13.301 -0.2242  0.2853 -0.6998
 2097TIP3    H127706   3.544   2.622  13.362  1.7376  0.2939 -2.9693
 2097TIP3    H227707   3.448   2.530  13.291  0.7470  0.1190 -1.4403
 2098TIP3   OH227708   5.698   4.995  13.962  0.5566 -0.8198  0.0872
 2098TIP3    H127709   5.692   5.000  14.057  1.6554  1.7064  0.1031
 2098TIP3    H227710   5.739   4.910  13.945 -0.9012 -1.9242  1.7390
 2099TIP3   OH227711   4.047   4.061  16.853 -0.0160 -0.0395  0.3322
 2099TIP3    H127712   4.098   3.990  16.815  1.3426  1.2877 -0.4382
 2099TIP3    H227713   4.020   4.028  16.939  0.9498 -1.3165  0.1743
 2100TIP3   OH227714   0.072   0.100  10.740  0.0139 -0.3544 -0.1701
 2100TIP3    H127715   0.125   0.025  10.767 -0.1865 -0.8291 -1.0632
 2100TIP3    H227716  -0.014   0.084  10.779  0.0133 -0.5164 -0.2381
 2101TIP3   OH227717   3.264   3.177  12.875  0.1456  0.0657 -0.1977
 2101TIP3    H127718   3.310   3.094  12.869 -1.1396 -0.7119  0.2277
 2101TIP3    H227719   3.197   3.173  12.807 -1.1977 -0.1158  1.0874
 2102TIP3   OH227720   6.579   2.487  15.916  0.9677  0.3893  0.4501
 2102TIP3    H127721   6.634   2.455  15.845 -1.0775 -0.3114 -0.9015
 2102TIP3    H227722   6.496   2.441  15.905  0.0688  1.4094  2.3977
 2103TIP3   OH227723   3.746   6.726   5.047  0.3479 -0.2765  0.5477
 2103TIP3    H127724   3.669   6.706   4.994  0.9857  0.5428 -0.7290
 2103TIP3    H227725   3.718   6.800   5.101  0.3806  0.3631 -0.2885
 2104TIP3   OH227726   3.564   4.884   4.160  0.0935 -0.0858  0.0423
 2104TIP3    H127727   3.526   4.968   4.186 -2.0827 -1.0585  0.2161
 2104TIP3    H227728   3.581   4.839   4.243 -2.5802 -1.3673  0.0073
 2105TIP3   OH227729   6.038   2.599  12.964  0.5507  0.0062  0.6248
 2105TIP3    H127730   6.048   2.580  13.058  0.3189  1.1217  0.8977
 2105TIP3    H227731   5.969   2.540  12.935  0.1363  0.1250  1.3301
 2106TIP3   OH227732   6.419   1.860  14.542  0.3634  0.1718  0.2115
 2106TIP3    H127733   6.392   1.934  14.488  0.5082 -0.3356 -0.5845
 2106TIP3    H227734   6.349   1.850  14.607 -1.1965 -0.8380 -1.5196
 2107TIP3   OH227735   0.406   0.846  11.427 -0.3338 -0.3823  0.3416
 2107TIP3    H127736   0.499   0.827  11.442 -0.0916  1.2050  0.9854
 2107TIP3    H227737   0.380   0.784  11.358  1.1616 -0.9233  0.2251
 2108TIP3   OH227738   2.902   0.345   2.530 -0.0178  0.2972 -0.7890
 2108TIP3    H127739   2.993   0.332   2.502  0.2702 -0.3455  0.3619
 2108TIP3    H227740   2.900   0.434   2.565  0.3330  0.1050 -0.2649
 2109TIP3   OH227741   3.283   3.191   1.191  0.6139 -0.2974 -0.0003
 2109TIP3    H127742   3.212   3.255   1.185  1.2516  0.5531  1.0767
 2109TIP3    H227743   3.326   3.193   1.106  1.2393  1.4919  0.3120
 2110TIP3   OH227744   5.715   1.052   1.318  0.0865 -0.0585 -0.2805
 2110TIP3    H127745   5.720   1.009   1.232 -2.5192 -0.8507 -0.1261
 2110TIP3    H227746   5.776   1.003   1.373  0.1075 -1.0162 -1.1244
 2111TIP3   OH227747   4.301   2.875  16.666 -0.2260  0.7462 -0.3057
 2111TIP3    H127748   4.391   2.842  16.664 -0.9173 -1.2477 -0.2766
 2111TIP3    H227749   4.254   2.822  16.601 -1.6406  0.9372  0.5210
 2112TIP3   OH227750   2.224   2.448  16.725  0.0996 -0.0744 -0.2522
 2112TIP3    H127751   2.134   2.471  16.748  0.0346 -0.8380  0.3050
 2112TIP3    H227752   2.221   2.434  16.630  0.2165  2.4221 -0.6776
 2113TIP3   OH227753   2.706   0.263   4.997  0.5201 -0.2356  0.3493
 2113TIP3    H127754   2.673   0.212   4.924 -0.4950 -0.9074  1.2460
 2113TIP3    H227755   2.800   0.244   4.999  0.0716 -2.8909  1.2016
 2114TIP3   OH227756   4.007   3.152  10.779 -0.0980  0.3762  0.1833
 2114TIP3    H127757   3.981   3.124  10.867  2.0097  1.8786  1.3598
 2114TIP3    H227758   4.083   3.099  10.758 -0.1363  0.5491 -0.4118
 2115TIP3   OH227759   2.790   2.638  16.286 -0.0354  0.4546 -0.7532
 2115TIP3    H127760   2.734   2.566  16.259 -0.0063  0.6642 -1.3767
 2115TIP3    H227761   2.877   2.599  16.298  0.0407  0.4376 -1.3531
 2116TIP3   OH227762   1.168   4.224   6.560 -0.3189  0.4203  0.1208
 2116TIP3    H127763   1.168   4.268   6.476 -1.3266  0.5680  0.1908
 2116TIP3    H227764   1.256   4.185   6.567  0.0125  1.0152 -0.6624
 2117TIP3   OH227765   5.630   1.100   5.399  0.2524 -0.0727 -0.1885
 2117TIP3    H127766   5.561   1.131   5.459 -0.4925 -1.0239 -0.5246
 2117TIP3    H227767   5.634   1.168   5.331  0.7440  0.7556  0.6410
 2118TIP3   OH227768   1.539   1.083  11.334  0.3277 -0.0981 -0.5930
 2118TIP3    H127769   1.488   1.134  11.271  0.6308  1.8783  0.6772
 2118TIP3    H227770   1.586   1.018  11.281  0.4940  1.4197 -2.3879
 2119TIP3   OH227771   6.579   2.150  11.842  0.0022  0.2499 -0.2201
 2119TIP3    H127772   6.579   2.203  11.921 -1.2656  2.0594 -1.3751
 2119TIP3    H227773   6.612   2.208  11.774  1.7335 -1.4804 -0.9506
 2120TIP3   OH227774   2.890   3.249  12.031 -0.3676 -0.5165  0.7725
 2120TIP3    H127775   2.948   3.192  12.081 -0.2671 -1.0468  0.0569
 2120TIP3    H227776   2.914   3.338  12.058  1.5718 -0.6438 -0.3331
 2121TIP3   OH227777   0.375   0.144   5.936  0.2530 -0.3156 -0.3394
 2121TIP3    H127778   0.341   0.055   5.930 -0.1699 -0.1671 -0.1712
 2121TIP3    H227779   0.324   0.194   5.873  2.2646 -0.7060 -2.4272
 2122TIP3   OH227780   2.387   3.626   3.080 -0.3189 -0.1537  0.1446
 2122TIP3    H127781   2.421   3.716   3.085 -1.3334  0.3915 -1.7238
 2122TIP3    H227782   2.441   3.585   3.012  0.7648 -1.2983  1.6355
 2123TIP3   OH227783   0.956   1.466  16.581  0.0591 -0.7914 -0.5515
 2123TIP3    H127784   0.904   1.386  16.574 -0.9458 -0.0519 -1.7285
 2123TIP3    H227785   1.022   1.457  16.512 -2.5102  1.1118 -3.5130
 2124TIP3   OH227786   4.323   3.161   5.224  0.4320  0.1611 -0.6133
 2124TIP3    H127787   4.333   3.087   5.164 -0.9236 -0.4399 -0.1203
 2124TIP3    H227788   4.229   3.174   5.231  0.6385  2.7383 -1.6193
 2125TIP3   OH227789   2.913   6.157   1.348  0.2329  0.2140  0.0425
 2125TIP3    H127790   2.899   6.106   1.428 -0.6156 -1.0164 -0.8575
 2125TIP3    H227791   3.004   6.141   1.325  0.7019  1.1445  1.1089
 2126TIP3   OH227792   0.677   1.615   0.447  0.5817  0.1894 -0.0068
 2126TIP3    H127793   0.733   1.584   0.517  1.8889 -1.2977 -1.6114
 2126TIP3    H227794   0.611   1.546   0.437 -1.2796  1.6607  1.4901
 2127TIP3   OH227795   4.540   0.673   2.499  0.2346  0.1057  0.6134
 2127TIP3    H127796   4.476   0.693   2.431  0.3368  0.6759  0.6787
 2127TIP3    H227797   4.624   0.669   2.453  0.4170  1.3036  0.8239
 2128TIP3   OH227798   5.571   2.498  16.361  0.1033  0.2808  0.1173
 2128TIP3    H127799   5.567   2.530  16.451 -1.5451  2.3559 -0.6159
 2128TIP3    H227800   5.647   2.543  16.323 -0.1363  0.6542  0.0665
 2129TIP3   OH227801   5.352   0.393  13.666 -0.0615  0.3111 -0.5866
 2129TIP3    H127802   5.390   0.448  13.597  1.7106 -0.2621 -0.1203
 2129TIP3    H227803   5.410   0.317  13.672 -0.8944 -0.2718  0.6697
 2130TIP3   OH227804   3.176   5.477   2.362 -0.0637  0.1863 -0.6847
 2130TIP3    H127805   3.126   5.457   2.282  2.2022  0.1820 -2.2091
 2130TIP3    H227806   3.253   5.420   2.357  1.7584  2.4422 -0.1932
 2131TIP3   OH227807   0.351   6.284  12.886 -0.0113 -0.0268  0.5074
 2131TIP3    H127808   0.394   6.345  12.946  0.5452 -0.5455  0.6467
 2131TIP3    H227809   0.408   6.207  12.886  0.0117 -0.0205 -0.7277
 2132TIP3   OH227810   3.079   0.378   3.719  0.9539  0.0990 -0.5659
 2132TIP3    H127811   3.077   0.400   3.813  1.8834  4.6603 -1.3888
 2132TIP3    H227812   2.987   0.368   3.695  0.5247  1.3401  0.4308
 2133TIP3   OH227813   6.662   2.593   1.097  0.4170  0.4215  0.3223
 2133TIP3    H127814   6.733   2.535   1.126  0.1901 -0.0436 -0.0392
 2133TIP3    H227815   6.707   2.664   1.051  0.5370 -1.5617 -2.8923
 2134TIP3   OH227816   0.054   3.100  15.822  0.2372 -0.2138  0.2454
 2134TIP3    H127817  -0.036   3.085  15.852 -0.1337 -1.8995 -1.5030
 2134TIP3    H227818   0.056   3.064  15.734  1.8193  2.6513 -1.0161
 2135TIP3   OH227819   1.775   2.538   2.802  0.0905 -0.1273  0.3013
 2135TIP3    H127820   1.755   2.596   2.728  0.4591 -0.2662  0.0931
 2135TIP3    H227821   1.691   2.497   2.823  0.2644 -1.2015 -0.9858
 2136TIP3   OH227822   4.866   6.093  13.603  0.2819  0.0516 -0.0443
 2136TIP3    H127823   4.827   6.166  13.554 -1.8925  0.0964  1.5825
 2136TIP3    H227824   4.833   6.014  13.560  0.8128  0.0502 -0.4513
 2137TIP3   OH227825   6.436   1.270  16.068 -0.2956  0.1479 -0.2354
 2137TIP3    H127826   6.521   1.234  16.042  0.1805  1.1859 -0.1755
 2137TIP3    H227827   6.372   1.224  16.013  0.2113 -1.1892  0.2545
 2138TIP3   OH227828   2.523   4.558   0.568  0.0411  0.1756  0.1290
 2138TIP3    H127829   2.567   4.517   0.643 -0.8436 -0.4898  0.3013
 2138TIP3    H227830   2.556   4.648   0.568  1.5375 -0.3372  0.1276
 2139TIP3   OH227831   6.384   5.566  14.767 -0.3401  0.2433  0.5170
 2139TIP3    H127832   6.423   5.539  14.850 -1.3330 -0.4338  0.7909
 2139TIP3    H227833   6.358   5.657  14.781  0.1586  0.3610  0.6936
 2140TIP3   OH227834   3.959   3.782   5.045  0.0586 -0.6927 -0.5254
 2140TIP3    H127835   3.883   3.725   5.062  0.6494 -1.2406  0.3352
 2140TIP3    H227836   3.945   3.813   4.955 -0.1463 -2.4368 -1.1389
 2141TIP3   OH227837   6.219   2.678   0.356  0.0486  0.1765  0.5498
 2141TIP3    H127838   6.232   2.586   0.379  1.0155  0.2383  0.2894
 2141TIP3    H227839   6.193   2.675   0.263  2.0665  0.2590 -0.0557
 2142TIP3   OH227840   1.115   5.532   3.352 -0.5975 -0.0926 -0.1834
 2142TIP3    H127841   1.151   5.446   3.331  0.8612  0.3644  0.3026
 2142TIP3    H227842   1.067   5.558   3.274  1.2466 -0.2052 -1.4324
 2143TIP3   OH227843   4.310   2.801   0.568 -0.1780  0.0052 -0.0605
 2143TIP3    H127844   4.265   2.746   0.633 -1.8400  0.7694 -0.5089
 2143TIP3    H227845   4.343   2.875   0.618  0.0724 -0.2698  0.1848
 2144TIP3   OH227846   3.293   3.773   0.212 -0.3496 -0.6832  0.3971
 2144TIP3    H127847   3.376   3.762   0.165  0.0612  0.0188  0.9320
 2144TIP3    H227848   3.249   3.688   0.204 -0.0133 -0.7680 -0.7130
 2145TIP3   OH227849   2.729   1.236  12.567 -0.6519  0.1779  0.2158
 2145TIP3    H127850   2.734   1.332  12.567  3.4550  0.1536 -0.6283
 2145TIP3    H227851   2.665   1.215  12.499 -0.3816  2.3409 -0.7982
 2146TIP3   OH227852   3.245   1.100  16.356 -0.3447 -0.5118  0.0766
 2146TIP3    H127853   3.161   1.133  16.324 -0.8273 -1.2374  0.5737
 2146TIP3    H227854   3.268   1.030  16.295  0.8578  0.9036 -1.1984
 2147TIP3   OH227855   3.426   1.481   0.651 -0.4371 -0.6778 -0.4099
 2147TIP3    H127856   3.351   1.537   0.670  0.2398  0.1669 -0.1976
 2147TIP3    H227857   3.416   1.407   0.711  0.6854  1.0690  2.0762
 2148TIP3   OH227858   6.161   6.088   3.849 -0.5179  0.4461  0.5289
 2148TIP3    H127859   6.091   6.090   3.914  0.3854  1.1668  1.5216
 2148TIP3    H227860   6.185   5.996   3.841 -0.5277  0.3697  1.3538
 2149TIP3   OH227861   5.874   4.938   1.490 -0.0020 -0.3539 -0.3188
 2149TIP3    H127862   5.845   5.014   1.440  0.2034 -0.2483 -0.2782
 2149TIP3    H227863   5.948   4.904   1.439 -0.1128 -0.5444 -0.3534
 2150TIP3   OH227864   0.607   1.772  10.448  0.4703  0.6188 -0.1776
 2150TIP3    H127865   0.582   1.719  10.372 -0.9711  0.0966  0.6231
 2150TIP3    H227866   0.536   1.758  10.511  2.5177 -0.4800  2.0265
 2151TIP3   OH227867   3.959   5.012   1.872  0.1598  0.4689 -0.3665
 2151TIP3    H127868   3.945   5.006   1.967 -1.0682  0.5774 -0.5306
 2151TIP3    H227869   3.937   4.925   1.839 -0.0680  0.6209 -0.6227
 2152TIP3   OH227870   4.253   5.960  10.476 -0.6793  0.7216  0.3434
 2152TIP3    H127871   4.189   5.905  10.521 -1.6054  0.2578 -1.4821
 2152TIP3    H227872   4.296   5.901  10.414  1.5013  1.0472  1.4540
 2153TIP3   OH227873   4.864   2.153  13.251  0.0601 -0.4678 -0.5655
 2153TIP3    H127874   4.816   2.179  13.330 -1.6505  1.6107 -2.1632
 2153TIP3    H227875   4.798   2.110  13.196  0.6132  0.2252 -1.8017
 2154TIP3   OH227876   6.586   2.898  11.408 -0.0953 -0.1171  0.2752
 2154TIP3    H127877   6.667   2.937  11.443  1.0616 -0.1646 -2.1077
 2154TIP3    H227878   6.581   2.932  11.319 -0.8232 -2.8438 -0.8052
 2155TIP3   OH227879   1.191   5.936  16.044  0.1677 -0.1018  0.1808
 2155TIP3    H127880   1.230   5.874  16.106  1.8538  0.3419 -0.3698
 2155TIP3    H227881   1.222   6.021  16.074 -1.6776  0.4546  0.6068
 2156TIP3   OH227882   0.414   6.278  15.285 -0.0953 -0.2442  0.4024
 2156TIP3    H127883   0.380   6.221  15.355  1.3996 -2.0619 -0.2829
 2156TIP3    H227884   0.478   6.334  15.328 -1.2559  0.6970  0.9926
 2157TIP3   OH227885   6.137   4.632  12.901 -0.6320 -0.2759 -0.4646
 2157TIP3    H127886   6.041   4.627  12.899 -0.6355  0.0731 -1.5528
 2157TIP3    H227887   6.158   4.713  12.854  0.1710  0.1050  0.5088
 2158TIP3   OH227888   3.994   5.340  10.493  0.2752 -0.2740 -0.1472
 2158TIP3    H127889   4.005   5.435  10.485 -0.6300 -0.1683 -0.1616
 2158TIP3    H227890   3.920   5.329  10.553  1.7616 -0.9860  1.6950
 2159TIP3   OH227891   3.176   0.597   5.182  0.0507 -0.8032  0.1992
 2159TIP3    H127892   3.164   0.692   5.184  0.8752 -0.6707 -0.7354
 2159TIP3    H227893   3.143   0.570   5.097  0.3343 -1.2886  0.2369
 2160TIP3   OH227894   5.438   1.366  11.116 -0.5847 -0.1120 -0.1183
 2160TIP3    H127895   5.449   1.389  11.024  2.1722 -0.0371  0.1667
 2160TIP3    H227896   5.382   1.288  11.115 -1.6132  0.6044 -1.7393
 2161TIP3   OH227897   0.884   5.850   4.049 -0.2068 -0.3360  0.0196
 2161TIP3    H127898   0.961   5.798   4.072 -1.2024 -2.3296 -0.9252
 2161TIP3    H227899   0.900   5.935   4.089  0.7688 -1.8205  3.0677
 2162TIP3   OH227900   2.449   5.948   0.236  0.2408 -0.0122 -0.1697
 2162TIP3    H127901   2.392   6.017   0.270  0.6124 -0.5308  1.5706
 2162TIP3    H227902   2.532   5.993   0.218  0.5423 -0.0260  1.1412
 2163TIP3   OH227903   5.589   4.229  12.637  0.1413 -0.0231 -0.0825
 2163TIP3    H127904   5.612   4.164  12.571 -1.8216  0.0142 -0.8661
 2163TIP3    H227905   5.636   4.308  12.609 -0.3484 -0.1140 -1.2458
 2164TIP3   OH227906   4.947   2.950   0.408 -0.3683  0.1389 -0.1377
 2164TIP3    H127907   4.874   2.988   0.457  0.3125  1.0172  0.2171
 2164TIP3    H227908   5.024   2.968   0.462  0.1719 -0.3762 -0.7227
 2165TIP3   OH227909   0.317   5.819  14.096 -0.1904  0.0347  0.8446
 2165TIP3    H127910   0.383   5.780  14.039 -0.2365 -0.0432  0.8456
 2165TIP3    H227911   0.366   5.849  14.172 -0.1555 -0.0221  0.8448
 2166TIP3   OH227912   5.296   2.264   6.353 -0.0240  0.3524 -0.2825
 2166TIP3    H127913   5.371   2.320   6.369  0.6294 -1.0406  1.9857
 2166TIP3    H227914   5.304   2.239   6.261  0.9631  2.0448 -0.7030
 2167TIP3   OH227915   2.553   2.051  13.824  0.3366 -0.0734 -0.5163
 2167TIP3    H127916   2.636   2.003  13.830 -0.5451 -1.6684 -0.5887
 2167TIP3    H227917   2.503   2.004  13.757 -0.6895  0.7719 -0.3590
 2168TIP3   OH227918   3.006   3.440   0.399 -0.3743 -0.1677 -0.0149
 2168TIP3    H127919   2.927   3.418   0.348 -1.9428  1.9826  1.3392
 2168TIP3    H227920   2.983   3.417   0.489  0.0272  1.6714  0.5817
 2169TIP3   OH227921   5.883   3.920  14.258  0.3579 -0.2344 -0.2552
 2169TIP3    H127922   5.835   3.999  14.233  0.0430 -0.5493 -0.6704
 2169TIP3    H227923   5.863   3.858  14.188 -0.4478 -1.1175  0.7312
 2170TIP3   OH227924   1.318   1.596  14.773 -0.2712 -0.4531 -0.4340
 2170TIP3    H127925   1.270   1.672  14.739 -0.4868 -1.3413 -2.1857
 2170TIP3    H227926   1.395   1.590  14.718  1.5353  0.4354  1.8119
 2171TIP3   OH227927   1.281   6.124  14.585 -0.0628 -0.0685  0.4856
 2171TIP3    H127928   1.313   6.200  14.537  0.3001 -0.6108 -0.1427
 2171TIP3    H227929   1.310   6.139  14.675  1.3948 -0.2076  0.0734
 2172TIP3   OH227930   5.234   2.608  15.594 -0.1204  0.1011  0.2696
 2172TIP3    H127931   5.140   2.623  15.605  0.2836  2.0481  1.3668
 2172TIP3    H227932   5.243   2.513  15.600 -2.2849 -0.4237 -2.4352
 2173TIP3   OH227933   1.527   0.201   4.497  0.0126  0.0683 -0.1283
 2173TIP3    H127934   1.573   0.165   4.421 -1.9135 -1.8569 -0.4782
 2173TIP3    H227935   1.587   0.186   4.570  0.5320 -1.1336 -0.7718
 2174TIP3   OH227936   1.446   5.260   5.427  0.2527 -0.0298  0.2041
 2174TIP3    H127937   1.482   5.187   5.376  0.0443 -1.1050  1.5287
 2174TIP3    H227938   1.374   5.221   5.478  2.2240  0.2211  3.5016
 2175TIP3   OH227939   0.904   4.926  16.800 -0.2938  0.0636  0.5454
 2175TIP3    H127940   0.970   4.860  16.824  0.3570  0.4877 -0.0341
 2175TIP3    H227941   0.821   4.878  16.800 -0.3202 -0.0205  3.3516
 2176TIP3   OH227942   4.275   3.943  12.910 -0.3030 -0.4562  0.3283
 2176TIP3    H127943   4.269   3.861  12.861 -0.6856 -0.6385  0.6742
 2176TIP3    H227944   4.224   4.005  12.859  0.6496 -0.2171 -0.3587
 2177TIP3   OH227945   1.501   4.290   5.594  0.1552 -0.1675 -0.4377
 2177TIP3    H127946   1.409   4.306   5.614  0.1019  1.4171 -1.8155
 2177TIP3    H227947   1.515   4.198   5.620 -0.8483  0.5186  3.0669
 2178TIP3   OH227948   1.082   2.504  12.651 -0.4652  0.3280  0.0749
 2178TIP3    H127949   1.155   2.565  12.644 -1.2467  1.0942 -2.8993
 2178TIP3    H227950   1.123   2.418  12.645  0.4100  0.5901  1.6329
 2179TIP3   OH227951   6.704   6.019  16.348 -0.3274 -0.3740 -0.2288
 2179TIP3    H127952   6.745   5.996  16.432  0.4298 -0.3648 -0.5887
 2179TIP3    H227953   6.770   6.071  16.303  0.2007 -2.2843 -1.7873
 2180TIP3   OH227954   1.939   5.912   3.234 -0.5726  0.0842  0.4222
 2180TIP3    H127955   1.922   5.969   3.159 -1.9178  0.4413  0.9574
 2180TIP3    H227956   1.976   5.970   3.300 -0.9067  0.1203  0.5823
 2181TIP3   OH227957   3.887   4.845  11.770 -0.8922 -0.3340  0.4280
 2181TIP3    H127958   3.842   4.870  11.689 -2.8412 -2.4513  0.7711
 2181TIP3    H227959   3.967   4.802  11.740 -1.2119 -0.4126 -0.3502
 2182TIP3   OH227960   3.493   5.221   2.950  0.3158  0.3094 -0.2286
 2182TIP3    H127961   3.581   5.224   2.914  0.3169 -0.0838 -0.2648
 2182TIP3    H227962   3.503   5.183   3.037  0.2513  0.7994 -0.0043
 2183TIP3   OH227963   3.486   5.533   6.453  0.2976  0.3545  0.0688
 2183TIP3    H127964   3.491   5.603   6.389  0.0564  2.2384  1.9766
 2183TIP3    H227965   3.557   5.473   6.430 -0.9684 -0.1506 -3.0610
 2184TIP3   OH227966   0.472   3.252  15.130 -0.0078  0.8591  0.1615
 2184TIP3    H127967   0.466   3.235  15.036  4.8110  0.7803 -0.3666
 2184TIP3    H227968   0.450   3.168  15.171 -0.8852  0.5352 -0.9385
 2185TIP3   OH227969   2.230   2.792   3.017  0.2628  1.3053 -0.0029
 2185TIP3    H127970   2.317   2.778   3.052  0.3271  0.1832 -0.5646
 2185TIP3    H227971   2.241   2.789   2.922 -0.3830  1.1208 -0.0818
 2186TIP3   OH227972   2.103   1.545  14.669  0.0868 -0.2167 -0.0396
 2186TIP3    H127973   2.080   1.486  14.597 -0.0633 -2.2560  1.5825
 2186TIP3    H227974   2.192   1.520  14.693  0.2152  0.5801  0.3612
 2187TIP3   OH227975   3.999   0.710   5.140 -0.2240  0.2233  0.1341
 2187TIP3    H127976   3.995   0.616   5.123 -2.9410  0.3441 -0.4937
 2187TIP3    H227977   3.923   0.728   5.196  0.1689  2.0406  0.1619
 2188TIP3   OH227978   3.969   4.606   0.297  0.1589  0.0441  0.0460
 2188TIP3    H127979   3.978   4.677   0.361 -1.6761 -0.0412  0.4451
 2188TIP3    H227980   3.960   4.527   0.351 -0.3029 -0.1644 -0.3373
 2189TIP3   OH227981   4.005   5.337  14.245  0.8611 -0.3356  0.0190
 2189TIP3    H127982   3.969   5.405  14.302 -0.6882 -2.2669  1.4762
 2189TIP3    H227983   4.066   5.289  14.301  0.6508 -1.1887 -0.4703
 2190TIP3   OH227984   6.136   6.437   5.142 -0.2495 -0.2703  0.1779
 2190TIP3    H127985   6.162   6.346   5.156  0.2223 -0.0856  0.5499
 2190TIP3    H227986   6.184   6.486   5.209 -1.1177  0.1614  0.5009
 2191TIP3   OH227987   4.686   3.702   1.460 -0.7175 -0.2050 -0.2881
 2191TIP3    H127988   4.745   3.766   1.499 -0.4171  0.6867 -2.1052
 2191TIP3    H227989   4.740   3.624   1.449 -1.0939 -0.8576  1.9620
 2192TIP3   OH227990   3.815   0.239   3.438 -0.0376  0.2399 -0.1306
 2192TIP3    H127991   3.753   0.288   3.383  0.0668  0.6420  0.1059
 2192TIP3    H227992   3.875   0.306   3.470 -1.4547  0.4326  2.3819
 2193TIP3   OH227993   0.771   1.121  14.187  0.2390  0.2896  0.2569
 2193TIP3    H127994   0.837   1.074  14.135 -1.3103 -0.5244 -1.0458
 2193TIP3    H227995   0.738   1.188  14.127 -0.9891 -0.1213  0.4611
 2194TIP3   OH227996   0.943   0.741   0.869  0.2303 -0.3788 -0.2014
 2194TIP3    H127997   0.991   0.783   0.941  1.2142 -1.8876  0.0639
 2194TIP3    H227998   0.908   0.661   0.908 -0.3002 -0.5853 -1.0858
 2195TIP3   OH227999   6.762   0.537  13.267 -0.1548  0.4437  0.2349
 2195TIP3    H128000   6.668   0.551  13.279 -0.7145 -0.8782 -2.0919
 2195TIP3    H228001   6.793   0.618  13.227 -0.1381  1.1112  1.5275
 2196TIP3   OH228002   0.629   4.595  15.811 -0.6235 -0.2672  0.0663
 2196TIP3    H128003   0.570   4.567  15.880  0.6783 -1.0078  0.9344
 2196TIP3    H228004   0.627   4.525  15.746  0.7381 -1.2756  1.0436
 2197TIP3   OH228005   3.468   2.601   4.717 -0.4083  0.4958 -0.5170
 2197TIP3    H128006   3.383   2.559   4.708 -0.0068 -0.1741 -1.2755
 2197TIP3    H228007   3.531   2.529   4.710  0.1980  0.6566  2.0527
 2198TIP3   OH228008   2.847   6.441   3.432 -0.7339 -0.0391  0.7372
 2198TIP3    H128009   2.791   6.365   3.448 -0.8480  0.5748  3.7418
 2198TIP3    H228010   2.928   6.422   3.479 -0.0786  0.9865  0.0631
 2199TIP3   OH228011   3.001   5.018   1.440  0.2517  0.1298  0.2823
 2199TIP3    H128012   3.059   5.094   1.438  0.1557  0.1922 -1.0684
 2199TIP3    H228013   2.998   4.988   1.349 -0.0820 -1.2162  0.7151
 2200TIP3   OH228014   3.730   5.281   0.538  0.4411 -0.3867  0.3011
 2200TIP3    H128015   3.760   5.361   0.579  0.1019 -0.1422  0.0773
 2200TIP3    H228016   3.742   5.213   0.605  0.5442 -0.1177  0.5562
 2201TIP3   OH228017   1.154   4.718   2.089  0.3140  0.2402 -0.3393
 2201TIP3    H128018   1.120   4.645   2.038  0.4055 -0.6940  0.9010
 2201TIP3    H228019   1.126   4.701   2.178  1.1070  1.2487  0.1297
 2202TIP3   OH228020   4.386   5.131  13.201  0.1379 -0.1577 -0.2120
 2202TIP3    H128021   4.318   5.169  13.146 -0.1900  1.6824  1.3482
 2202TIP3    H228022   4.344   5.054  13.241 -0.5268  0.0853 -0.4302
 2203TIP3   OH228023   2.062   2.098  15.682 -0.4895  0.5667  0.7328
 2203TIP3    H128024   2.097   2.011  15.701  1.3967  1.1053 -0.1369
 2203TIP3    H228025   2.132   2.143  15.635 -1.4885  2.5202  1.0266
 2204TIP3   OH228026   3.769   4.920   1.053  0.1354 -0.4390 -0.1234
 2204TIP3    H128027   3.675   4.923   1.033  0.2096 -0.8094 -0.5665
 2204TIP3    H228028   3.782   4.986   1.121  0.0294  1.6204 -1.9924
 2205TIP3   OH228029   4.105   3.235  16.389  0.4192  0.2651  0.0982
 2205TIP3    H128030   4.145   3.247  16.475  0.1011 -0.1485  0.3115
 2205TIP3    H228031   4.156   3.165  16.348  1.5637  1.5271 -0.6893
 2206TIP3   OH228032   5.577   3.536  16.449 -0.4751  0.2513  0.1547
 2206TIP3    H128033   5.608   3.598  16.515 -0.8617 -0.0360  0.6130
 2206TIP3    H228034   5.598   3.450  16.485 -2.9631 -0.0410  1.1512
 2207TIP3   OH228035   1.486   1.866  11.502  0.4222 -0.1123 -0.6263
 2207TIP3    H128036   1.410   1.826  11.461  1.1022 -0.1287 -1.9227
 2207TIP3    H228037   1.519   1.799  11.562  1.4516 -1.5107 -2.6534
 2208TIP3   OH228038   2.386   4.335   1.181 -0.5078 -0.2358 -0.2208
 2208TIP3    H128039   2.458   4.273   1.193  0.4615  1.2212  2.2178
 2208TIP3    H228040   2.319   4.305   1.242 -1.9131 -1.3884 -2.2404
 2209TIP3   OH228041   1.583   6.215  16.384  0.0770 -0.2197  0.5605
 2209TIP3    H128042   1.556   6.132  16.422 -0.7563  0.2842  1.0884
 2209TIP3    H228043   1.549   6.212  16.294  3.9829 -2.3938 -1.1102
 2210TIP3   OH228044   4.444   0.659   4.337 -0.1279  0.2061  0.0640
 2210TIP3    H128045   4.459   0.727   4.272  0.5112  0.2827  0.2806
 2210TIP3    H228046   4.498   0.585   4.308  0.5231  0.4009  0.7319
 2211TIP3   OH228047   5.421   6.292  13.501  0.0801  0.0720 -0.4337
 2211TIP3    H128048   5.390   6.383  13.508  1.1787  0.3889  0.8433
 2211TIP3    H228049   5.377   6.257  13.424 -1.7932  1.1198  0.0971
 2212TIP3   OH228050   6.635   2.927  13.213  0.2423 -0.1807  0.0157
 2212TIP3    H128051   6.588   2.904  13.293 -0.3928 -0.8409 -0.5347
 2212TIP3    H228052   6.650   3.021  13.219 -0.1289 -0.1664  0.7337
 2213TIP3   OH228053   6.039   6.678   3.844 -0.6578 -0.2864  0.2430
 2213TIP3    H128054   6.037   6.675   3.939 -0.5354  0.2148  0.2653
 2213TIP3    H228055   6.108   6.742   3.824 -0.2541 -0.8428 -0.1871
 2214TIP3   OH228056   3.553   5.990   3.817  0.4930 -0.0879  0.0934
 2214TIP3    H128057   3.502   5.987   3.898  2.7636 -0.6082  1.6049
 2214TIP3    H228058   3.643   6.007   3.846  1.5203 -1.0122 -2.2687
 2215TIP3   OH228059   3.849   1.255  15.324 -0.2305  0.1043  1.0597
 2215TIP3    H128060   3.835   1.303  15.243  1.2440  2.6631  2.1917
 2215TIP3    H228061   3.921   1.195  15.305 -0.6690 -0.1589  0.1979
 2216TIP3   OH228062   3.396   3.004  12.471 -0.0377  0.2689 -0.3080
 2216TIP3    H128063   3.370   2.924  12.426  0.0381  0.7373 -1.2071
 2216TIP3    H228064   3.325   3.066  12.453  0.2239  0.6051 -0.1864
 2217TIP3   OH228065   2.510   0.655   5.998 -0.0203  0.1214 -0.3026
 2217TIP3    H128066   2.464   0.617   5.923  0.0895 -1.2896  0.3050
 2217TIP3    H228067   2.449   0.719   6.034 -1.0258 -0.8248 -0.2527
 2218TIP3   OH228068   4.180   1.644   2.332  0.0919  0.0179 -0.1526
 2218TIP3    H128069   4.109   1.683   2.281  0.8606 -0.3832 -1.5623
 2218TIP3    H228070   4.147   1.558   2.356  0.3857 -0.4753 -1.4740
 2219TIP3   OH228071   1.061   3.624  11.118 -0.2034 -0.3589 -0.3356
 2219TIP3    H128072   1.144   3.671  11.128 -0.9033  0.7553  0.5732
 2219TIP3    H228073   1.050   3.613  11.024 -0.0803  1.5054 -0.6028
 2220TIP3   OH228074   3.828   0.758   0.914 -0.4928  0.3722 -0.2020
 2220TIP3    H128075   3.819   0.698   0.840 -2.1560  1.3535 -0.8425
 2220TIP3    H228076   3.897   0.719   0.967  1.0016 -0.1912 -2.4165
 2221TIP3   OH228077   4.230   3.560   1.543  0.6818 -0.4500  0.2457
 2221TIP3    H128078   4.281   3.641   1.537  0.7562 -0.6030 -3.1596
 2221TIP3    H228079   4.141   3.586   1.522  0.3124 -0.9923  1.0684
 2222TIP3   OH228080   2.375   1.281   5.527 -0.4719  0.3327  0.3090
 2222TIP3    H128081   2.318   1.204   5.525 -1.5576  1.1185  0.0642
 2222TIP3    H228082   2.348   1.328   5.606  0.4548  0.2660  0.6684
 2223TIP3   OH228083   3.443   1.705  12.515  0.2174 -0.1614  0.1087
 2223TIP3    H128084   3.494   1.626  12.498  0.8408  0.0899  0.7755
 2223TIP3    H228085   3.367   1.697  12.457 -0.1019 -1.5894  0.6845
 2224TIP3   OH228086   0.587   5.157  12.573 -0.1721  0.0866  0.0917
 2224TIP3    H128087   0.537   5.239  12.576 -0.5746 -0.0816 -1.3905
 2224TIP3    H228088   0.678   5.185  12.566 -0.2762  0.4054  0.0130
 2225TIP3   OH228089   3.469   1.194   3.526 -0.0804  0.1229  0.0365
 2225TIP3    H128090   3.495   1.260   3.462  2.1844  0.2756  1.0463
 2225TIP3    H228091   3.380   1.219   3.550 -0.1133  1.4287 -1.2933
 2226TIP3   OH228092   1.036   2.299   4.454  0.0945  0.6496 -0.6571
 2226TIP3    H128093   0.963   2.357   4.478  0.9145  2.3962 -2.1459
 2226TIP3    H228094   1.067   2.333   4.370  2.6034 -0.0429 -0.0934
 2227TIP3   OH228095   2.489   1.575   4.249 -0.0791  0.1346 -0.0867
 2227TIP3    H128096   2.410   1.566   4.195 -1.0343  1.4503  1.0515
 2227TIP3    H228097   2.456   1.592   4.337  1.4896  0.7035  0.4071
 2228TIP3   OH228098   1.608   4.477   5.409 -0.0019  0.1161  0.3789
 2228TIP3    H128099   1.547   4.419   5.454  0.1685  0.4204  1.0096
 2228TIP3    H228100   1.690   4.429   5.407  0.2049  0.4226  1.1193
 2229TIP3   OH228101   2.678   4.300  12.744  0.1367 -0.4313 -0.0687
 2229TIP3    H128102   2.736   4.247  12.690  0.6107  1.9301 -2.0727
 2229TIP3    H228103   2.592   4.292  12.702 -0.3556 -1.4733  1.0691
 2230TIP3   OH228104   0.026   5.666  11.635 -0.1464  0.4970 -0.0354
 2230TIP3    H128105   0.102   5.693  11.584  1.1745 -2.0736  0.4317
 2230TIP3    H228106   0.056   5.665  11.726 -0.4077 -1.4273  0.0658
 2231TIP3   OH228107   0.613   4.071   2.668  0.0631 -0.2985  0.8895
 2231TIP3    H128108   0.618   4.057   2.762 -0.6631 -0.2506  0.9423
 2231TIP3    H228109   0.551   4.006   2.637 -0.6189  0.4627  0.6262
 2232TIP3   OH228110   4.495   1.662  11.098 -0.7040 -0.4021 -0.5944
 2232TIP3    H128111   4.561   1.664  11.167 -1.1122 -2.1170 -0.1222
 2232TIP3    H228112   4.454   1.748  11.103  1.3916  0.6715 -0.8298
 2233TIP3   OH228113   6.748   3.955  14.815  0.6227 -0.0637  0.5155
 2233TIP3    H128114   6.744   4.046  14.784 -0.6329 -0.5648 -0.8967
 2233TIP3    H228115   6.657   3.925  14.813  1.0362 -1.3977  0.8268
 2234TIP3   OH228116   2.982   3.429   6.473 -0.0919 -0.0552  0.0393
 2234TIP3    H128117   3.043   3.387   6.533  0.5722  2.3563  1.1914
 2234TIP3    H228118   2.913   3.364   6.459  0.7365 -1.4138  1.8418
 2235TIP3   OH228119   4.230   1.658  15.088 -0.0060 -0.4096 -0.3065
 2235TIP3    H128120   4.297   1.727  15.089 -0.9706  0.6064 -1.6938
 2235TIP3    H228121   4.247   1.610  15.007 -1.9939  1.0153 -1.6719
 2236TIP3   OH228122   6.509   2.462   2.891 -0.1252  0.2398  0.0744
 2236TIP3    H128123   6.550   2.381   2.861  0.3099  0.3916  0.2453
 2236TIP3    H228124   6.422   2.461   2.852  0.3841  0.3812 -1.0887
 2237TIP3   OH228125   3.799   6.536   0.891 -0.3782  0.8398  0.1741
 2237TIP3    H128126   3.869   6.536   0.956 -0.6760  1.0610  0.5013
 2237TIP3    H228127   3.764   6.447   0.893  1.3850  0.0251 -1.6434
 2238TIP3   OH228128   2.425   1.207   6.472  0.1469 -0.1535 -0.2129
 2238TIP3    H128129   2.420   1.270   6.399 -0.3452 -0.2726 -0.2912
 2238TIP3    H228130   2.411   1.260   6.550  0.4839 -0.0527 -0.2232
 2239TIP3   OH228131   0.617   0.274  13.691 -0.0499  0.2750  0.0312
 2239TIP3    H128132   0.592   0.249  13.779  0.4939  1.0911  0.4369
 2239TIP3    H228133   0.710   0.297  13.698 -0.2114  1.1842 -0.5558
 2240TIP3   OH228134   4.464   6.682   4.841  0.2967  0.1700  0.8034
 2240TIP3    H128135   4.538   6.644   4.888 -0.5791 -0.9069  1.3734
 2240TIP3    H228136   4.455   6.627   4.762  0.8431  1.0517  0.1067
 2241TIP3   OH228137   0.434   5.413  14.577  0.2931 -0.0594 -0.4126
 2241TIP3    H128138   0.482   5.335  14.551 -0.5756 -0.8358  0.2511
 2241TIP3    H228139   0.356   5.380  14.621 -0.2011  1.1822 -0.3047
 2242TIP3   OH228140   3.562   5.740  11.436 -0.1662 -0.0872 -0.0698
 2242TIP3    H128141   3.631   5.805  11.451 -0.6763  0.0512  1.9304
 2242TIP3    H228142   3.596   5.660  11.476 -0.7141 -0.2866  0.0077
 2243TIP3   OH228143   1.276   6.353   0.106 -0.3821  0.0228  0.1083
 2243TIP3    H128144   1.195   6.369   0.057 -1.0283  1.3686  1.5212
 2243TIP3    H228145   1.281   6.257   0.112 -0.9827 -0.1272 -1.3937
 2244TIP3   OH228146   3.530   3.017  15.562  0.5526 -0.3423  0.0676
 2244TIP3    H128147   3.603   3.058  15.608  0.2259 -2.1954  2.4246
 2244TIP3    H228148   3.570   2.945  15.513  0.4903 -0.3999  0.1015
 2245TIP3   OH228149   3.130   6.050  16.126  0.2932  0.3751 -0.3240
 2245TIP3    H128150   3.109   6.122  16.185  1.1446  0.4680 -0.1188
 2245TIP3    H228151   3.045   6.011  16.104 -0.0515  0.4824  0.7707
 2246TIP3   OH228152   5.879   3.901  11.715  0.0926 -0.4082  0.1778
 2246TIP3    H128153   5.915   3.990  11.707 -3.7453  1.4242  1.1414
 2246TIP3    H228154   5.924   3.865  11.792  2.2066  0.3668 -0.6251
 2247TIP3   OH228155   2.119   2.596  14.333  0.3163  0.0592 -0.3670
 2247TIP3    H128156   2.079   2.619  14.249 -1.0932 -1.2975 -0.1163
 2247TIP3    H228157   2.213   2.612  14.320 -0.1098  1.9624 -1.4536
 2248TIP3   OH228158   0.235   3.568  17.112  0.3528 -0.4915  0.2659
 2248TIP3    H128159   0.246   3.650  17.159 -3.8206  0.4204  0.0820
 2248TIP3    H228160   0.195   3.509  17.176  2.4016 -2.1567  0.1131
 2249TIP3   OH228161   2.800   6.286  14.317 -0.6859  0.1564 -0.2713
 2249TIP3    H128162   2.709   6.316  14.310 -1.1210 -1.1510 -0.5731
 2249TIP3    H228163   2.818   6.245  14.233  0.4149  0.9594 -0.4455
 2250TIP3   OH228164   2.971   2.638   5.330  0.3465 -0.1105 -0.1543
 2250TIP3    H128165   3.064   2.655   5.345  0.3190  0.0854 -0.1998
 2250TIP3    H228166   2.927   2.711   5.373  0.2488  0.2470 -0.8571
 2251TIP3   OH228167   6.511   5.284   3.340 -0.0400 -0.4698 -0.5072
 2251TIP3    H128168   6.426   5.299   3.299  0.0068 -1.2064 -0.8872
 2251TIP3    H228169   6.497   5.303   3.433 -0.1148  1.3616 -0.8421
 2252TIP3   OH228170   1.818   5.546   1.443 -0.5098 -0.2920 -0.4010
 2252TIP3    H128171   1.906   5.508   1.448 -1.3094 -2.0831  1.2529
 2252TIP3    H228172   1.815   5.609   1.516 -1.6670 -2.8987  2.0200
 2253TIP3   OH228173   6.150   4.997  13.115  0.0040 -0.3751 -0.0734
 2253TIP3    H128174   6.084   5.028  13.177  0.4193  0.9637 -0.2668
 2253TIP3    H228175   6.215   4.952  13.169 -0.1935 -0.1803  0.3249
 2254TIP3   OH228176   3.210   3.682   3.706  0.1657 -0.1266  0.1615
 2254TIP3    H128177   3.163   3.652   3.628 -0.0144  0.7885 -0.0845
 2254TIP3    H228178   3.277   3.614   3.721  0.2871 -0.2424 -0.8599
 2255TIP3   OH228179   1.319   2.329   1.774 -0.5892 -0.5061 -0.0284
 2255TIP3    H128180   1.289   2.273   1.702 -0.1416 -0.7681 -0.0147
 2255TIP3    H228181   1.406   2.295   1.796 -1.1488 -1.1240  1.3669
 2256TIP3   OH228182   0.419   2.310   0.878  0.5787 -0.2704  0.2503
 2256TIP3    H128183   0.481   2.321   0.806  0.9271  1.9181  0.8065
 2256TIP3    H228184   0.346   2.261   0.840  0.9759  0.3796 -1.4598
 2257TIP3   OH228185   4.473   0.504   6.345 -0.1166  0.5833  0.3387
 2257TIP3    H128186   4.408   0.548   6.400  0.2406  0.7530  0.6281
 2257TIP3    H228187   4.557   0.540   6.373  0.1490 -0.0066  0.3195
 2258TIP3   OH228188   4.850   4.684   6.026  0.0297 -0.5292  0.0497
 2258TIP3    H128189   4.763   4.648   6.007  0.1847 -0.8094 -0.1340
 2258TIP3    H228190   4.857   4.760   5.969 -0.6943  0.4056  1.1422
 2259TIP3   OH228191   1.804   2.244  11.154  0.0037  0.3495  0.3800
 2259TIP3    H128192   1.715   2.269  11.181 -0.0079 -1.3186  2.1470
 2259TIP3    H228193   1.834   2.186  11.224  1.5611 -1.0795 -1.3818
 2260TIP3   OH228194   6.181   2.140  17.133  0.4939 -0.0660 -0.3542
 2260TIP3    H128195   6.274   2.129  17.112  0.3831 -0.5693 -0.5983
 2260TIP3    H228196   6.172   2.233  17.154  1.1839 -0.1459  0.3320
 2261TIP3   OH228197   2.848   5.469   5.256 -0.5441 -0.0563 -0.5054
 2261TIP3    H128198   2.875   5.490   5.167 -0.8318  0.4061 -0.4850
 2261TIP3    H228199   2.874   5.546   5.308  2.0332 -1.3433  0.3142
 2262TIP3   OH228200   3.634   0.379  14.126  0.3605 -0.3051 -0.6338
 2262TIP3    H128201   3.585   0.300  14.102 -0.9753  0.4693 -0.5778
 2262TIP3    H228202   3.595   0.406  14.210  1.0851  0.1856 -0.4477
 2263TIP3   OH228203   6.089   2.170   4.674  0.2084  0.5696  0.0931
 2263TIP3    H128204   6.169   2.208   4.711 -0.1427  0.4901  0.9528
 2263TIP3    H228205   6.119   2.119   4.599  1.1007 -0.2325  0.9551
 2264TIP3   OH228206   3.119   2.281  12.600  0.0109 -0.1046 -0.0234
 2264TIP3    H128207   3.193   2.302  12.656 -0.6315 -0.5989  1.0313
 2264TIP3    H228208   3.110   2.358  12.543  1.8780 -0.4064 -0.7938
 2265TIP3   OH228209   5.892   4.596   2.789 -0.3050 -0.0930  0.0189
 2265TIP3    H128210   5.968   4.644   2.820  0.4891 -1.6833  0.6855
 2265TIP3    H228211   5.817   4.641   2.828  0.5060 -0.4070  2.0890
 2266TIP3   OH228212   0.585   3.442  10.692 -0.6120 -0.3514  0.3748
 2266TIP3    H128213   0.514   3.481  10.743  1.2074  1.9983  1.2930
 2266TIP3    H228214   0.585   3.491  10.610  0.3032  0.1131  0.6375
 2267TIP3   OH228215   4.633   4.734   5.234  0.1461  0.0932  0.2247
 2267TIP3    H128216   4.621   4.640   5.222  1.0097 -0.3442  2.2686
 2267TIP3    H228217   4.722   4.751   5.201 -1.0450  0.8322 -2.8995
 2268TIP3   OH228218   4.227   5.647   2.658  0.1292  0.4140  0.1994
 2268TIP3    H128219   4.228   5.636   2.753  0.8159  0.1029  0.1633
 2268TIP3    H228220   4.317   5.630   2.631 -0.5541 -2.1896 -0.7937
 2269TIP3   OH228221   0.072   0.143  12.232  0.1517  0.1667  0.3858
 2269TIP3    H128222   0.149   0.137  12.289  0.0009  0.3531  0.6142
 2269TIP3    H228223   0.104   0.186  12.153 -0.2240  2.6082  1.4635
 2270TIP3   OH228224   5.123   3.754  11.654 -0.3025  0.0493 -0.6737
 2270TIP3    H128225   5.098   3.673  11.699  0.1838  0.5781  0.5874
 2270TIP3    H228226   5.083   3.746  11.567 -1.2705 -0.9991 -0.1627
 2271TIP3   OH228227   0.278   3.639   5.459  0.0928 -0.2254  0.1707
 2271TIP3    H128228   0.278   3.702   5.387 -0.4391 -0.3079  0.0886
 2271TIP3    H228229   0.358   3.588   5.447  0.0478 -0.1859 -0.3157
 2272TIP3   OH228230   1.940   4.658   0.889  0.2143  0.6382 -0.3904
 2272TIP3    H128231   1.906   4.673   0.978  1.4071 -1.1945  0.4164
 2272TIP3    H228232   1.861   4.653   0.835 -0.6206  0.4116  0.7922
 2273TIP3   OH228233   1.188   4.700   4.517  0.4767  1.0751  0.4538
 2273TIP3    H128234   1.270   4.658   4.542  0.2505  0.4044  0.0639
 2273TIP3    H228235   1.125   4.671   4.583  0.3809  1.0199  0.3371
 2274TIP3   OH228236   6.468   6.111  13.132 -0.2507  0.2011 -0.2475
 2274TIP3    H128237   6.394   6.168  13.112 -0.2141  0.9076  1.4561
 2274TIP3    H228238   6.505   6.089  13.047 -1.8594  0.5633 -1.0918
 2275TIP3   OH228239   0.327   6.373   0.287 -0.1361  0.0423 -0.3622
 2275TIP3    H128240   0.288   6.302   0.236 -0.6744 -0.0084  0.1098
 2275TIP3    H228241   0.276   6.450   0.263 -0.1203  0.0988 -0.2129
 2276TIP3   OH228242   6.588   0.833   2.237  0.5309 -0.1973  0.3626
 2276TIP3    H128243   6.671   0.785   2.241  1.4762  1.3907  0.6963
 2276TIP3    H228244   6.598   0.894   2.164  0.2059  0.9218  1.2076
 2277TIP3   OH228245   3.116   5.840   0.191  0.3404  0.0061 -0.1224
 2277TIP3    H128246   3.170   5.783   0.137 -0.2813  0.2470 -1.0220
 2277TIP3    H228247   3.065   5.892   0.128 -1.0518 -0.3352  0.6899
 2278TIP3   OH228248   5.250   1.297  14.138 -0.1168 -0.2858 -0.1407
 2278TIP3    H128249   5.251   1.347  14.220  0.8261 -2.1369  1.0530
 2278TIP3    H228250   5.283   1.357  14.072 -0.6152  1.1673  0.8887
 2279TIP3   OH228251   3.154   6.505   0.633  0.1805  0.5358  0.4387
 2279TIP3    H128252   3.095   6.518   0.708  0.1690 -1.5804  0.8533
 2279TIP3    H228253   3.100   6.525   0.556 -1.1349 -1.3562  0.8129
 2280TIP3   OH228254   0.641   4.500  16.670  0.4549 -0.4864  0.2508
 2280TIP3    H128255   0.661   4.433  16.605  0.6251 -0.0679 -0.1371
 2280TIP3    H228256   0.706   4.486  16.739  1.0043 -0.2341 -0.1967
 2281TIP3   OH228257   0.744   2.033  12.664 -0.0958 -0.2484 -0.0895
 2281TIP3    H128258   0.829   2.004  12.631  0.5502  0.2156  1.0946
 2281TIP3    H228259   0.722   2.109  12.610 -0.1279 -0.8218 -0.8972
 2282TIP3   OH228260   4.857   3.002   5.132  0.3957  0.3837  0.1111
 2282TIP3    H128261   4.833   3.068   5.196 -1.6520  0.0752 -0.2756
 2282TIP3    H228262   4.855   2.919   5.180 -1.7886  0.0681 -0.4029
 2283TIP3   OH228263   0.058   3.999   4.980  0.6445  0.1915  0.1410
 2283TIP3    H128264   0.022   4.043   4.903  0.8725  0.7894  0.3695
 2283TIP3    H228265   0.083   3.912   4.949 -2.2008 -0.7484  0.2720
 2284TIP3   OH228266   3.059   5.801   3.466  0.1978 -0.0153 -0.4642
 2284TIP3    H128267   3.022   5.773   3.550  0.4080  1.8714  0.3163
 2284TIP3    H228268   3.059   5.897   3.471  1.0121  0.1169 -2.2846
 2285TIP3   OH228269   1.623   3.153   0.252 -0.1298 -0.5959 -0.3653
 2285TIP3    H128270   1.579   3.087   0.198 -0.4487 -0.2795 -0.5002
 2285TIP3    H228271   1.551   3.206   0.286  0.1475 -0.1446 -0.4883
 2286TIP3   OH228272   4.058   5.910  12.890  0.4963 -0.3117  0.2672
 2286TIP3    H128273   3.985   5.970  12.907 -0.0854 -0.5092 -1.3226
 2286TIP3    H228274   4.019   5.823  12.897  0.4395 -0.4102 -1.0539
 2287TIP3   OH228275   1.542   5.949   4.908  0.2174  0.0124  0.1104
 2287TIP3    H128276   1.495   5.988   4.981  1.7297  0.5394  0.8513
 2287TIP3    H228277   1.618   6.006   4.894  0.4027 -0.5248 -1.3489
 2288TIP3   OH228278   2.189   3.101  14.823 -0.4350 -0.0486  0.0106
 2288TIP3    H128279   2.153   3.178  14.867  1.3931 -0.9413  3.3871
 2288TIP3    H228280   2.279   3.126  14.802 -0.1046 -0.9660  0.3145
 2289TIP3   OH228281   5.200   0.914   5.803 -0.7221 -0.2964 -0.5211
 2289TIP3    H128282   5.198   0.819   5.797 -1.1456 -0.2845 -0.6237
 2289TIP3    H228283   5.291   0.938   5.789 -0.2888 -0.7970  1.2328
 2290TIP3   OH228284   4.042   5.331  13.379 -0.2710  0.1155  0.4800
 2290TIP3    H128285   3.971   5.285  13.424  0.7988 -0.0610  2.0874
 2290TIP3    H228286   4.086   5.380  13.448 -0.0239  1.8161 -0.8240
 2291TIP3   OH228287   2.740   3.880   3.599  0.1636  0.1430 -0.2574
 2291TIP3    H128288   2.765   3.886   3.506  1.5152  2.1342  0.1636
 2291TIP3    H228289   2.659   3.932   3.605 -0.3205 -0.5732 -0.4143
 2292TIP3   OH228290   1.719   3.971   0.781  0.2911  0.0193  0.0882
 2292TIP3    H128291   1.755   3.884   0.765 -0.1071 -0.0105 -0.6969
 2292TIP3    H228292   1.774   4.029   0.729 -0.5383  0.0154 -0.8238
 2293TIP3   OH228293   4.990   4.314   4.268 -0.0988 -0.4587  0.0930
 2293TIP3    H128294   4.940   4.259   4.208  0.6746  0.2455 -1.2298
 2293TIP3    H228295   5.072   4.333   4.222 -0.3195  1.7610  0.4889
 2294TIP3   OH228296   5.150   1.844   2.086 -0.1985 -0.0693 -0.0807
 2294TIP3    H128297   5.138   1.835   1.991 -0.5100 -0.3275 -0.0202
 2294TIP3    H228298   5.065   1.875   2.118 -0.7609 -1.9627  0.3655
 2295TIP3   OH228299   2.919   5.869   4.161  0.2246  0.1441  0.4430
 2295TIP3    H128300   2.968   5.945   4.129  1.1240 -0.7067 -0.2555
 2295TIP3    H228301   2.946   5.861   4.253  0.6262  0.2795  0.3382
 2296TIP3   OH228302   3.494   6.727   4.041 -0.0310 -0.7538 -0.4889
 2296TIP3    H128303   3.526   6.815   4.061 -2.4293  0.4031 -1.3702
 2296TIP3    H228304   3.547   6.700   3.966  1.4889 -0.5813  0.4623
 2297TIP3   OH228305   5.321   4.511   0.354 -0.0520  0.5764 -0.1172
 2297TIP3    H128306   5.261   4.539   0.422  0.0346  2.1614 -0.6401
 2297TIP3    H228307   5.346   4.422   0.378 -4.1698 -1.0257 -0.9614
 2298TIP3   OH228308   0.140   1.191  12.295  0.6913  0.0145 -0.2898
 2298TIP3    H128309   0.087   1.111  12.294 -0.2584  0.6075  0.9954
 2298TIP3    H228310   0.225   1.163  12.330  0.7010 -0.6111 -0.7869
 2299TIP3   OH228311   5.255   0.718  14.331 -0.3603 -0.0428  0.1685
 2299TIP3    H128312   5.184   0.781  14.328  0.6091  1.0692  0.0701
 2299TIP3    H228313   5.273   0.697  14.239 -0.6930 -0.4982  0.2010
 2300TIP3   OH228314   3.983   1.352   3.973  0.4464 -0.7215  0.1609
 2300TIP3    H128315   3.972   1.304   4.055 -2.2056  2.9539  2.2245
 2300TIP3    H228316   3.894   1.359   3.937  0.8558  1.6590 -0.5473
 2301TIP3   OH228317   5.789   5.391   1.752 -0.2137 -0.7120 -0.0885
 2301TIP3    H128318   5.807   5.298   1.764 -3.4016 -1.4768 -0.3250
 2301TIP3    H228319   5.790   5.405   1.657  0.1005 -0.5479 -0.0614
 2302TIP3   OH228320   0.691   0.831  13.436 -0.1977 -0.2666 -0.4153
 2302TIP3    H128321   0.659   0.745  13.463  0.0357 -0.3810 -0.4991
 2302TIP3    H228322   0.676   0.833  13.341  1.1395 -0.8018 -0.6609
 2303TIP3   OH228323   1.184   5.444  11.606 -0.2206 -0.1054 -0.0673
 2303TIP3    H128324   1.258   5.488  11.650 -1.5087  0.7871  1.3119
 2303TIP3    H228325   1.182   5.483  11.519  2.3746 -1.8785 -1.0376
 2304TIP3   OH228326   5.004   2.892   4.487 -0.3300 -0.0213 -0.2624
 2304TIP3    H128327   4.950   2.838   4.429  0.1651 -1.4252  0.5414
 2304TIP3    H228328   5.090   2.894   4.445 -0.0747 -0.7257  0.2004
 2305TIP3   OH228329   3.496   1.568   2.275 -0.3810  0.0917  0.9023
 2305TIP3    H128330   3.461   1.577   2.363  1.9483  0.6525  1.8471
 2305TIP3    H228331   3.469   1.648   2.230 -0.3859  0.4637  1.5586
 2306TIP3   OH228332   0.726   6.229  17.167 -0.3244  0.5172 -0.3392
 2306TIP3    H128333   0.662   6.273  17.112 -0.0461 -0.3167 -1.3666
 2306TIP3    H228334   0.688   6.142  17.184  0.2685  0.2198 -0.4964
 2307TIP3   OH228335   5.970   4.119  15.056 -0.1533  0.1348 -0.1797
 2307TIP3    H128336   5.909   4.137  15.127 -0.4411  0.6144 -0.5420
 2307TIP3    H228337   5.975   4.024  15.051 -0.8205  0.0966 -0.1037
 2308TIP3   OH228338   4.554   1.333   6.711  0.1656  0.4937  0.4264
 2308TIP3    H128339   4.518   1.307   6.627  1.4499  0.8783 -0.2637
 2308TIP3    H228340   4.492   1.299   6.775  0.6367 -2.3806 -0.5069
 2309TIP3   OH228341   0.111   6.750   2.279 -0.2005  0.5457  0.2270
 2309TIP3    H128342   0.092   6.786   2.192 -1.6552 -1.2072 -0.2314
 2309TIP3    H228343   0.034   6.774   2.332  1.0519  2.3603  1.3440
 2310TIP3   OH228344   6.041   6.582   2.051  0.1337  0.0245  0.0378
 2310TIP3    H128345   6.118   6.531   2.024 -0.6774  0.0868 -2.6188
 2310TIP3    H228346   6.067   6.621   2.134  2.4884 -0.9930 -0.1296
 2311TIP3   OH228347   3.851   4.658  16.738 -0.4078 -0.2132 -0.1007
 2311TIP3    H128348   3.914   4.607  16.686 -0.6256  0.0630 -0.6447
 2311TIP3    H228349   3.879   4.749  16.728 -0.1184 -0.2002  0.7375
 2312TIP3   OH228350   1.971   6.074  13.433 -0.0725 -0.2843 -0.1994
 2312TIP3    H128351   1.998   6.080  13.341 -1.9911  1.8472 -0.7224
 2312TIP3    H228352   1.880   6.104  13.433 -0.1350 -0.2509  2.4196
 2313TIP3   OH228353   5.533   3.267   0.438  0.4385  0.7721 -0.4629
 2313TIP3    H128354   5.501   3.305   0.520 -1.2086 -0.6019 -0.4128
 2313TIP3    H228355   5.628   3.278   0.443  0.4464  0.2868  1.8766
 2314TIP3   OH228356   1.339   0.170  12.490  0.2247 -0.0156  0.2717
 2314TIP3    H128357   1.411   0.136  12.543 -1.4286 -1.2119  1.8739
 2314TIP3    H228358   1.261   0.128  12.526 -1.0701 -0.5420 -2.8324
 2315TIP3   OH228359   0.893   2.170   3.521 -0.1896 -0.8053  0.3910
 2315TIP3    H128360   0.925   2.207   3.603 -1.3064 -2.3017  1.5762
 2315TIP3    H228361   0.805   2.138   3.542 -0.1002 -2.1770 -1.0932
 2316TIP3   OH228362   2.408   5.935  13.043  0.0127  0.0212  0.1882
 2316TIP3    H128363   2.449   5.877  13.107  0.0249  0.6098  0.7159
 2316TIP3    H228364   2.438   6.022  13.067 -1.1171  0.4029  0.2538
 2317TIP3   OH228365   5.856   2.869  14.845  0.5664  0.2325 -0.3457
 2317TIP3    H128366   5.761   2.860  14.842  0.5918  0.0180 -2.3246
 2317TIP3    H228367   5.888   2.790  14.801  1.6243  0.6567 -0.3515
 2318TIP3   OH228368   1.763   1.481   2.985  0.1963  0.3927 -0.8161
 2318TIP3    H128369   1.726   1.490   3.072  1.7143  1.7134 -0.2551
 2318TIP3    H228370   1.837   1.421   2.996 -0.6563 -0.8283 -1.5617
 2319TIP3   OH228371   6.649   4.271  13.224 -0.2062 -0.1546 -0.0930
 2319TIP3    H128372   6.739   4.250  13.249 -0.3618  0.4045  0.9980
 2319TIP3    H228373   6.610   4.308  13.303 -1.7110 -1.3517 -0.2137
 2320TIP3   OH228374   2.489   1.724  15.659 -0.4354 -0.0757  0.1714
 2320TIP3    H128375   2.476   1.649  15.717  0.2498 -1.0924 -0.9414
 2320TIP3    H228376   2.544   1.784  15.709 -0.7173 -0.4654  0.9574
 2321TIP3   OH228377   5.902   5.437   6.016 -0.0740 -0.5643  0.0603
 2321TIP3    H128378   5.957   5.511   5.990 -2.4201  1.3232  0.1310
 2321TIP3    H228379   5.929   5.418   6.106  0.5171  0.2557  0.0754
 2322TIP3   OH228380   5.035   5.067  17.061  0.1064 -0.2147 -1.1727
 2322TIP3    H128381   5.033   5.158  17.033 -0.6250  0.1158 -0.1209
 2322TIP3    H228382   5.125   5.054  17.092 -0.0807  0.5212 -0.2417
 2323TIP3   OH228383   1.488   2.059  13.301 -0.0814 -0.1623  0.1907
 2323TIP3    H128384   1.559   2.120  13.283  0.1943 -0.9225 -1.4329
 2323TIP3    H228385   1.533   1.981  13.336 -0.3230  0.0768  1.0718
 2324TIP3   OH228386   5.324   0.463  16.523  0.5399 -0.4368 -0.3393
 2324TIP3    H128387   5.236   0.502  16.520  0.2061 -1.1131  0.3187
 2324TIP3    H228388   5.381   0.536  16.549  0.7861  0.9199 -4.1413
 2325TIP3   OH228389   1.355   5.198  16.193 -0.0193  0.3082  0.1314
 2325TIP3    H128390   1.284   5.185  16.256  0.7166  0.5098  1.0218
 2325TIP3    H228391   1.417   5.129  16.213  1.1033  1.5024  0.8931
 2326TIP3   OH228392   1.143   4.464  12.533  0.4358  0.3835  0.6059
 2326TIP3    H128393   1.085   4.396  12.498  0.7685  0.2417  0.3162
 2326TIP3    H228394   1.111   4.481  12.621  0.3336 -0.1379  0.6718
 2327TIP3   OH228395   4.962   2.755   2.814  0.2002  0.2239  0.0236
 2327TIP3    H128396   4.896   2.696   2.849  0.6239 -0.6140 -0.5564
 2327TIP3    H228397   5.007   2.790   2.891  0.7537 -1.1559  0.3512
 2328TIP3   OH228398   5.600   6.271  16.227 -0.3091 -0.0971 -0.1986
 2328TIP3    H128399   5.595   6.182  16.260 -0.1829  0.3563  1.1079
 2328TIP3    H228400   5.573   6.265  16.135  0.5721 -1.6046 -0.3872
 2329TIP3   OH228401   1.086   5.682   2.542  0.0537 -0.2250  0.1244
 2329TIP3    H128402   1.067   5.589   2.532 -1.3392 -0.1238  1.4380
 2329TIP3    H228403   1.009   5.726   2.505 -0.6995  0.3071  2.1759
 2330TIP3   OH228404   0.280   1.384   4.881  0.0830 -0.0995  0.1832
 2330TIP3    H128405   0.187   1.389   4.904  0.2447 -2.9244  1.9362
 2330TIP3    H228406   0.297   1.291   4.867  2.3939  0.4783 -1.4158
 2331TIP3   OH228407   2.962   4.164   3.530  0.1191 -0.7262  0.2280
 2331TIP3    H128408   2.954   4.103   3.457 -0.6142 -0.5149  0.1264
 2331TIP3    H228409   2.878   4.160   3.575 -0.2417  0.7786 -0.2394
 2332TIP3   OH228410   6.114   5.554  14.601 -0.4622 -0.5134 -0.0556
 2332TIP3    H128411   6.109   5.624  14.536 -1.6046 -2.0047 -1.6473
 2332TIP3    H228412   6.203   5.521  14.594 -0.5910 -0.6860 -0.8877
 2333TIP3   OH228413   6.503   2.069  15.156  0.9375 -0.0887 -0.0057
 2333TIP3    H128414   6.426   2.100  15.202  1.7548 -0.2652  1.5317
 2333TIP3    H228415   6.540   2.148  15.115  0.2306  0.0713 -0.3464
 2334TIP3   OH228416   6.014   5.735   4.868 -0.1277  0.1386 -0.2361
 2334TIP3    H128417   6.048   5.736   4.957 -0.3478 -1.2815 -0.1189
 2334TIP3    H228418   5.949   5.665   4.867  0.3156 -0.2957 -1.6653
 2335TIP3   OH228419   2.348   0.947  15.056  0.0899  0.0347 -0.1419
 2335TIP3    H128420   2.382   1.006  14.989 -0.6119 -0.9968 -1.4545
 2335TIP3    H228421   2.393   0.973  15.136 -1.4490  3.4978 -0.2543
 2336TIP3   OH228422   4.596   5.047   2.156 -0.6522  0.1485  0.5714
 2336TIP3    H128423   4.516   5.076   2.201 -0.8623 -2.5837  2.1746
 2336TIP3    H228424   4.572   5.047   2.063 -1.5335  2.0669  0.7416
 2337TIP3   OH228425   6.354   6.668   4.527  0.0282 -0.2566  0.8971
 2337TIP3    H128426   6.311   6.584   4.545 -0.4110 -0.3340 -0.4227
 2337TIP3    H228427   6.432   6.666   4.582  0.7698 -2.1567 -0.1176
 2338TIP3   OH228428   4.715   4.317   1.883 -0.4158 -0.6920  0.0679
 2338TIP3    H128429   4.730   4.257   1.956 -1.2165  1.0566  1.7648
 2338TIP3    H228430   4.702   4.402   1.925 -1.7122  0.2371 -2.0880
 2339TIP3   OH228431   3.312   0.070  11.698  0.1304 -0.2196  0.1372
 2339TIP3    H128432   3.394   0.118  11.706 -0.2140  0.3538  0.2698
 2339TIP3    H228433   3.338  -0.018  11.669  0.7368  0.1590 -0.5015
 2340TIP3   OH228434   2.526   2.326   1.132 -0.2414 -0.2323 -0.7377
 2340TIP3    H128435   2.591   2.394   1.149 -0.2949 -0.4719  0.4884
 2340TIP3    H228436   2.462   2.335   1.201 -1.0402 -0.5942 -1.4123
 2341TIP3   OH228437   5.776   4.510  12.181 -0.3033  0.1264  0.8694
 2341TIP3    H128438   5.823   4.555  12.111  2.7533  0.1372  2.7314
 2341TIP3    H228439   5.844   4.461  12.228 -2.1614  0.1079  3.8353
 2342TIP3   OH228440   2.277   5.752   6.253  0.5410 -0.5762 -0.3305
 2342TIP3    H128441   2.287   5.670   6.205  2.6616 -0.4104 -0.2925
 2342TIP3    H228442   2.366   5.773   6.283 -0.4148  0.2429  2.1514
 2343TIP3   OH228443   3.786   2.853   3.043 -0.8151 -0.5125  0.3232
 2343TIP3    H128444   3.792   2.948   3.051  0.8395 -0.6151  0.7425
 2343TIP3    H228445   3.696   2.832   3.068 -1.2431  0.9426  0.0951
 2344TIP3   OH228446   3.675   4.344   1.779  0.4714 -0.8083  0.5377
 2344TIP3    H128447   3.684   4.431   1.742  1.1642 -1.8860 -2.0143
 2344TIP3    H228448   3.582   4.323   1.769 -0.1316  0.3284  3.0138
 2345TIP3   OH228449   1.431   1.515   0.656 -0.2023  0.3047  0.6252
 2345TIP3    H128450   1.510   1.542   0.609 -0.1391 -0.6696  0.1446
 2345TIP3    H228451   1.463   1.473   0.735 -0.2187 -0.3476  0.2927
 2346TIP3   OH228452   2.749   5.709  15.375 -0.2264 -0.1153 -0.6820
 2346TIP3    H128453   2.790   5.680  15.456  1.6469  1.5147 -0.9783
 2346TIP3    H228454   2.791   5.655  15.307 -0.9438 -0.6640 -0.7045
 2347TIP3   OH228455   1.014   4.221  10.881  0.5473  0.6811  0.4054
 2347TIP3    H128456   1.031   4.176  10.798  3.0649 -0.1631  1.2647
 2347TIP3    H228457   0.944   4.170  10.922  2.0424 -1.4569  0.5083
 2348TIP3   OH228458   6.594   3.146  16.627  0.3021  0.1782 -0.0220
 2348TIP3    H128459   6.648   3.166  16.551 -1.3104  0.2289 -1.2112
 2348TIP3    H228460   6.506   3.178  16.603 -0.2894 -0.0138  1.7662
 2349TIP3   OH228461   4.617   3.064   3.824 -0.6487  0.2355  0.9650
 2349TIP3    H128462   4.709   3.092   3.827  0.4494 -2.7173 -1.0701
 2349TIP3    H228463   4.600   3.024   3.909  0.3996 -0.3644  0.9023
 2350TIP3   OH228464   5.027   3.856  15.423 -0.2149  0.0427  0.1287
 2350TIP3    H128465   4.955   3.798  15.395 -0.4813  0.5334 -0.2256
 2350TIP3    H228466   4.998   3.891  15.507  0.0433 -0.5011  0.4481
 2351TIP3   OH228467   6.590   2.431   2.111  0.3427 -0.7219 -0.9730
 2351TIP3    H128468   6.638   2.512   2.126 -0.1092 -0.6233 -0.0205
 2351TIP3    H228469   6.570   2.433   2.017  0.0323  0.4391 -0.8995
 2352TIP3   OH228470   5.682   2.973   5.460  0.1589  0.7433 -0.6688
 2352TIP3    H128471   5.716   3.045   5.513  0.3127  0.6753 -0.6746
 2352TIP3    H228472   5.588   2.975   5.474  0.2683  0.2884  0.1605
 2353TIP3   OH228473   3.695   5.410  16.918 -0.4758  0.1754  0.0327
 2353TIP3    H128474   3.640   5.361  16.857 -1.1296  0.4525  0.3910
 2353TIP3    H228475   3.718   5.348  16.987 -0.2346  0.0281 -0.1773
 2354TIP3   OH228476   1.172   6.624  15.701  0.3163 -0.2745 -0.4883
 2354TIP3    H128477   1.145   6.575  15.778 -1.2690 -0.2079 -0.9640
 2354TIP3    H228478   1.207   6.558  15.641 -0.2850 -0.6021 -0.4838
 2355TIP3   OH228479   0.544   2.237  15.911 -0.6588  0.2469 -0.4759
 2355TIP3    H128480   0.627   2.197  15.883 -1.3728 -0.4060 -1.7266
 2355TIP3    H228481   0.516   2.183  15.985  0.1919  0.6922  0.1907
 2356TIP3   OH228482   1.535   1.667  14.161  0.1405 -0.4986  0.1084
 2356TIP3    H128483   1.613   1.660  14.105 -0.0081 -0.2672 -0.1315
 2356TIP3    H228484   1.463   1.682  14.100  0.1017  0.6973  0.4100
 2357TIP3   OH228485   1.950   2.097  16.994  0.4886 -0.0216  0.3303
 2357TIP3    H128486   2.026   2.095  16.936  0.6551 -0.5064  0.5548
 2357TIP3    H228487   1.893   2.027  16.961  0.4397 -0.0923  0.5625
 2358TIP3   OH228488   5.241   2.684  14.248 -0.7083  0.3854 -0.1043
 2358TIP3    H128489   5.243   2.763  14.303 -0.3033 -0.9546  1.9031
 2358TIP3    H228490   5.272   2.614  14.305  0.1963 -1.0362 -2.2238
 2359TIP3   OH228491   3.763   2.178   0.700  0.4503  0.1186 -0.0397
 2359TIP3    H128492   3.720   2.197   0.783 -0.7525 -0.0880 -0.6047
 2359TIP3    H228493   3.851   2.215   0.711 -0.0393  1.0709  0.9202
 2360TIP3   OH228494   3.700   6.275  14.654  0.0482  0.0622 -0.0889
 2360TIP3    H128495   3.686   6.190  14.612 -0.5434  1.2145 -2.3342
 2360TIP3    H228496   3.734   6.252  14.741 -2.8293 -2.5613  0.5473
 2361TIP3   OH228497   5.557   0.022  15.109  0.2065  0.0421  0.4799
 2361TIP3    H128498   5.491   0.090  15.122  1.4940  1.5293 -0.3246
 2361TIP3    H228499   5.572   0.021  15.014  1.0319 -0.5308  0.6039
 2362TIP3   OH228500   3.046   3.150  14.520  0.6709  0.1762 -0.5104
 2362TIP3    H128501   3.040   3.228  14.466  1.7083  0.0376 -0.8482
 2362TIP3    H228502   2.968   3.099  14.499  0.5408  0.6210 -1.0923
 2363TIP3   OH228503   0.494   6.561   5.488 -0.4106  0.0181  0.2111
 2363TIP3    H128504   0.482   6.654   5.507  0.6501  0.0049  1.0690
 2363TIP3    H228505   0.434   6.517   5.549 -2.2957  0.1446 -1.4477
 2364TIP3   OH228506   1.290   4.959  15.934  0.0822 -0.5841 -0.0133
 2364TIP3    H128507   1.288   5.054  15.922 -2.5819 -0.4023  1.1972
 2364TIP3    H228508   1.298   4.924  15.846 -1.2431  0.7827 -0.7238
 2365TIP3   OH228509   3.282   2.684   3.724 -0.5263 -0.1907  0.2905
 2365TIP3    H128510   3.243   2.713   3.642 -1.4999  0.7938  1.0511
 2365TIP3    H228511   3.358   2.633   3.699 -0.2178  0.9374 -1.1953
 2366TIP3   OH228512   6.781   1.376  16.188  0.5967 -1.3563  0.2755
 2366TIP3    H128513   6.723   1.437  16.143  1.8588  0.4365  0.9559
 2366TIP3    H228514   6.723   1.313  16.230 -0.9076  0.6507  1.3438
 2367TIP3   OH228515   5.752   1.596  14.094 -0.1107 -0.3069  0.2346
 2367TIP3    H128516   5.806   1.651  14.151  1.3474 -0.1981 -1.1886
 2367TIP3    H228517   5.783   1.507  14.109  0.3240 -0.2720 -0.3898
 2368TIP3   OH228518   1.521   2.082   2.001  0.0800  0.0601  0.1259
 2368TIP3    H128519   1.449   2.088   1.937  2.5388 -1.0321 -3.0216
 2368TIP3    H228520   1.558   2.170   2.002  1.7163 -0.4939 -2.2988
 2369TIP3   OH228521   4.212   3.791  11.348  0.4168 -0.6476  0.1652
 2369TIP3    H128522   4.258   3.733  11.287  0.2960 -0.8851  0.2960
 2369TIP3    H228523   4.123   3.796  11.314  0.3189 -0.8733  0.3818
 2370TIP3   OH228524   6.035   4.383  15.934  0.1918 -0.0064  0.3673
 2370TIP3    H128525   6.052   4.338  15.851  0.0632 -2.0180  1.3833
 2370TIP3    H228526   5.946   4.417  15.925  0.5707  0.7681 -0.6991
 2371TIP3   OH228527   5.177   0.948  14.070  0.9427  0.0736 -0.3811
 2371TIP3    H128528   5.213   0.995  13.995  1.7038  0.8287  0.4334
 2371TIP3    H228529   5.237   0.874  14.082 -0.0514 -0.9342 -1.4422
 2372TIP3   OH228530   0.633   3.142   4.172 -0.0178  0.3438 -0.2587
 2372TIP3    H128531   0.627   3.102   4.259  0.1408  1.0255  0.0767
 2372TIP3    H228532   0.571   3.093   4.119 -0.9752  0.6556  0.5371
 2373TIP3   OH228533   1.983   4.458   5.097  0.0489 -0.0829  0.1584
 2373TIP3    H128534   1.902   4.411   5.078 -0.2093  0.1018  0.7739
 2373TIP3    H228535   2.052   4.394   5.079 -0.2295 -0.2705 -0.2872
 2374TIP3   OH228536   5.506   2.967  11.250 -0.1523  0.5384  0.0372
 2374TIP3    H128537   5.588   2.992  11.209 -0.9269  1.8777 -0.7861
 2374TIP3    H228538   5.441   2.976  11.181 -1.2539  1.2803  1.1157
 2375TIP3   OH228539   5.146   3.104  15.121 -0.6420 -0.7221 -0.6366
 2375TIP3    H128540   5.217   3.068  15.174 -1.0121  1.4872  1.5623
 2375TIP3    H228541   5.067   3.088  15.172 -1.4303 -1.0870 -1.9367
 2376TIP3   OH228542   2.049   2.816   1.850  0.7376  0.0359  0.3484
 2376TIP3    H128543   2.024   2.733   1.811 -1.4518 -0.5382  2.7168
 2376TIP3    H228544   1.970   2.870   1.846  1.7930  1.6043 -0.1309
 2377TIP3   OH228545   2.663   2.673   0.718  0.2437 -0.0828 -0.1973
 2377TIP3    H128546   2.588   2.680   0.659 -1.3446 -1.5044  1.5306
 2377TIP3    H228547   2.716   2.601   0.681 -0.3511 -0.4735 -0.2968
 2378TIP3   OH228548   0.474   2.418  14.019  0.1845  0.0616 -0.5412
 2378TIP3    H128549   0.537   2.487  13.998 -1.7253  1.7085 -1.2349
 2378TIP3    H228550   0.416   2.458  14.084 -0.2253 -1.3479 -0.0098
 2379TIP3   OH228551   3.184   2.529   4.254 -0.0870  0.5596  0.1369
 2379TIP3    H128552   3.106   2.485   4.288 -0.1043  0.7048  0.2827
 2379TIP3    H228553   3.177   2.520   4.159  0.4173 -0.6338  0.1940
 2380TIP3   OH228554   3.520   5.052  16.547  0.0278  0.1700  0.4622
 2380TIP3    H128555   3.602   5.087  16.513 -1.1279  0.7397 -2.0038
 2380TIP3    H228556   3.536   4.959  16.558  0.8213  0.1646 -0.5995
 2381TIP3   OH228557   2.089   6.701   0.219  0.1139  0.0822  0.0048
 2381TIP3    H128558   2.112   6.612   0.243  1.1619 -0.1640 -1.7199
 2381TIP3    H228559   2.000   6.694   0.184  0.5544 -0.5129 -1.0652
 2382TIP3   OH228560   5.044   6.516   2.379 -0.2910  0.2474 -0.1425
 2382TIP3    H128561   5.022   6.424   2.397  0.4188  0.0070 -0.4706
 2382TIP3    H228562   4.969   6.550   2.330 -0.7546 -0.0271  0.3651
 2383TIP3   OH228563   5.012   5.402   5.277  0.2852 -0.1253  0.2262
 2383TIP3    H128564   4.931   5.447   5.251 -0.4810 -0.8390  1.2688
 2383TIP3    H228565   5.066   5.471   5.315 -0.9688 -0.0595  2.0176
 2384TIP3   OH228566   5.596   4.384  14.398 -0.4303 -0.3397 -0.0254
 2384TIP3    H128567   5.619   4.408  14.308  2.4212 -0.8659  0.4471
 2384TIP3    H228568   5.507   4.417  14.410 -0.3357  1.1002 -2.5325
 2385TIP3   OH228569   1.798   0.219  16.015  0.2290 -0.1463  0.2240
 2385TIP3    H128570   1.732   0.268  15.966  0.5684  0.1283  0.0347
 2385TIP3    H228571   1.779   0.239  16.107 -0.4298 -0.6886  0.2118
 2386TIP3   OH228572   5.217   4.940   0.930 -0.1392  0.3132 -0.0263
 2386TIP3    H128573   5.210   4.987   1.013  1.6559 -0.8295  0.8358
 2386TIP3    H228574   5.163   4.862   0.941  0.2169  0.0865  0.1453
 2387TIP3   OH228575   0.112   4.841  12.349 -0.3156 -0.0880  0.7686
 2387TIP3    H128576   0.142   4.925  12.314 -1.8308 -0.8106 -2.7239
 2387TIP3    H228577   0.028   4.861  12.390 -2.5321 -0.1679 -3.2251
 2388TIP3   OH228578   1.224   3.772  16.519  0.2598  0.5080 -0.5352
 2388TIP3    H128579   1.248   3.864  16.509  1.2426  0.4837  1.1782
 2388TIP3    H228580   1.274   3.726  16.451  0.0350  1.1863 -1.1667
 2389TIP3   OH228581   4.385   4.323   6.511 -0.2352 -0.0450 -0.5923
 2389TIP3    H128582   4.461   4.380   6.506 -1.2612  1.3440 -0.9973
 2389TIP3    H228583   4.379   4.282   6.425  0.4018 -0.6375 -0.3589
 2390TIP3   OH228584   5.434   3.637  16.128 -0.0173 -0.2743 -0.0593
 2390TIP3    H128585   5.419   3.719  16.081 -1.2751 -0.4677 -0.0379
 2390TIP3    H228586   5.435   3.661  16.220 -1.4388 -0.3913  0.0128
 2391TIP3   OH228587   1.419   1.526  15.556 -0.6747 -0.0255 -0.5537
 2391TIP3    H128588   1.397   1.533  15.649  2.6885 -1.6648  0.4922
 2391TIP3    H228589   1.469   1.606  15.537  0.4893 -0.6754 -0.3185
 2392TIP3   OH228590   2.385   2.380  15.447 -0.2337  0.8545 -0.3697
 2392TIP3    H128591   2.465   2.334  15.421  1.4132  2.8413  0.8052
 2392TIP3    H228592   2.414   2.438  15.518 -2.6833  1.8642 -0.1165
 2393TIP3   OH228593   0.721   3.127  12.148 -0.2470 -0.0296 -0.4220
 2393TIP3    H128594   0.687   3.200  12.096  0.1615 -0.0796 -0.7651
 2393TIP3    H228595   0.648   3.065  12.152  0.2644 -0.8359 -2.4758
 2394TIP3   OH228596   5.344   5.897   4.508  0.2442 -0.5233 -0.1455
 2394TIP3    H128597   5.369   5.956   4.436 -1.1880  0.5075  0.1754
 2394TIP3    H228598   5.322   5.814   4.464  0.1024 -0.1330 -0.8293
 2395TIP3   OH228599   6.741   2.924  12.056 -0.1903 -0.5641  0.5624
 2395TIP3    H128600   6.715   2.869  11.982 -0.4038  0.0256  0.1917
 2395TIP3    H228601   6.836   2.930  12.049 -0.2096 -0.5049  0.3272
 2396TIP3   OH228602   2.592   5.426   0.639 -0.5311  0.0381 -0.1677
 2396TIP3    H128603   2.630   5.500   0.591 -2.1731  1.9998  1.3793
 2396TIP3    H228604   2.500   5.449   0.649 -0.7226 -1.3944  1.8852
 2397TIP3   OH228605   5.613   5.718  15.515  0.1913  0.5844  0.5426
 2397TIP3    H128606   5.707   5.721  15.495  0.0250  0.0771 -0.3649
 2397TIP3    H228607   5.570   5.722  15.429 -0.5532 -1.8314  0.7097
 2398TIP3   OH228608   5.852   4.657   3.156  0.0292  0.5897 -0.1104
 2398TIP3    H128609   5.793   4.732   3.166 -0.1105  0.6678 -1.3402
 2398TIP3    H228610   5.799   4.581   3.179 -0.0783  0.7946  0.3210
 2399TIP3   OH228611   1.750   0.703  13.824 -0.1719  0.3895  0.1636
 2399TIP3    H128612   1.725   0.645  13.896 -2.3304  1.0836  0.0504
 2399TIP3    H228613   1.766   0.644  13.750 -0.6596 -0.1607  0.4897
 2400TIP3   OH228614   3.465   6.674   2.661  0.5836  0.0919  0.3753
 2400TIP3    H128615   3.513   6.736   2.716  1.1406 -0.4730  0.5271
 2400TIP3    H228616   3.394   6.727   2.623  1.0778  0.8368  0.4595
 2401TIP3   OH228617   2.838   0.044  12.535 -0.0160 -0.3012  0.4091
 2401TIP3    H128618   2.865   0.135  12.545  0.8640 -0.4145 -0.7294
 2401TIP3    H228619   2.769   0.032  12.601  1.0936  0.6652  1.8095
 2402TIP3   OH228620   5.188   6.574   3.231  0.1733 -0.6356 -0.4778
 2402TIP3    H128621   5.204   6.514   3.157  0.0851 -1.6026  0.2690
 2402TIP3    H228622   5.271   6.576   3.278  0.3661  0.3399 -0.8479
 2403TIP3   OH228623   3.388   6.304  13.358  0.4634 -0.0061  0.2623
 2403TIP3    H128624   3.393   6.387  13.405  0.8453 -0.3529  0.8427
 2403TIP3    H228625   3.478   6.288  13.330  0.0164  1.0082 -2.0518
 2404TIP3   OH228626   1.277   2.582   0.044  0.2764  0.3331  0.0623
 2404TIP3    H128627   1.220   2.629  -0.017  1.0135  1.5905  0.3135
 2404TIP3    H228628   1.362   2.582   0.001  0.6102  0.4939  0.7181
 2405TIP3   OH228629   0.512   5.239  15.034  0.3909  0.1364 -0.0852
 2405TIP3    H128630   0.566   5.248  14.956 -0.8875  0.3628 -0.9867
 2405TIP3    H228631   0.521   5.322  15.080  2.6077 -0.6388  1.0530
 2406TIP3   OH228632   0.956   3.627   2.961  1.0952 -0.2593 -0.1248
 2406TIP3    H128633   1.021   3.615   2.891  2.6552  0.3274  1.1671
 2406TIP3    H228634   0.983   3.566   3.029 -0.8435 -1.3530 -0.2604
 2407TIP3   OH228635   1.393   0.312   3.616  0.1419  0.2241  0.0675
 2407TIP3    H128636   1.395   0.319   3.521 -0.9519 -0.2547 -0.0112
 2407TIP3    H228637   1.398   0.403   3.647 -0.9353  0.4934 -0.5021
 2408TIP3   OH228638   4.326   0.295  11.978 -0.0370  0.6826 -0.0388
 2408TIP3    H128639   4.336   0.344  12.059 -1.6767  1.3961 -0.2364
 2408TIP3    H228640   4.295   0.359  11.914  1.1861  0.1272 -1.2369
 2409TIP3   OH228641   1.038   1.364  15.830  0.3673  0.1406  0.5984
 2409TIP3    H128642   1.116   1.369  15.885  0.5402 -0.2027  0.3913
 2409TIP3    H228643   0.964   1.363  15.891  0.5413  0.1545  0.8082
 2410TIP3   OH228644   4.289   1.505  14.248  0.1295 -0.1196 -0.5468
 2410TIP3    H128645   4.231   1.549  14.187  0.9803  0.6984 -0.7742
 2410TIP3    H228646   4.289   1.560  14.326 -0.2494 -0.6894 -0.1360
 2411TIP3   OH228647   1.026   1.603  16.841  0.4122 -0.1068 -0.0737
 2411TIP3    H128648   1.106   1.571  16.799 -0.8777 -1.8495 -1.3143
 2411TIP3    H228649   0.955   1.567  16.788 -1.2380  0.2221  1.8175
 2412TIP3   OH228650   0.837   3.241  11.626  0.0508  0.3767  0.3978
 2412TIP3    H128651   0.783   3.180  11.676 -1.0065  1.3439  0.5003
 2412TIP3    H228652   0.774   3.304  11.590  0.6149 -0.7853 -2.9677
 2413TIP3   OH228653   3.657   2.575   4.433 -0.0963  0.0831  0.1800
 2413TIP3    H128654   3.704   2.500   4.396  0.5099  0.8073 -0.5807
 2413TIP3    H228655   3.661   2.562   4.527  0.6795 -0.4539  0.0870
 2414TIP3   OH228656   1.063   1.187   5.433  0.1839  0.1139 -0.0701
 2414TIP3    H128657   1.072   1.137   5.514  2.0366  1.8096  0.8530
 2414TIP3    H228658   1.150   1.223   5.417 -0.4249  0.8069 -2.1969
 2415TIP3   OH228659   5.103   1.542  16.903  0.3644  0.2793 -0.6514
 2415TIP3    H128660   5.103   1.446  16.899  1.0524  0.2048  0.5749
 2415TIP3    H228661   5.188   1.568  16.868  0.3625  0.4171 -0.5528
 2416TIP3   OH228662   1.686   0.201  14.579  0.2083  0.3149  0.1567
 2416TIP3    H128663   1.744   0.129  14.605 -1.5734 -0.7440  1.4542
 2416TIP3    H228664   1.742   0.260  14.530  1.9100 -1.6522 -0.4374
 2417TIP3   OH228665   6.387   3.224  11.530  0.2577  0.0378 -0.0190
 2417TIP3    H128666   6.378   3.216  11.435  0.0701 -0.3937  0.0309
 2417TIP3    H228667   6.482   3.221  11.545  0.2958  0.3394 -0.2120
 2418TIP3   OH228668   0.749   2.918  11.580  0.1510 -0.3747  0.8590
 2418TIP3    H128669   0.734   2.838  11.631  2.0758 -1.1370  0.3105
 2418TIP3    H228670   0.839   2.944  11.602  0.5524  0.0479 -1.0883
 2419TIP3   OH228671   6.770   6.522  13.592 -0.2250 -0.4811 -0.5200
 2419TIP3    H128672   6.858   6.559  13.592 -0.0377 -0.8857  0.8415
 2419TIP3    H228673   6.714   6.594  13.565  0.6432 -0.6234 -3.0185
 2420TIP3   OH228674   0.078   3.443   2.057  0.2413 -1.2365 -0.3419
 2420TIP3    H128675   0.121   3.437   1.971 -1.9775  1.4764 -1.8114
 2420TIP3    H228676   0.003   3.384   2.050  0.5045 -1.6239  0.0645
 2421TIP3   OH228677   1.501   2.302  16.677  0.8179  0.1382 -0.3621
 2421TIP3    H128678   1.480   2.374  16.736  0.0745  0.8706 -1.4797
 2421TIP3    H228679   1.565   2.338  16.616  0.1332 -0.0009 -1.1855
 2422TIP3   OH228680   5.287   4.100   3.417 -0.0053  0.0119 -0.2768
 2422TIP3    H128681   5.281   4.194   3.398  0.9044 -0.1072 -1.2577
 2422TIP3    H228682   5.203   4.078   3.457  0.3619  1.5594  1.4609
 2423TIP3   OH228683   4.783   1.082   2.759 -0.1272 -0.1825 -0.3340
 2423TIP3    H128684   4.703   1.097   2.809  0.1933 -1.5167  0.6412
 2423TIP3    H228685   4.846   1.145   2.792 -0.5014  0.2505 -0.4481
 2424TIP3   OH228686   6.334   0.043  15.633  0.7809  0.0914 -0.0758
 2424TIP3    H128687   6.317   0.130  15.597  0.0373 -0.1750 -0.3923
 2424TIP3    H228688   6.263   0.028  15.696 -0.9606 -1.4847 -2.2325
 2425TIP3   OH228689   3.356   2.548  15.119  0.1772  0.2144 -0.2774
 2425TIP3    H128690   3.371   2.555  15.025 -0.5370  0.9950 -0.3423
 2425TIP3    H228691   3.440   2.572  15.158  0.2763  0.5805 -0.7031
 2426TIP3   OH228692   5.837   2.200   2.696  0.2399 -0.2472  0.0722
 2426TIP3    H128693   5.780   2.125   2.707 -0.0876  0.0203  0.2049
 2426TIP3    H228694   5.920   2.173   2.737 -0.8351  0.5878  3.0413
 2427TIP3   OH228695   2.835   4.209  14.200  0.7226  0.3899  0.2936
 2427TIP3    H128696   2.779   4.195  14.124  1.7062  2.5211 -0.9156
 2427TIP3    H228697   2.826   4.129  14.251 -0.7369 -0.7171 -1.5502
 2428TIP3   OH228698   3.421   2.255   0.099 -0.5416  0.3840  0.0375
 2428TIP3    H128699   3.339   2.210   0.122 -0.0891 -0.0674  0.8159
 2428TIP3    H228700   3.457   2.204   0.027 -0.7788  0.3818 -0.0811
 2429TIP3   OH228701   5.104   1.680  11.215 -0.0728 -0.1716 -0.0100
 2429TIP3    H128702   5.170   1.611  11.224 -0.1941 -0.4866 -1.2733
 2429TIP3    H228703   5.130   1.728  11.136  0.0207  1.2722  0.8586
 2430TIP3   OH228704   1.257   3.468  12.705 -0.4519 -0.1560 -0.1013
 2430TIP3    H128705   1.296   3.466  12.792 -1.1350 -0.8336  0.2016
 2430TIP3    H228706   1.309   3.407  12.653  1.2692  1.7668 -0.7793
 2431TIP3   OH228707   3.299   2.027   0.735  0.0098 -0.9513  0.2392
 2431TIP3    H128708   3.269   2.051   0.822 -0.0951 -2.7766  0.7504
 2431TIP3    H228709   3.388   1.993   0.749  1.3261  1.7569 -0.8602
 2432TIP3   OH228710   1.907   0.538  11.166 -0.2673  0.3857  0.1155
 2432TIP3    H128711   1.894   0.457  11.217  0.2337  0.9799  1.2207
 2432TIP3    H228712   1.821   0.581  11.169  0.0967  1.0559  1.6286
 2433TIP3   OH228713   0.108   0.597   3.948 -0.1536 -0.5038 -0.2386
 2433TIP3    H128714   0.120   0.667   4.013  0.9629 -1.7635  0.9797
 2433TIP3    H228715   0.043   0.632   3.887  0.8048  1.8307 -0.0377
 2434TIP3   OH228716   4.648   0.283   3.903 -0.2526 -0.3657  1.1554
 2434TIP3    H128717   4.726   0.252   3.857 -1.1720  0.8055 -1.3616
 2434TIP3    H228718   4.593   0.205   3.911  0.5129 -0.8798  1.6032
 2435TIP3   OH228719   1.699   2.703  13.285  0.1693 -0.5242 -0.6830
 2435TIP3    H128720   1.719   2.619  13.326  0.5010  0.5612  1.5195
 2435TIP3    H228721   1.658   2.679  13.202  1.0194 -2.8411 -0.5304
 2436TIP3   OH228722   2.488   6.308   3.643  0.1797 -0.2582 -0.3678
 2436TIP3    H128723   2.572   6.337   3.679  1.0954 -0.9237 -1.8515
 2436TIP3    H228724   2.427   6.378   3.666  0.7592 -0.4675  2.0841
 2437TIP3   OH228725   2.121   6.298   0.695 -0.0570 -0.4559  0.0629
 2437TIP3    H128726   2.078   6.293   0.780 -1.8967  0.6051 -0.7342
 2437TIP3    H228727   2.175   6.377   0.700 -0.1735 -0.3888  0.2622
 2438TIP3   OH228728   3.628   5.697   3.655 -0.9839 -0.0519  0.4562
 2438TIP3    H128729   3.635   5.786   3.690 -0.2771 -0.0713  0.3914
 2438TIP3    H228730   3.705   5.688   3.599 -1.7047 -0.2746 -0.5314
 2439TIP3   OH228731   3.951   0.949   4.650  0.0179 -0.0780 -0.1413
 2439TIP3    H128732   3.899   0.870   4.667  0.2165  0.2918  2.7239
 2439TIP3    H228733   3.887   1.012   4.617 -0.8351 -0.4704  0.6920
 2440TIP3   OH228734   0.830   4.381   4.713 -0.2767 -0.2717  0.0091
 2440TIP3    H128735   0.889   4.305   4.718 -0.4431 -0.5138 -1.3836
 2440TIP3    H228736   0.771   4.369   4.787  1.7470  0.2979  1.8463
 2441TIP3   OH228737   5.339   3.779   2.366 -0.5492 -0.9375 -0.1625
 2441TIP3    H128738   5.337   3.803   2.273 -2.6040  0.4933  0.2041
 2441TIP3    H228739   5.431   3.788   2.390 -0.3783  1.5247 -1.3775
 2442TIP3   OH228740   0.750   3.359  16.241 -0.5495  0.0552  0.0639
 2442TIP3    H128741   0.672   3.413  16.257 -1.1974 -0.6970 -0.4851
 2442TIP3    H228742   0.721   3.270  16.256  0.0422 -0.2882 -0.7486
 2443TIP3   OH228743   6.233   2.170   2.065 -0.4015  0.8001 -0.1225
 2443TIP3    H128744   6.308   2.114   2.084  0.1745  1.0963 -1.3940
 2443TIP3    H228745   6.209   2.147   1.975 -0.2620  2.4361 -0.6092
 2444TIP3   OH228746   2.555   0.540   6.285  0.2166  0.4541  0.9444
 2444TIP3    H128747   2.551   0.544   6.189 -0.4714 -1.4875  0.8354
 2444TIP3    H228748   2.598   0.621   6.311  0.6537  0.9081 -1.0249
 2445TIP3   OH228749   1.362   6.646   4.119 -0.2119  0.8846  0.2247
 2445TIP3    H128750   1.409   6.729   4.111  0.2899  0.5539 -0.2587
 2445TIP3    H228751   1.348   6.636   4.213  2.1653  0.1630  0.5583
 2446TIP3   OH228752   5.756   0.511   2.865  0.4328 -0.6035  0.2940
 2446TIP3    H128753   5.684   0.456   2.896 -0.3121  0.6095  0.7715
 2446TIP3    H228754   5.803   0.535   2.944 -1.1870  2.1065  0.5770
 2447TIP3   OH228755   4.057   4.245   1.456 -0.1170  0.1942 -0.1823
 2447TIP3    H128756   4.142   4.219   1.422 -0.0599  0.1726 -0.0250
 2447TIP3    H228757   4.065   4.339   1.472 -0.3029  0.2999 -0.6918
 2448TIP3   OH228758   2.250   4.210   2.518 -0.1132 -0.1183  0.1295
 2448TIP3    H128759   2.173   4.216   2.461  1.1010 -1.7959 -1.8375
 2448TIP3    H228760   2.295   4.293   2.506  0.2559 -0.5316 -1.6618
 2449TIP3   OH228761   2.080   3.470  11.960  0.3815  0.0474 -0.1483
 2449TIP3    H128762   2.144   3.540  11.946  0.0511  0.4536  0.3334
 2449TIP3    H228763   2.124   3.391  11.928  0.5706  0.5426 -1.1494
 2450TIP3   OH228764   5.287   1.038   2.531  0.1088 -0.0196  0.2720
 2450TIP3    H128765   5.227   1.058   2.460 -0.0950  1.5127  0.8515
 2450TIP3    H228766   5.287   1.116   2.586  1.3071 -0.6506  1.2215
 2451TIP3   OH228767   0.529   6.548  11.343 -0.1174 -0.2450  0.6135
 2451TIP3    H128768   0.503   6.639  11.330  0.0530 -0.1874  0.6662
 2451TIP3    H228769   0.448   6.498  11.334  0.1393 -0.3410 -1.9811
 2452TIP3   OH228770   5.330   6.178  17.003 -0.2569  0.1095  0.5080
 2452TIP3    H128771   5.325   6.088  17.037 -1.4903  0.1538  0.4858
 2452TIP3    H228772   5.418   6.184  16.965 -0.1213 -1.0547  0.5895
 2453TIP3   OH228773   5.355   2.468  11.523  0.1581  0.4554  0.2147
 2453TIP3    H128774   5.429   2.492  11.467  0.1853  0.7968  0.3937
 2453TIP3    H228775   5.283   2.522  11.491  0.2531  0.8789  0.7098
 2454TIP3   OH228776   3.190   0.800  17.121  0.2272  0.4626 -1.1126
 2454TIP3    H128777   3.114   0.816  17.066 -0.6817  0.0195 -0.0129
 2454TIP3    H228778   3.155   0.763  17.202  1.2461  3.3055  0.7930
 2455TIP3   OH228779   6.267   2.867   2.158 -0.2760  0.1651 -0.0159
 2455TIP3    H128780   6.245   2.853   2.250  0.7966 -1.3632  0.0401
 2455TIP3    H228781   6.328   2.941   2.158  1.0328 -0.8777  0.7091
 2456TIP3   OH228782   3.046   1.854  11.315 -0.0083 -0.3794 -0.0049
 2456TIP3    H128783   3.059   1.857  11.410 -0.0373 -1.6150  0.0493
 2456TIP3    H228784   3.051   1.761  11.293  1.2745 -0.0141 -1.4016
 2457TIP3   OH228785   2.214   1.671  13.988 -0.3069 -0.2427 -0.2551
 2457TIP3    H128786   2.125   1.638  13.979  0.2562 -1.4117 -1.8284
 2457TIP3    H228787   2.202   1.763  14.013 -1.9260 -0.5471  0.2261
 2458TIP3   OH228788   1.859   6.006  10.935  0.2297 -0.0771 -0.3310
 2458TIP3    H128789   1.868   5.946  11.008  1.0525  0.5640  0.0982
 2458TIP3    H228790   1.770   5.989  10.901  0.2044 -1.0481  0.1928
 2459TIP3   OH228791   4.647   4.215  10.842  0.1879  0.3647  0.2228
 2459TIP3    H128792   4.573   4.155  10.852  1.0973 -1.0657 -1.1750
 2459TIP3    H228793   4.608   4.297  10.812 -0.7681 -0.6655 -1.4670
 2460TIP3   OH228794   1.003   0.526  14.011  0.3438 -0.3753  0.1350
 2460TIP3    H128795   1.007   0.575  14.093  1.1483 -0.7363  0.3276
 2460TIP3    H228796   1.094   0.519  13.983  0.1406 -0.8523 -0.4300
 2461TIP3   OH228797   6.522   6.431  11.660  0.2143  0.4172  0.0062
 2461TIP3    H128798   6.487   6.387  11.737  0.2234 -1.0437 -0.7949
 2461TIP3    H228799   6.541   6.520  11.690  1.1375 -0.3825  1.9585
 2462TIP3   OH228800   6.410   6.496  17.095  0.0397 -0.6099 -0.0862
 2462TIP3    H128801   6.401   6.479  17.002  1.8512  1.4660 -0.7127
 2462TIP3    H228802   6.473   6.431  17.126  0.6172 -0.3350 -0.6637
 2463TIP3   OH228803   4.152   6.358  16.960 -0.3797  0.0768 -0.0365
 2463TIP3    H128804   4.175   6.449  16.981 -0.9618  0.3883 -0.7162
 2463TIP3    H228805   4.062   6.363  16.928  0.4271 -0.3594 -2.6105
 2464TIP3   OH228806   4.893   0.254  11.184  0.4994 -0.4719 -0.1531
 2464TIP3    H128807   4.988   0.268  11.178  0.8112 -1.8917  0.8067
 2464TIP3    H228808   4.870   0.212  11.101  1.1702 -2.1738  0.4584
 2465TIP3   OH228809   4.463   0.718  12.378  0.1207 -0.3494  0.0927
 2465TIP3    H128810   4.508   0.732  12.295  0.0790  1.8238  0.3735
 2465TIP3    H228811   4.522   0.754  12.444 -1.3190  1.2377  0.6020
 2466TIP3   OH228812   6.231   0.058  13.828 -0.2117 -0.5836  0.0986
 2466TIP3    H128813   6.139   0.032  13.825  0.1881 -2.0645 -2.9338
 2466TIP3    H228814   6.273  -0.009  13.882 -0.8229 -0.0580  1.2595
 2467TIP3   OH228815   2.820   0.943  11.102 -0.0230 -0.2184 -0.5479
 2467TIP3    H128816   2.774   1.003  11.042  1.7626  0.5165 -1.2615
 2467TIP3    H228817   2.865   0.881  11.044  0.7658 -0.2450  0.0772
 2468TIP3   OH228818   3.790   2.471  11.934 -0.3241  0.7474  0.5036
 2468TIP3    H128819   3.792   2.509  11.846  0.8319 -0.1587  0.1217
 2468TIP3    H228820   3.700   2.485  11.964 -1.9990 -2.4453 -2.3985
 2469TIP3   OH228821   5.521   1.360   0.591  0.2438  0.9184 -0.1862
 2469TIP3    H128822   5.586   1.398   0.650 -0.1063  2.3296 -0.6495
 2469TIP3    H228823   5.476   1.436   0.554 -0.9757  0.0047 -0.6528
 2470TIP3   OH228824   4.664   3.592   3.927 -0.0388  0.4866 -0.0121
 2470TIP3    H128825   4.688   3.642   4.005 -0.1008  0.0012  0.3257
 2470TIP3    H228826   4.573   3.565   3.944  0.8534 -2.1679  1.1504
 2471TIP3   OH228827   1.859   5.357   3.304 -0.3522  0.0263  0.2028
 2471TIP3    H128828   1.859   5.449   3.277 -0.1327 -0.2755 -0.8494
 2471TIP3    H228829   1.771   5.326   3.285  0.1688 -0.5323 -1.4145
 2472TIP3   OH228830   2.401   6.283   1.979  0.1845 -0.1892  0.7795
 2472TIP3    H128831   2.393   6.359   1.922  1.0683 -0.1321  0.7178
 2472TIP3    H228832   2.420   6.319   2.066  0.8741 -0.3476  0.6958
 2473TIP3   OH228833   0.181   1.161   3.673 -0.1807  0.6195  0.3580
 2473TIP3    H128834   0.161   1.073   3.642  0.5808  0.8464 -0.8528
 2473TIP3    H228835   0.222   1.148   3.758 -0.5629 -0.1662  0.4238
 2474TIP3   OH228836   5.722   1.448  12.681 -0.0511  0.1791  0.1901
 2474TIP3    H128837   5.778   1.430  12.605  1.3650  2.1254  0.6784
 2474TIP3    H228838   5.783   1.459  12.754 -1.2720 -0.0721  1.2891
 2475TIP3   OH228839   2.606   5.437   3.512  0.1837 -0.7366 -0.0770
 2475TIP3    H128840   2.680   5.458   3.454 -0.1581  1.3806  0.1917
 2475TIP3    H228841   2.610   5.503   3.581 -1.0487 -1.5582  0.8197
 2476TIP3   OH228842   1.840   6.365   6.414 -0.5144  0.1585  0.1699
 2476TIP3    H128843   1.794   6.339   6.495 -0.3032  1.2761  0.6554
 2476TIP3    H228844   1.869   6.282   6.376 -2.7371 -0.5920 -0.0500
 2477TIP3   OH228845   4.060   0.426  14.716 -0.3193 -0.2886  0.2509
 2477TIP3    H128846   4.098   0.366  14.652 -0.7536  0.2769 -0.5486
 2477TIP3    H228847   4.134   0.454  14.770  0.2311  0.0541 -0.6679
 2478TIP3   OH228848   5.649   0.243  10.796  0.3091 -0.2036  0.3417
 2478TIP3    H128849   5.587   0.190  10.747  0.0194 -0.1003  0.5934
 2478TIP3    H228850   5.655   0.325  10.747 -2.1362  1.0418  1.9214
 2479TIP3   OH228851   0.648   2.604   5.626 -0.0256 -0.3301  0.2275
 2479TIP3    H128852   0.679   2.588   5.716  0.8702  0.6889  0.1134
 2479TIP3    H228853   0.586   2.676   5.635  0.0355 -0.2548  0.0381
 2480TIP3   OH228854   1.406   1.614   3.474  0.6343  0.4643 -0.4927
 2480TIP3    H128855   1.359   1.691   3.445 -0.8576 -0.2266  0.0052
 2480TIP3    H228856   1.499   1.637   3.463  0.2123  2.0455 -0.9977
 2481TIP3   OH228857   3.678   0.914  15.758  0.0620 -0.1394  0.2848
 2481TIP3    H128858   3.738   0.929  15.685  0.8575 -1.6275  0.6034
 2481TIP3    H228859   3.630   0.835  15.735  1.6530 -1.7587  2.1319
 2482TIP3   OH228860   1.231   1.131  13.882 -0.2094  0.4351  0.6163
 2482TIP3    H128861   1.149   1.102  13.843 -0.2066  0.3015  0.7074
 2482TIP3    H228862   1.293   1.134  13.810  0.9362 -3.8337  1.1617
 2483TIP3   OH228863   3.188   0.210   1.592 -0.0869 -0.1323  0.0306
 2483TIP3    H128864   3.201   0.124   1.632 -0.4305 -0.6765 -0.9871
 2483TIP3    H228865   3.094   0.215   1.576 -0.0717  0.4439  0.1021
 2484TIP3   OH228866   0.613   5.063  15.697 -0.2853 -0.0350 -0.5489
 2484TIP3    H128867   0.556   4.987  15.710  1.3023 -1.2418 -0.2407
 2484TIP3    H228868   0.640   5.057  15.605 -0.6231  0.5039 -0.6851
 2485TIP3   OH228869   1.141   2.854  13.410 -0.3868 -0.3221  0.1995
 2485TIP3    H128870   1.111   2.911  13.481  0.3081  0.3570 -0.0480
 2485TIP3    H228871   1.105   2.895  13.331  0.0372 -0.2813  0.0293
 2486TIP3   OH228872   4.395   6.266  13.266  0.0249  1.0439 -0.2280
 2486TIP3    H128873   4.397   6.268  13.170  2.9180 -1.5619 -0.3572
 2486TIP3    H228874   4.309   6.228  13.287 -0.0151  0.1434 -1.8634
 2487TIP3   OH228875   5.752   6.617   0.775  0.2878 -0.2941  0.1970
 2487TIP3    H128876   5.779   6.536   0.818  0.8730 -0.3688 -0.2926
 2487TIP3    H228877   5.706   6.588   0.696  0.0624 -0.1520  0.2740
 2488TIP3   OH228878   1.031   1.359   1.826 -0.4653 -0.2406 -0.1074
 2488TIP3    H128879   0.939   1.382   1.839 -0.2861  0.6520 -0.3380
 2488TIP3    H228880   1.077   1.401   1.898 -0.0127  0.9745 -1.0745
 2489TIP3   OH228881   3.759   2.173   4.739  0.5778 -0.1682  0.2375
 2489TIP3    H128882   3.666   2.155   4.751  0.6404  0.3442  1.7562
 2489TIP3    H228883   3.783   2.127   4.659 -0.8950 -0.6153  0.0326
 2490TIP3   OH228884   2.860   1.608  13.421 -0.6661 -0.3302  1.1099
 2490TIP3    H128885   2.813   1.690  13.404 -1.8391 -1.2425 -0.1836
 2490TIP3    H228886   2.952   1.631  13.408 -0.9999  0.7340  0.5199
 2491TIP3   OH228887   6.341   1.393  11.931  0.4332  0.0969  0.2037
 2491TIP3    H128888   6.344   1.380  12.026 -0.8167  1.0873  0.4041
 2491TIP3    H228889   6.359   1.486  11.919  1.1905 -0.1385 -0.5903
 2492TIP3   OH228890   2.133   1.253   3.673  0.2012 -0.0218 -0.4659
 2492TIP3    H128891   2.040   1.232   3.658  0.3272 -0.0211 -1.2800
 2492TIP3    H228892   2.145   1.241   3.767 -0.8072  0.6954 -0.2246
 2493TIP3   OH228893   1.285   4.004   0.036  0.1162  0.2066 -0.5128
 2493TIP3    H128894   1.319   4.059   0.106  0.9956 -0.2459 -0.5712
 2493TIP3    H228895   1.359   3.949   0.011 -0.8022 -1.1609 -0.3117
 2494TIP3   OH228896   6.504   1.256  14.246  0.2679 -0.0151 -0.1492
 2494TIP3    H128897   6.580   1.201  14.265  0.1068 -1.1455 -2.3309
 2494TIP3    H228898   6.519   1.285  14.156 -3.3053 -3.0114 -1.9706
 2495TIP3   OH228899   2.865   1.590  16.178 -0.0960  0.3565 -0.0853
 2495TIP3    H128900   2.941   1.550  16.219 -0.2773  0.5049  0.4062
 2495TIP3    H228901   2.862   1.678  16.215 -1.8165 -0.3752  1.6585
 2496TIP3   OH228902   5.115   2.841   1.866  0.1407  0.2158  0.8269
 2496TIP3    H128903   5.071   2.869   1.786 -0.0886 -0.3727  0.7421
 2496TIP3    H228904   5.060   2.875   1.937  0.5403  1.0505  0.7482
 2497TIP3   OH228905   0.552   1.005   3.503 -1.1188  0.6913  0.0187
 2497TIP3    H128906   0.555   1.076   3.439  0.9461  0.3426 -0.3423
 2497TIP3    H228907   0.563   0.925   3.451 -1.4574  0.2589  0.6048
 2498TIP3   OH228908   5.087   4.358   3.920 -0.4799 -0.3565 -0.3193
 2498TIP3    H128909   5.011   4.377   3.974  0.3542  0.6978  0.5377
 2498TIP3    H228910   5.153   4.326   3.981  1.0141  2.3749 -0.3531
 2499TIP3   OH228911   5.553   6.351   1.332  0.6819 -0.1912  0.6512
 2499TIP3    H128912   5.512   6.423   1.285  1.4231 -0.7279 -0.8880
 2499TIP3    H228913   5.484   6.318   1.390  0.2223  1.4782  1.1063
 2500TIP3   OH228914   6.591   3.097   4.890 -0.2538 -0.1239  0.2715
 2500TIP3    H128915   6.661   3.071   4.830 -2.4982 -1.6648 -1.8500
 2500TIP3    H228916   6.543   3.165   4.844 -0.8394  0.1144  1.2143
 2501TIP3   OH228917   1.561   1.759  13.415 -0.4213 -0.1113 -0.0068
 2501TIP3    H128918   1.565   1.663  13.422  1.0750 -0.1915 -1.3997
 2501TIP3    H228919   1.536   1.776  13.325 -0.1743  0.8048  0.0861
 2502TIP3   OH228920   5.726   1.402   5.987  0.2341 -0.3410  0.4505
 2502TIP3    H128921   5.780   1.473   5.951  0.6833 -1.2940 -0.8193
 2502TIP3    H228922   5.760   1.390   6.076  2.1940 -0.9480 -0.3271
 2503TIP3   OH228923   1.981   0.519  16.700  0.2753 -0.2725 -0.0533
 2503TIP3    H128924   1.922   0.570  16.645  0.1867  1.2086  1.3303
 2503TIP3    H228925   1.936   0.436  16.714 -0.9064  0.3426 -0.0811
 2504TIP3   OH228926   0.867   1.613   4.510 -0.0300 -0.5650 -0.3160
 2504TIP3    H128927   0.843   1.640   4.599  0.5401 -2.2978  0.4009
 2504TIP3    H228928   0.959   1.638   4.501 -0.2708  0.2283 -0.6951
 2505TIP3   OH228929   6.783   1.960  14.968  0.3694 -0.1628 -0.5292
 2505TIP3    H128930   6.716   2.005  15.019 -0.2237 -0.8733 -0.6612
 2505TIP3    H228931   6.794   2.014  14.890 -0.5901 -0.4108 -0.8511
 2506TIP3   OH228932   1.132   2.350  17.152 -0.0559  0.0972 -0.1005
 2506TIP3    H128933   1.054   2.405  17.139  1.1169  1.2317 -3.4887
 2506TIP3    H228934   1.198   2.409  17.186 -0.4448 -0.7731  2.3595
 2507TIP3   OH228935   4.694   1.264   3.050  0.4723 -0.2366  0.1021
 2507TIP3    H128936   4.776   1.241   3.006  0.0922  1.1970 -1.4276
 2507TIP3    H228937   4.629   1.204   3.013  0.2762  0.5636 -0.8997
 2508TIP3   OH228938   2.033   4.846  16.302 -0.1314  0.0640 -0.5792
 2508TIP3    H128939   2.065   4.758  16.320  0.2055  0.4082  0.5701
 2508TIP3    H228940   1.937   4.838  16.307 -0.0756 -0.0754  0.3293
 2509TIP3   OH228941   0.832   3.964   1.038  0.1381 -0.5973  0.6445
 2509TIP3    H128942   0.819   4.054   1.008 -0.3535 -0.2856  1.7174
 2509TIP3    H228943   0.818   3.969   1.133 -1.7135 -2.1198  0.5159
 2510TIP3   OH228944   0.875   5.868   3.066  0.1295  0.7124 -0.0396
 2510TIP3    H128945   0.829   5.827   3.139  1.8514 -1.1033  0.0976
 2510TIP3    H228946   0.935   5.930   3.107 -0.6769  1.5590 -0.1019
 2511TIP3   OH228947   1.515   2.040   0.323  0.1873  0.1411  0.6757
 2511TIP3    H128948   1.511   2.028   0.228 -2.7005  0.8051  0.5981
 2511TIP3    H228949   1.582   1.979   0.353  1.5865  0.3317 -1.8324
 2512TIP3   OH228950   6.575   2.408   3.309  0.5469 -0.2022 -0.2215
 2512TIP3    H128951   6.643   2.401   3.241 -0.2547 -1.0941 -0.9720
 2512TIP3    H228952   6.517   2.476   3.277 -1.3485 -2.4442 -1.9075
 2513TIP3   OH228953   5.073   3.971  14.585 -0.1458 -0.1807  0.8420
 2513TIP3    H128954   5.060   4.038  14.518  1.5824 -1.6618 -1.0549
 2513TIP3    H228955   5.158   3.991  14.623  0.4135 -1.2979  0.2196
 2514TIP3   OH228956   3.100   1.599  14.106 -0.9280  0.2046  0.4608
 2514TIP3    H128957   3.173   1.581  14.165 -1.1082  1.9195  1.2652
 2514TIP3    H228958   3.071   1.512  14.076  1.1219 -0.5369  0.4707
 2515TIP3   OH228959   0.633   4.852  13.403 -0.3459  0.7571 -0.1680
 2515TIP3    H128960   0.709   4.822  13.453 -0.3971 -0.2758 -0.6889
 2515TIP3    H228961   0.588   4.772  13.377 -2.2430  1.3476  1.0520
 2516TIP3   OH228962   1.207   0.913   0.370  0.9417  0.0662 -0.0198
 2516TIP3    H128963   1.149   0.986   0.348  0.9158  0.2377  0.5928
 2516TIP3    H228964   1.287   0.930   0.321  0.3462 -0.3672 -1.1660
 2517TIP3   OH228965   5.396   1.236  14.733 -0.2030  0.1010  0.3652
 2517TIP3    H128966   5.437   1.191  14.806 -0.3802  1.2850  1.2335
 2517TIP3    H228967   5.448   1.316  14.722  0.1059 -0.2630 -1.1211
 2518TIP3   OH228968   1.609   0.792   1.720 -0.0221 -0.4696  0.0107
 2518TIP3    H128969   1.620   0.879   1.680  1.4270 -0.4587  0.3868
 2518TIP3    H228970   1.544   0.749   1.664  1.4774 -0.2322 -2.0503
 2519TIP3   OH228971   4.335   6.742  15.246  0.0179 -0.0576 -0.1931
 2519TIP3    H128972   4.399   6.677  15.276 -1.6480 -1.0827  1.2782
 2519TIP3    H228973   4.261   6.691  15.215 -0.1857  1.1182 -1.7612
 2520TIP3   OH228974   4.288   5.454   1.908 -0.5144 -0.5519 -0.8225
 2520TIP3    H128975   4.302   5.378   1.965 -2.1363 -0.4426 -0.2160
 2520TIP3    H228976   4.248   5.417   1.829 -2.5959 -0.2417  0.0231
 2521TIP3   OH228977   3.131   3.433   2.963  0.5959 -0.8114  0.7108
 2521TIP3    H128978   3.156   3.524   2.979 -1.2736 -0.2033  0.3461
 2521TIP3    H228979   3.135   3.392   3.050 -2.1047  0.5761  1.5917
 2522TIP3   OH228980   3.372   0.626   3.719  0.0675 -0.3151  0.0738
 2522TIP3    H128981   3.423   0.545   3.716  0.5699  0.0177 -1.6982
 2522TIP3    H228982   3.437   0.695   3.727 -0.3347 -0.0503  1.1878
 2523TIP3   OH228983   2.337   3.387  12.996 -0.0830  0.4603 -0.8591
 2523TIP3    H128984   2.308   3.446  12.927 -0.5982  0.4773 -0.6309
 2523TIP3    H228985   2.356   3.444  13.070  0.9125  0.4870 -1.1251
 2524TIP3   OH228986   2.211   3.679  11.809 -0.1297  0.7756  0.1996
 2524TIP3    H128987   2.127   3.686  11.764 -0.2960 -0.0872  0.3656
 2524TIP3    H228988   2.276   3.688  11.739 -0.3843 -0.4624 -0.2128
 2525TIP3   OH228989   2.612   3.129  15.709  0.4051 -0.2585 -0.5064
 2525TIP3    H128990   2.702   3.101  15.721  0.9898  2.3494  2.5030
 2525TIP3    H228991   2.561   3.071  15.766  0.2735 -1.0614 -1.4144
 2526TIP3   OH228992   0.354   0.140   2.789  0.2941  0.2858 -0.4581
 2526TIP3    H128993   0.354   0.235   2.775  1.3985  0.0492 -2.4826
 2526TIP3    H228994   0.430   0.124   2.844  0.2641  0.5549 -0.3359
 2527TIP3   OH228995   3.257   3.989   4.080 -0.2327 -0.6625 -0.0463
 2527TIP3    H128996   3.242   4.084   4.081 -1.2688 -0.8095 -0.3105
 2527TIP3    H228997   3.314   3.973   4.155 -0.6097  0.0816  0.4148
 2528TIP3   OH228998   3.758   5.076   5.496 -0.9940 -0.7018 -0.2988
 2528TIP3    H128999   3.789   5.056   5.585  0.3776 -0.7043 -0.7701
 2528TIP3    H229000   3.672   5.116   5.510 -0.0231  1.0066  1.1634
 2529TIP3   OH229001   5.578   2.894   2.044 -0.0520  0.5791 -0.2952
 2529TIP3    H129002   5.526   2.866   1.968  0.4334  0.9000 -0.7519
 2529TIP3    H229003   5.667   2.866   2.023  0.0755  0.6228  0.1879
 2530TIP3   OH229004   2.656   3.441   1.696 -0.4926 -0.1177 -0.1923
 2530TIP3    H129005   2.628   3.369   1.752  0.5885 -1.1100 -0.8665
 2530TIP3    H229006   2.716   3.493   1.750  1.7257 -1.9040 -0.7781
 2531TIP3   OH229007   0.213   1.535   1.354 -0.2913  0.6174  1.1130
 2531TIP3    H129008   0.142   1.478   1.321  1.9771 -2.1373  0.5713
 2531TIP3    H229009   0.193   1.546   1.447 -0.6148 -1.5315  1.3511
 2532TIP3   OH229010   0.277   3.161   0.396 -0.0752  0.1686  0.6594
 2532TIP3    H129011   0.187   3.132   0.382  0.5839 -1.5053 -0.2730
 2532TIP3    H229012   0.331   3.091   0.362  1.6136  1.6466  0.1497
 2533TIP3   OH229013   2.853   2.650  13.650 -0.4108 -0.4613  0.0352
 2533TIP3    H129014   2.844   2.746  13.656 -1.1430 -0.5926  1.8953
 2533TIP3    H229015   2.874   2.633  13.559  2.7861  1.7101  0.2194
 2534TIP3   OH229016   4.451   0.298   0.962  0.0007 -0.1426 -0.3014
 2534TIP3    H129017   4.431   0.219   1.011  0.5170 -0.4895 -0.6483
 2534TIP3    H229018   4.402   0.367   1.007 -1.0162 -0.7699 -0.4229
 2535TIP3   OH229019   6.467   0.701  10.888  0.4221  0.4340  0.3705
 2535TIP3    H129020   6.543   0.740  10.931  1.6872  2.0356 -2.9514
 2535TIP3    H229021   6.402   0.771  10.887  0.3194  0.3375 -0.0299
 2536TIP3   OH229022   5.015   3.443   2.642 -0.0388 -0.7969  0.0684
 2536TIP3    H129023   5.021   3.389   2.563 -0.2505 -0.4513 -0.1863
 2536TIP3    H229024   5.031   3.532   2.612 -0.0046 -0.6760  0.4373
 2537TIP3   OH229025   3.110   1.691  15.287  0.3128  0.1044  0.1439
 2537TIP3    H129026   3.045   1.680  15.357  1.2728  1.6954  1.3510
 2537TIP3    H229027   3.088   1.775  15.247 -0.9039 -1.2786 -2.2896
 2538TIP3   OH229028   1.894   5.822   2.185  0.1167  0.5271  0.3916
 2538TIP3    H129029   1.863   5.890   2.125 -1.3151  0.4479  1.0116
 2538TIP3    H229030   1.856   5.845   2.269  2.2127  0.7205  1.3597
 2539TIP3   OH229031   2.807   0.608   0.455 -0.1247  0.2250 -0.8904
 2539TIP3    H129032   2.760   0.544   0.402 -0.7503 -1.7347  1.7677
 2539TIP3    H229033   2.884   0.560   0.486 -0.7958  0.5203  1.4655
 2540TIP3   OH229034   3.929   3.004   5.360  0.5201  0.3599  0.3354
 2540TIP3    H129035   3.866   3.074   5.376  1.8189  1.3323  1.3649
 2540TIP3    H229036   3.970   3.028   5.276 -2.5177 -1.9110 -2.0578
 2541TIP3   OH229037   6.099   2.797  15.238 -0.4333 -0.6522 -0.7896
 2541TIP3    H129038   6.191   2.775  15.225 -0.5427 -2.1436  0.6190
 2541TIP3    H229039   6.098   2.847  15.320 -0.8616 -0.5061 -0.8840
 2542TIP3   OH229040   2.880   3.076  15.685 -0.5082  0.1674 -0.0238
 2542TIP3    H129041   2.952   3.094  15.745  0.8655  0.1085 -1.5915
 2542TIP3    H229042   2.922   3.041  15.607 -2.2725 -0.1208 -0.8922
 2543TIP3   OH229043   5.669   2.895   1.009 -0.5266  0.4299  0.1225
 2543TIP3    H129044   5.593   2.924   0.958 -0.2314  0.5329 -0.2704
 2543TIP3    H229045   5.646   2.808   1.040 -0.9380  0.5952  0.2897
 2544TIP3   OH229046   2.952   3.658   4.063  0.1107  0.0419  0.0705
 2544TIP3    H129047   3.046   3.658   4.045  0.1391 -1.9131  0.0321
 2544TIP3    H229048   2.927   3.750   4.060  1.9444  0.5620 -0.3272
 2545TIP3   OH229049   1.095   5.668   3.750 -0.5086 -0.1454  0.2017
 2545TIP3    H129050   1.025   5.604   3.734 -0.8049 -0.2654  1.7907
 2545TIP3    H229051   1.099   5.720   3.670 -2.5114 -0.0720  0.0844
 2546TIP3   OH229052   5.303   1.810   0.963 -0.4952  0.0048 -0.2751
 2546TIP3    H129053   5.232   1.773   1.016 -0.5373  1.7645  0.9817
 2546TIP3    H229054   5.268   1.893   0.931 -0.4934 -1.0069 -3.2289
 2547TIP3   OH229055   3.110   5.940  11.383  0.3924  0.6699 -0.5067
 2547TIP3    H129056   3.069   5.970  11.302  1.5597 -0.2244 -1.4862
 2547TIP3    H229057   3.174   5.875  11.354 -0.6467 -1.3010  1.3268
 2548TIP3   OH229058   5.027   0.657  17.136 -0.1890 -0.0902  0.1039
 2548TIP3    H129059   5.022   0.677  17.230  1.1860 -1.2986  0.4622
 2548TIP3    H229060   5.120   0.641  17.120 -0.5231 -0.7121 -1.3036
 2549TIP3   OH229061   6.363   3.809  16.446 -0.8914  0.3304 -0.3643
 2549TIP3    H129062   6.445   3.813  16.495 -1.8673  1.1094  1.3202
 2549TIP3    H229063   6.365   3.885  16.388 -1.5301  1.9628  1.6356
 2550TIP3   OH229064   6.324   4.262  15.781 -0.0510  0.0763 -0.3422
 2550TIP3    H129065   6.395   4.243  15.720  0.0697 -2.7215  0.5033
 2550TIP3    H229066   6.366   4.271  15.866 -0.4955  0.8215 -0.1923
 2551TIP3   OH229067   5.173   5.125   0.293 -0.5504  0.0914 -0.4818
 2551TIP3    H129068   5.133   5.098   0.375 -0.5569 -1.4880 -0.9726
 2551TIP3    H229069   5.252   5.172   0.319  0.0398 -1.3468  0.4455
 2552TIP3   OH229070   1.106   0.569  17.141  0.2874 -0.0596 -0.3200
 2552TIP3    H129071   1.057   0.582  17.060  1.9275 -0.2069 -1.3803
 2552TIP3    H229072   1.115   0.657  17.178 -0.8994 -0.0521 -0.0018
 2553TIP3   OH229073   1.596   0.746   2.731  0.5608  0.0150  0.5530
 2553TIP3    H129074   1.636   0.739   2.818  2.4872 -1.7007 -0.4004
 2553TIP3    H229075   1.552   0.663   2.718 -0.9866  0.8183  0.4149
 2554TIP3   OH229076   3.954   6.694   2.255 -0.2734  0.0610 -0.0739
 2554TIP3    H129077   3.987   6.784   2.248 -2.1652  0.6884 -1.5874
 2554TIP3    H229078   3.927   6.686   2.346 -1.7664  1.6920 -0.3261
 2555TIP3   OH229079   4.195   1.476   2.987 -0.1451 -0.0705 -0.6202
 2555TIP3    H129080   4.286   1.459   2.963 -0.1713  1.3576 -1.8552
 2555TIP3    H229081   4.152   1.498   2.904 -1.4557 -0.0288  0.0460
 2556TIP3   OH229082   4.144   1.827   3.077 -0.3061  0.1352 -0.5360
 2556TIP3    H129083   4.156   1.853   2.986  1.5688 -2.0796 -1.0112
 2556TIP3    H229084   4.138   1.910   3.125 -1.3314  1.3463 -2.6242
 2557TIP3   OH229085   0.518   2.358   4.534 -0.8336 -0.2635  0.4872
 2557TIP3    H129086   0.474   2.283   4.495 -0.5840 -0.4730  0.6135
 2557TIP3    H229087   0.446   2.415   4.564 -1.0215 -0.3574  0.2199
 2558TIP3   OH229088   0.727   6.454   0.340  0.1587 -0.0259  0.2015
 2558TIP3    H129089   0.706   6.365   0.312 -1.0328  0.3595 -0.2004
 2558TIP3    H229090   0.681   6.465   0.423  0.4896  0.1392  0.3635
 2559TIP3   OH229091   6.108   2.286   1.063  0.0362 -0.0033 -0.3739
 2559TIP3    H129092   6.075   2.197   1.059  0.5680 -0.1918 -0.7919
 2559TIP3    H229093   6.202   2.276   1.081  0.0902  0.4720 -0.3699
 2560TIP3   OH229094   0.052   3.129  13.645 -0.0812  0.0888 -0.7137
 2560TIP3    H129095   0.026   3.065  13.579  0.2312 -1.0155  0.2017
 2560TIP3    H229096   0.141   3.154  13.621 -0.5022  0.8460 -1.5546
 2561TIP3   OH229097   1.586   1.580   4.088  0.3160  0.3247  0.3097
 2561TIP3    H129098   1.581   1.590   4.183 -0.5306  2.3032  0.0995
 2561TIP3    H229099   1.532   1.651   4.053 -1.2330 -1.6774 -1.6517
 2562TIP3   OH229100   5.993   4.863  14.892 -0.0096 -0.4703  0.4436
 2562TIP3    H129101   6.052   4.935  14.913 -1.9117  1.4864 -0.6003
 2562TIP3    H229102   5.992   4.859  14.796 -2.2582  0.1952  0.3978
 2563TIP3   OH229103   5.460   6.635  12.564  0.0183  0.0381  0.0623
 2563TIP3    H129104   5.375   6.644  12.607 -0.3730  0.0803 -0.7033
 2563TIP3    H229105   5.504   6.565  12.612 -0.7105 -0.4419  0.0539
 2564TIP3   OH229106   2.024   2.456   2.810 -0.0719 -0.2513 -0.8077
 2564TIP3    H129107   2.064   2.477   2.894  0.6994 -0.9959 -0.9810
 2564TIP3    H229108   1.935   2.493   2.817  0.0354 -0.1403  0.2539
 2565TIP3   OH229109   2.315   5.591   0.603 -0.0539  0.5700  0.2925
 2565TIP3    H129110   2.235   5.602   0.656 -1.8013 -0.3726 -1.9754
 2565TIP3    H229111   2.341   5.680   0.581 -0.6978  0.8929  0.7890
 2566TIP3   OH229112   0.576   5.401   3.105  0.4867 -0.2690 -0.1614
 2566TIP3    H129113   0.602   5.449   3.026  1.4861  1.8436  1.3299
 2566TIP3    H229114   0.498   5.447   3.136  1.0285 -0.0442  0.9051
 2567TIP3   OH229115   0.933   5.890  13.522 -0.0062 -0.2074 -0.5796
 2567TIP3    H129116   0.838   5.888  13.514 -0.3625  1.0889  2.1289
 2567TIP3    H229117   0.954   5.816  13.578  0.2807  0.7044  0.5682
 2568TIP3   OH229118   0.332   4.875  11.432  0.0767  0.0320 -0.5066
 2568TIP3    H129119   0.343   4.785  11.400  0.4726  0.0244 -0.3477
 2568TIP3    H229120   0.270   4.867  11.504  1.1198 -0.2989  0.3702
 2569TIP3   OH229121   0.442   1.083   0.916 -0.1633 -0.4874 -0.1692
 2569TIP3    H129122   0.427   1.126   0.832 -2.6234 -0.3280  0.2758
 2569TIP3    H229123   0.537   1.067   0.918  0.3698  1.8660 -1.7956
 2570TIP3   OH229124   4.199   0.880  17.059 -0.8387 -0.3780  0.2311
 2570TIP3    H129125   4.261   0.855  16.991  0.6936  1.9021  0.7075
 2570TIP3    H229126   4.250   0.883  17.139 -1.8904  0.1377  0.9101
 2571TIP3   OH229127   5.222   1.141  13.065 -0.2021 -0.4229 -0.4985
 2571TIP3    H129128   5.188   1.183  13.144  1.3234  0.2403 -0.1536
 2571TIP3    H229129   5.171   1.060  13.057  1.7435 -2.3304  3.1768
 2572TIP3   OH229130   0.376   5.260   0.058 -0.3308  0.5262 -0.6859
 2572TIP3    H129131   0.290   5.267   0.098 -0.6824 -0.0805 -1.3268
 2572TIP3    H229132   0.403   5.351   0.043 -0.2885  0.7570  0.6847
 2573TIP3   OH229133   0.490   2.684  12.230  0.1454 -0.8512 -0.0605
 2573TIP3    H129134   0.509   2.775  12.255 -2.8911  0.2958 -1.3510
 2573TIP3    H229135   0.450   2.645  12.307 -0.8088 -0.2616 -0.2422
 2574TIP3   OH229136   4.874   1.637   4.234  0.3122 -0.4868 -0.1601
 2574TIP3    H129137   4.876   1.667   4.325  0.7247 -2.4079  0.5058
 2574TIP3    H229138   4.966   1.628   4.210  0.2041  0.0626 -0.7957
 2575TIP3   OH229139   6.229   5.050   3.392 -0.2149 -0.1290 -0.5649
 2575TIP3    H129140   6.212   5.078   3.482  1.6749 -0.3651 -0.1010
 2575TIP3    H229141   6.234   5.132   3.342 -0.9637  0.0154 -0.4199
 2576TIP3   OH229142   0.579   2.964  16.963  0.3521  0.3748  0.5491
 2576TIP3    H129143   0.603   3.056  16.976 -1.8641  1.3882 -1.7604
 2576TIP3    H229144   0.498   2.953  17.011 -0.3664  0.1905 -0.6650
 2577TIP3   OH229145   4.647   1.997  12.542  0.1183 -0.1133  0.0042
 2577TIP3    H129146   4.557   2.006  12.573  0.4130 -1.0810  1.1893
 2577TIP3    H229147   4.638   1.980  12.448 -0.9875 -1.0852  0.2657
 2578TIP3   OH229148   6.599   4.557   4.669 -0.3137  0.1315  0.2706
 2578TIP3    H129149   6.593   4.509   4.586 -0.5245 -1.1793  1.0013
 2578TIP3    H229150   6.601   4.649   4.644  0.1917 -0.2535 -1.2123
 2579TIP3   OH229151   2.389   2.247  13.657  0.1322 -0.2842 -0.1507
 2579TIP3    H129152   2.448   2.275  13.728 -0.6572 -0.6137  0.6520
 2579TIP3    H229153   2.427   2.165  13.626  0.2144 -0.3894  0.2199
 2580TIP3   OH229154   1.591   5.128   0.175  0.1901 -0.1259 -0.0879
 2580TIP3    H129155   1.658   5.156   0.237  0.0672  1.3283 -0.5747
 2580TIP3    H229156   1.511   5.123   0.226  0.1867  0.5893 -0.0087
 2581TIP3   OH229157   2.035   2.920  15.699 -0.2185 -0.5956  0.4364
 2581TIP3    H129158   2.010   3.004  15.661 -1.2344 -1.3806 -0.7113
 2581TIP3    H229159   1.966   2.900  15.762 -0.1910 -0.7508  0.4190
 2582TIP3   OH229160   1.621   5.883  14.398 -0.6754 -0.3276  0.0956
 2582TIP3    H129161   1.702   5.878  14.348 -0.2078  0.3787  0.7602
 2582TIP3    H229162   1.649   5.897  14.489 -1.4738 -2.3559  0.7223
 2583TIP3   OH229163   2.176   2.319   6.671 -0.5602  0.0837  0.6681
 2583TIP3    H129164   2.259   2.275   6.654 -0.7210 -0.0642  0.2536
 2583TIP3    H229165   2.200   2.408   6.695 -0.3124  0.2339 -0.1137
 2584TIP3   OH229166   1.864   6.320   4.605 -0.0668  0.2075  0.1777
 2584TIP3    H129167   1.948   6.302   4.647  0.2823 -1.5182 -1.1491
 2584TIP3    H229168   1.888   6.354   4.518 -0.7717  2.2780  0.7331
 2585TIP3   OH229169   6.767   2.505  13.226 -0.2423  0.3727  0.0901
 2585TIP3    H129170   6.750   2.576  13.164  1.6987  1.9817  1.2837
 2585TIP3    H229171   6.845   2.461  13.191  0.8302  1.2531  1.2515
 2586TIP3   OH229172   2.907   1.271  13.765  0.0549 -0.2244 -0.4488
 2586TIP3    H129173   2.940   1.316  13.686  0.8497  2.8547  1.4507
 2586TIP3    H229174   2.817   1.303  13.775  0.5780  0.9832  0.8391
 2587TIP3   OH229175   4.571   4.584  16.463 -0.5867  0.2982 -0.3955
 2587TIP3    H129176   4.539   4.551  16.547  1.3678  0.7010  0.5448
 2587TIP3    H229177   4.620   4.663  16.484  0.4987  0.0490 -1.8306
 2588TIP3   OH229178   5.139   2.424  13.870 -0.1906  0.4235 -0.1084
 2588TIP3    H129179   5.196   2.351  13.848  0.9259  0.7706  1.5014
 2588TIP3    H229180   5.055   2.403  13.827  0.7177 -0.7363 -1.4092
 2589TIP3   OH229181   3.588   6.138   1.507  0.0588  0.0017 -0.1056
 2589TIP3    H129182   3.590   6.168   1.416 -0.7887 -0.4602 -0.2881
 2589TIP3    H229183   3.654   6.069   1.512 -2.0826 -2.2665 -1.2329
 2590TIP3   OH229184   2.622   1.718  12.833 -0.1748  0.2421  0.1742
 2590TIP3    H129185   2.631   1.625  12.813 -1.0223  0.5429 -1.9088
 2590TIP3    H229186   2.610   1.722  12.928  0.0704 -1.7418  0.3185
 2591TIP3   OH229187   4.120   5.090   4.746  0.3593  0.0522 -0.1067
 2591TIP3    H129188   4.121   5.021   4.679  1.2282 -1.1260  1.0809
 2591TIP3    H229189   4.210   5.120   4.751 -0.1036  1.6924 -0.9784
 2592TIP3   OH229190   4.822   3.310   6.143 -0.2840 -0.0214 -0.2687
 2592TIP3    H129191   4.780   3.301   6.057 -0.0010 -0.1648 -0.3932
 2592TIP3    H229192   4.780   3.387   6.182  0.1890  0.5771 -0.8944
 2593TIP3   OH229193   3.413   2.187  15.530 -0.0772 -0.2982  0.5495
 2593TIP3    H129194   3.351   2.121  15.565 -0.2722  1.4017  3.8414
 2593TIP3    H229195   3.494   2.138  15.518 -0.3471 -1.3539  2.4093
 2594TIP3   OH229196   0.809   1.949  14.959  0.0841  0.4756  1.0790
 2594TIP3    H129197   0.736   2.000  14.923 -0.2809 -0.5445  0.3101
 2594TIP3    H229198   0.793   1.947  15.053 -1.5528 -0.7023  0.8121
 2595TIP3   OH229199   5.959   4.187   2.659  0.2639 -0.6957 -0.2545
 2595TIP3    H129200   6.028   4.214   2.721  1.7400  0.4876 -2.2921
 2595TIP3    H229201   5.931   4.269   2.618 -0.4051 -1.4830 -1.4115
 2596TIP3   OH229202   1.627   0.590  16.853  0.7629  0.0270  0.0580
 2596TIP3    H129203   1.648   0.505  16.892 -0.2127  0.7839  2.4141
 2596TIP3    H229204   1.704   0.644  16.870  0.8090  0.0257 -0.1451
 2597TIP3   OH229205   0.679   3.132   3.418  0.1644 -0.0212  0.2221
 2597TIP3    H129206   0.585   3.119   3.407  0.1994  0.4996 -0.7637
 2597TIP3    H229207   0.693   3.130   3.513 -0.9837  0.8763  0.4235
 2598TIP3   OH229208   3.113   4.492  11.877 -0.2000 -0.1198 -1.0370
 2598TIP3    H129209   3.077   4.415  11.922  0.7680  1.0179  1.9096
 2598TIP3    H229210   3.194   4.460  11.838 -0.1424 -0.7845 -0.4096
 2599TIP3   OH229211   2.326   2.559   1.078 -0.2855 -0.0826 -0.0988
 2599TIP3    H129212   2.262   2.488   1.070 -1.0720  0.3575  1.7699
 2599TIP3    H229213   2.330   2.598   0.990 -1.9288 -0.6633 -0.4651
 2600TIP3   OH229214   6.074   2.738  12.733  0.4190 -0.4336 -0.3070
 2600TIP3    H129215   6.060   2.696  12.819 -0.2762  0.0060 -0.1997
 2600TIP3    H229216   6.140   2.684  12.691  1.4595 -0.1332  0.8761
 2601TIP3   OH229217   1.239   4.763   2.878  0.1019  0.2764 -0.0024
 2601TIP3    H129218   1.221   4.827   2.946  1.5907 -0.0736  0.7626
 2601TIP3    H229219   1.311   4.802   2.828 -0.3991  0.1377 -0.8527
 2602TIP3   OH229220   6.324   1.812  16.967  0.3705 -0.8785 -0.1756
 2602TIP3    H129221   6.286   1.781  17.049 -1.3390 -1.1630 -1.0195
 2602TIP3    H229222   6.351   1.902  16.985  0.6852 -1.1806  0.8933
 2603TIP3   OH229223   4.856   1.989  15.873 -0.2918 -0.0503  0.3706
 2603TIP3    H129224   4.818   2.013  15.789  0.2614 -0.7112 -0.0830
 2603TIP3    H229225   4.950   1.990  15.857 -0.2228 -2.1844  0.3804
 2604TIP3   OH229226   0.756   6.568   3.537  0.5736 -0.6413  0.2979
 2604TIP3    H129227   0.840   6.561   3.492 -0.0692  3.4408 -2.0716
 2604TIP3    H229228   0.757   6.655   3.576 -2.5268 -0.4124  0.1405
 2605TIP3   OH229229   0.506   0.028   0.782  0.4038 -0.4854 -0.1323
 2605TIP3    H129230   0.554   0.055   0.704  2.3915  0.3764  1.2999
 2605TIP3    H229231   0.572   0.027   0.852 -1.8107  1.6956  2.1834
 2606TIP3   OH229232   5.438   4.854   2.588 -0.0079 -0.3597 -0.0647
 2606TIP3    H129233   5.488   4.935   2.600 -1.2160  0.1822  1.6590
 2606TIP3    H229234   5.500   4.785   2.612  0.5706  0.1323 -0.1005
 2607TIP3   OH229235   4.520   2.626  12.792  0.1801  0.2085 -0.1142
 2607TIP3    H129236   4.571   2.583  12.861  0.2136 -3.1508 -2.0232
 2607TIP3    H229237   4.433   2.636  12.830  0.5258 -0.3204  0.8711
 2608TIP3   OH229238   1.308   3.023   3.161  0.5248  0.0147  0.2329
 2608TIP3    H129239   1.286   2.933   3.138 -1.7517  0.8113 -1.0054
 2608TIP3    H229240   1.305   3.025   3.256  1.1596 -1.3188  0.3002
 2609TIP3   OH229241   2.585   3.757  12.318 -0.3842 -0.0148 -0.0536
 2609TIP3    H129242   2.607   3.820  12.250  0.2093  0.5154  0.6145
 2609TIP3    H229243   2.583   3.672  12.274  1.3129  0.1403 -0.4766
 2610TIP3   OH229244   1.775   5.244   3.586  0.8776 -0.0578  0.2133
 2610TIP3    H129245   1.796   5.155   3.556  0.9550  0.3140 -0.8805
 2610TIP3    H229246   1.835   5.301   3.538  0.8694  0.5949  0.9464
 2611TIP3   OH229247   4.791   3.999  16.798 -0.0276  0.0059  0.3060
 2611TIP3    H129248   4.860   4.048  16.754 -0.4285  1.9781  1.7425
 2611TIP3    H229249   4.831   3.915  16.820  0.6034 -0.5175 -2.4565
 2612TIP3   OH229250   4.596   4.979   4.771  0.0648 -0.1618  0.0442
 2612TIP3    H129251   4.675   5.019   4.735 -0.1351 -0.8378 -1.1927
 2612TIP3    H229252   4.627   4.898   4.812  0.2081  0.3070  0.8779
 2613TIP3   OH229253   4.007   3.547   2.553 -0.5988  0.5217 -0.3402
 2613TIP3    H129254   4.040   3.535   2.464 -0.2431  1.5320 -0.3613
 2613TIP3    H229255   4.020   3.640   2.570  0.4852  0.1222  1.2122
 2614TIP3   OH229256   6.182   3.163  12.235  0.6777 -0.3719 -0.1725
 2614TIP3    H129257   6.235   3.217  12.294  0.1426 -0.6573  0.5749
 2614TIP3    H229258   6.230   3.081  12.227  1.0232 -0.1396 -0.5791
 2615TIP3   OH229259   2.931   1.612  11.273 -0.7311  0.1956  0.0256
 2615TIP3    H129260   2.907   1.529  11.233 -0.7645 -0.2607  0.9488
 2615TIP3    H229261   2.946   1.590  11.365  2.6687  0.5169 -0.3341
 2616TIP3   OH229262   2.813   0.416  16.442 -0.3752  0.2143  0.4193
 2616TIP3    H129263   2.899   0.456  16.427  0.5917 -2.1964 -1.0246
 2616TIP3    H229264   2.772   0.415  16.355 -0.7596 -1.0185  0.6053
 2617TIP3   OH229265   4.134   4.226   6.597 -0.6598 -0.4782  0.1470
 2617TIP3    H129266   4.210   4.268   6.559 -1.7483  1.7221  0.2511
 2617TIP3    H229267   4.079   4.202   6.523 -0.2769 -1.3171  0.1163
 2618TIP3   OH229268   1.547   1.880  16.491 -0.1569 -0.1630  0.0236
 2618TIP3    H129269   1.567   1.863  16.583  1.7802 -0.8751 -0.4976
 2618TIP3    H229270   1.536   1.975  16.487  2.2567  0.2035  0.5787
 2619TIP3   OH229271   4.204   0.544  13.420 -1.0232  0.0907 -0.1494
 2619TIP3    H129272   4.153   0.577  13.346 -2.9607 -0.0851  1.0411
 2619TIP3    H229273   4.163   0.461  13.442  0.7778 -0.8217 -0.0779
 2620TIP3   OH229274   5.436   1.212  17.136 -0.1725 -0.2558 -0.3641
 2620TIP3    H129275   5.391   1.148  17.082 -0.9809  0.4498 -0.5576
 2620TIP3    H229276   5.376   1.287  17.139  0.2500  0.0535  0.7825
 2621TIP3   OH229277   3.470   3.133  11.466 -0.4091  0.0650  0.5804
 2621TIP3    H129278   3.507   3.074  11.401  1.5000 -0.4940  2.0863
 2621TIP3    H229279   3.396   3.175  11.421  0.3467 -0.8532 -1.6565
 2622TIP3   OH229280   4.574   5.755   4.565  0.1502  0.1197  0.0165
 2622TIP3    H129281   4.552   5.717   4.480 -1.7256  2.7578 -0.8236
 2622TIP3    H229282   4.510   5.720   4.625 -0.6305  0.7470 -0.4271
 2623TIP3   OH229283   4.635   1.284  15.181 -0.8508 -0.4486 -0.2859
 2623TIP3    H129284   4.559   1.246  15.137 -0.9850 -0.0899 -0.3648
 2623TIP3    H229285   4.705   1.221  15.165 -0.8498 -0.2426 -1.1735
 2624TIP3   OH229286   5.430   6.023   3.010 -0.6007 -0.1647 -0.1747
 2624TIP3    H129287   5.446   5.994   3.100  3.1273  4.2300  1.0018
 2624TIP3    H229288   5.341   6.058   3.011 -0.6461 -0.2209  1.8487
 2625TIP3   OH229289   6.706   2.222   1.296  0.2362  0.8169 -0.1536
 2625TIP3    H129290   6.679   2.229   1.204 -0.7252  0.3458  0.0729
 2625TIP3    H229291   6.787   2.272   1.301  0.9062 -0.0940 -1.4928
 2626TIP3   OH229292   1.840   4.691   2.592  0.1575 -0.3740 -0.5574
 2626TIP3    H129293   1.930   4.724   2.593 -0.3128  1.0904 -2.1159
 2626TIP3    H229294   1.800   4.728   2.671  0.0070  1.8344 -1.6074
 2627TIP3   OH229295   2.796   3.115  12.633  0.1457 -0.8687  0.2939
 2627TIP3    H129296   2.784   3.161  12.716 -2.6032  0.9063 -0.9510
 2627TIP3    H229297   2.747   3.033  12.643 -1.2721 -0.0838  0.0723
 2628TIP3   OH229298   3.553   5.126  15.074 -0.1167  0.0609  0.6114
 2628TIP3    H129299   3.530   5.217  15.094 -1.2848 -0.5592  2.2906
 2628TIP3    H229300   3.648   5.127  15.064 -0.1012  1.4447  0.6568
 2629TIP3   OH229301   5.023   5.435  16.057 -0.1229  0.4259 -0.3010
 2629TIP3    H129302   4.966   5.510  16.044 -0.5920 -0.1438 -1.7222
 2629TIP3    H229303   5.101   5.454  16.005 -0.7764 -0.5832 -1.7269
 2630TIP3   OH229304   3.673   4.555   1.614 -0.0710  0.1675  0.2145
 2630TIP3    H129305   3.583   4.530   1.594  0.4854 -1.2337 -0.7379
 2630TIP3    H229306   3.720   4.540   1.531  1.4615 -1.3695  1.2853
 2631TIP3   OH229307   5.418   2.513   5.115  0.1505  0.0687 -0.6327
 2631TIP3    H129308   5.406   2.482   5.025  1.3738 -0.4209 -0.6396
 2631TIP3    H229309   5.350   2.469   5.165  0.4144 -0.8386 -1.0528
 2632TIP3   OH229310   3.398   5.368  11.480 -0.0592  0.3050 -0.2058
 2632TIP3    H129311   3.423   5.288  11.526  0.9882  1.9143  2.2287
 2632TIP3    H229312   3.303   5.374  11.492  0.1815  0.6719  1.8742
 2633TIP3   OH229313   2.803   3.058   5.128 -0.3106 -0.1700 -0.1670
 2633TIP3    H129314   2.744   2.982   5.129 -1.4399  0.6647  1.6207
 2633TIP3    H229315   2.759   3.123   5.182  0.3728  2.0032 -2.0829
 2634TIP3   OH229316   5.904   2.105  15.860  1.1306  0.2307 -0.8492
 2634TIP3    H129317   5.958   2.029  15.839  0.9938  0.1059 -0.7462
 2634TIP3    H229318   5.870   2.088  15.947  0.7467  0.2096 -1.0014
 2635TIP3   OH229319   2.499   5.682  13.162 -0.3133 -0.3352  0.6643
 2635TIP3    H129320   2.503   5.613  13.228  1.0691 -0.4013  0.5349
 2635TIP3    H229321   2.590   5.698  13.137 -0.7300  0.3697 -0.5293
 2636TIP3   OH229322   1.651   5.017  14.861 -0.2576 -0.3861 -0.4325
 2636TIP3    H129323   1.558   5.040  14.856 -0.8178 -2.5945 -1.1860
 2636TIP3    H229324   1.669   4.969  14.780  1.0484 -1.6047  0.5162
 2637TIP3   OH229325   3.767   5.815   4.321 -0.1756  0.1688 -0.5170
 2637TIP3    H129326   3.752   5.892   4.266  0.7390  0.3817 -0.4786
 2637TIP3    H229327   3.861   5.815   4.338 -0.6777  1.3803  2.9542
 2638TIP3   OH229328   6.262   2.191  15.249  0.4216  0.7384 -0.5138
 2638TIP3    H129329   6.217   2.260  15.298  1.6539  0.5973  0.8913
 2638TIP3    H229330   6.261   2.115  15.307 -0.5307 -0.3430 -1.8640
 2639TIP3   OH229331   3.531   2.861   1.576  0.2790  0.0076 -0.3498
 2639TIP3    H129332   3.576   2.888   1.496  1.6052 -1.9052 -0.3245
 2639TIP3    H229333   3.510   2.943   1.620 -1.1845  1.1806 -2.9544
 2640TIP3   OH229334   1.412   5.087  11.276  0.3690  0.1020  0.3404
 2640TIP3    H129335   1.346   5.124  11.335 -1.7028  0.0926 -1.7670
 2640TIP3    H229336   1.434   5.159  11.217  0.6942 -0.4358 -0.2147
 2641TIP3   OH229337   3.959   5.896   4.743 -0.5595  0.5892  0.1018
 2641TIP3    H129338   3.927   5.980   4.776  0.3711  0.9594  0.0932
 2641TIP3    H229339   3.925   5.831   4.805 -2.6211  0.7655 -0.7564
 2642TIP3   OH229340   1.909   3.829  12.650 -0.3434  0.0647  0.2831
 2642TIP3    H129341   1.906   3.745  12.694  0.1110 -1.0874 -1.7760
 2642TIP3    H229342   2.001   3.853  12.647 -0.4115  0.3467  0.3199
 2643TIP3   OH229343   5.716   3.216   6.206  0.1355 -0.5286  0.0168
 2643TIP3    H129344   5.776   3.289   6.193  0.3954 -0.5787  0.8781
 2643TIP3    H229345   5.641   3.237   6.151  0.5205  0.0219 -0.3104
 2644TIP3   OH229346   6.459   6.329   4.566  0.5230  0.5696 -0.7245
 2644TIP3    H129347   6.376   6.364   4.598  0.2868 -1.1825  0.7501
 2644TIP3    H229348   6.463   6.357   4.475 -1.9608  0.2225 -1.0183
 2645TIP3   OH229349   4.437   1.673   4.104  0.6811 -0.5598  0.9063
 2645TIP3    H129350   4.368   1.699   4.043  0.1867 -0.4953  1.4715
 2645TIP3    H229351   4.516   1.667   4.051  0.0131 -1.8311 -0.0019
 2646TIP3   OH229352   0.398   2.939  12.895  0.6284  0.2720  0.0369
 2646TIP3    H129353   0.395   3.016  12.838 -1.1423 -0.9625 -1.7119
 2646TIP3    H229354   0.433   2.870  12.839 -1.4625 -1.0627  0.2480
 2647TIP3   OH229355   6.613   1.856  17.023 -0.0048  0.3068 -0.1271
 2647TIP3    H129356   6.526   1.831  17.052  0.5753  0.6229  2.0277
 2647TIP3    H229357   6.657   1.888  17.101  1.4379  1.9601 -1.5158
 2648TIP3   OH229358   6.406   5.844   5.265 -0.1111  0.1451 -0.0523
 2648TIP3    H129359   6.432   5.763   5.220  0.1388  0.6730 -0.9014
 2648TIP3    H229360   6.328   5.821   5.314 -0.3557 -0.4799 -0.7192
 2649TIP3   OH229361   5.793   1.467   0.387 -0.5728 -0.3321  0.3571
 2649TIP3    H129362   5.734   1.476   0.313 -0.4619 -0.0141  0.3030
 2649TIP3    H229363   5.812   1.557   0.414  3.0092 -0.1348 -2.1268
 2650TIP3   OH229364   6.290   3.720   0.014 -0.2961 -0.3928 -0.7847
 2650TIP3    H129365   6.239   3.800   0.029 -1.6883 -0.9734 -2.1867
 2650TIP3    H229366   6.377   3.752  -0.011 -0.3040  0.6395  0.4138
 2651TIP3   OH229367   5.627   0.380   0.120 -0.3353  0.7773 -0.3506
 2651TIP3    H129368   5.570   0.302   0.117 -0.5382  0.9037  0.2460
 2651TIP3    H229369   5.665   0.384   0.032  0.5303 -0.6282 -0.0691
 2652TIP3   OH229370   5.264   5.905   5.046  0.3011  0.1284  0.2279
 2652TIP3    H129371   5.174   5.900   5.016  0.4937  2.1401 -0.9029
 2652TIP3    H229372   5.293   5.993   5.020  2.7979 -0.6869 -0.0760
 2653TIP3   OH229373   6.604   3.311   1.830 -0.8221 -0.1822 -0.0533
 2653TIP3    H129374   6.554   3.270   1.759 -0.0426  0.3659 -0.9490
 2653TIP3    H229375   6.694   3.281   1.817 -0.0508  2.3408 -1.2372
 2654TIP3   OH229376   2.581   5.109  15.844  0.0518 -0.2743  0.3476
 2654TIP3    H129377   2.645   5.039  15.860 -0.9589 -0.7261  2.8897
 2654TIP3    H229378   2.529   5.076  15.771  1.7067 -0.5770 -0.7721
 2655TIP3   OH229379   3.085   4.001  13.991  0.8163 -0.2784 -0.4095
 2655TIP3    H129380   3.045   3.924  14.032  1.2523 -0.3224 -0.0541
 2655TIP3    H229381   3.110   3.972  13.904 -1.1582  0.1380 -1.1512
 2656TIP3   OH229382   5.984   6.479  14.347  0.8603  0.5815  0.4601
 2656TIP3    H129383   5.981   6.517  14.260 -1.3540  0.2680  0.3514
 2656TIP3    H229384   5.905   6.510  14.390  1.5837  0.2078  2.1490
 2657TIP3   OH229385   0.921   2.048  15.998  0.0268 -0.2678  0.1800
 2657TIP3    H129386   1.002   2.031  15.950 -1.7130 -1.8012 -2.5211
 2657TIP3    H229387   0.883   1.961  16.011 -2.2256  0.5151 -0.6801
 2658TIP3   OH229388   4.884   1.949   1.969 -0.9069 -0.0920  0.7045
 2658TIP3    H129389   4.870   1.914   1.881 -0.3572  0.6834  0.2978
 2658TIP3    H229390   4.915   2.038   1.954  2.3054 -0.9446  1.5619
 2659TIP3   OH229391   4.595   6.466   1.670 -0.0082 -0.2720  0.7125
 2659TIP3    H129392   4.588   6.504   1.758  1.5653  0.3082  0.6266
 2659TIP3    H229393   4.507   6.436   1.650 -0.3894 -0.4907  2.5253
 2660TIP3   OH229394   5.190   1.558   1.601  0.9126  0.0129 -0.0773
 2660TIP3    H129395   5.268   1.565   1.656  0.7971  2.1411 -0.1074
 2660TIP3    H229396   5.199   1.629   1.537 -0.2352 -0.7683 -1.1546
 2661TIP3   OH229397   2.082   4.018   0.557 -0.1264 -0.7039 -0.6307
 2661TIP3    H129398   2.079   3.990   0.648  2.1601 -1.0858 -0.6145
 2661TIP3    H229399   2.166   4.065   0.549 -0.5687 -0.1360 -2.3859
 2662TIP3   OH229400   0.274   4.333  12.983  0.0468  0.1901  0.4972
 2662TIP3    H129401   0.189   4.294  12.960 -1.0762  1.8667  1.6366
 2662TIP3    H229402   0.288   4.400  12.916  0.3510  0.1055  0.4758
 2663TIP3   OH229403   3.887   0.736  15.817 -0.4356 -0.4287 -0.1345
 2663TIP3    H129404   3.934   0.802  15.868 -0.1675 -0.9260  0.2731
 2663TIP3    H229405   3.796   0.742  15.847 -0.2261 -0.9157  0.6173
 2664TIP3   OH229406   6.641   2.160   6.279  0.3184  0.5900  0.8691
 2664TIP3    H129407   6.635   2.066   6.258 -1.9825  0.7530  0.5498
 2664TIP3    H229408   6.551   2.185   6.301  0.7798  2.8910  0.3176
 2665TIP3   OH229409   4.756   1.592  16.122  0.4012 -0.0542 -0.3957
 2665TIP3    H129410   4.790   1.534  16.054  1.0946  0.7950 -0.7906
 2665TIP3    H229411   4.694   1.538  16.171  0.2483 -0.8132 -1.4059
 2666TIP3   OH229412   1.860   1.439   5.494 -0.3551  0.4779  0.1668
 2666TIP3    H129413   1.859   1.357   5.446  0.6913  0.6641 -0.1975
 2666TIP3    H229414   1.942   1.481   5.470 -0.5598  1.3317  0.8601
 2667TIP3   OH229415   5.089   3.868  13.104  0.1822  0.1401 -0.0028
 2667TIP3    H129416   5.104   3.774  13.097 -1.4852 -0.0886 -1.0548
 2667TIP3    H229417   5.168   3.908  13.068  0.7417 -0.8600  0.0908
 2668TIP3   OH229418   0.937   0.920  11.170  0.1670 -0.0062 -0.3275
 2668TIP3    H129419   0.992   0.897  11.094 -0.0926  0.8209 -0.7805
 2668TIP3    H229420   0.894   1.001  11.144 -0.0238  0.2183  0.6714
 2669TIP3   OH229421   3.973   2.341  12.091 -0.0205  0.0791 -0.2901
 2669TIP3    H129422   3.926   2.360  12.009 -0.4459 -0.7556 -0.2547
 2669TIP3    H229423   3.978   2.425  12.136 -1.0908  0.2765 -0.5041
 2670TIP3   OH229424   4.046   4.777  12.981 -0.1845  0.3501 -0.0766
 2670TIP3    H129425   4.093   4.766  12.898  0.3707  0.1211  0.2655
 2670TIP3    H229426   4.112   4.763  13.049 -0.2182  2.2592  0.4065
 2671TIP3   OH229427   2.348   6.650  17.119 -0.1877 -0.7455 -0.4685
 2671TIP3    H129428   2.261   6.609  17.127 -0.4767 -0.2453 -0.9520
 2671TIP3    H229429   2.398   6.615  17.192 -1.0395 -0.4548  0.2671
 2672TIP3   OH229430   4.700   5.783   4.804 -0.4291  0.3923 -0.3055
 2672TIP3    H129431   4.670   5.786   4.713 -1.2795 -0.6320 -0.0644
 2672TIP3    H229432   4.748   5.700   4.811 -1.8832 -0.3992  0.6276
 2673TIP3   OH229433   4.668   3.016   4.407 -0.2209 -0.0326 -0.4321
 2673TIP3    H129434   4.623   3.096   4.381 -1.2214 -0.0025  1.2735
 2673TIP3    H229435   4.736   3.004   4.340 -1.5028  0.9743 -2.0046
 2674TIP3   OH229436   5.888   0.225   1.421  0.6771  0.1240 -0.4835
 2674TIP3    H129437   5.923   0.155   1.477 -0.8358  1.1909  2.0006
 2674TIP3    H229438   5.965   0.276   1.395  1.5115 -0.7667  0.1644
 2675TIP3   OH229439   2.945   2.531  15.315  0.0892  0.3663  0.3933
 2675TIP3    H129440   2.912   2.619  15.335  0.0851  0.4069  0.2066
 2675TIP3    H229441   3.014   2.545  15.251  0.5699  0.2915  0.8856
 2676TIP3   OH229442   5.730   4.611   0.247 -0.0939  0.0844  0.4669
 2676TIP3    H129443   5.665   4.584   0.183  0.5562 -0.4456  0.0230
 2676TIP3    H229444   5.812   4.612   0.199  0.4613 -0.6448  1.3699
 2677TIP3   OH229445   5.540   5.200  13.391  0.4419  0.0131 -0.0652
 2677TIP3    H129446   5.455   5.234  13.420 -0.3518 -1.7751 -0.1676
 2677TIP3    H229447   5.598   5.276  13.394 -1.4370  1.5922 -1.1920
 2678TIP3   OH229448   6.464   4.595   1.767 -0.3334  0.1592 -0.0571
 2678TIP3    H129449   6.528   4.645   1.817 -0.2099  1.0722 -1.0865
 2678TIP3    H229450   6.422   4.537   1.831 -0.4607  1.5530  1.1597
 2679TIP3   OH229451   6.497   3.251   3.299 -0.3924 -0.6242 -0.3093
 2679TIP3    H129452   6.403   3.250   3.318 -0.4414 -4.9326  0.3322
 2679TIP3    H229453   6.503   3.256   3.204 -1.2731 -0.3543 -0.3578
 2680TIP3   OH229454   3.201   4.757  15.879  0.5689  0.1884  0.3936
 2680TIP3    H129455   3.265   4.821  15.908  0.1027  0.9783 -0.2559
 2680TIP3    H229456   3.188   4.699  15.954  1.3167  0.5979  0.8474
 2681TIP3   OH229457   0.246   4.576  16.896  0.2843  0.1084  0.0228
 2681TIP3    H129458   0.229   4.558  16.989  2.7574 -2.3036  0.1503
 2681TIP3    H229459   0.294   4.659  16.896 -0.8713  0.8023  0.7384
 2682TIP3   OH229460   1.006   1.095   0.297 -0.4949  0.6732 -0.0181
 2682TIP3    H129461   0.939   1.057   0.353 -0.3554  1.5321  0.7461
 2682TIP3    H229462   0.956   1.144   0.230 -0.7867 -2.6003 -2.4404
 2683TIP3   OH229463   2.365   3.700  10.646  0.4083  0.2138 -0.0324
 2683TIP3    H129464   2.347   3.793  10.660  0.5770  0.5217 -1.5925
 2683TIP3    H229465   2.280   3.661  10.630  0.1112 -0.3113  2.5047
 2684TIP3   OH229466   1.127   4.750  14.381  0.1587  0.5393 -0.0612
 2684TIP3    H129467   1.092   4.816  14.440  1.0370  2.4799 -1.5937
 2684TIP3    H229468   1.080   4.764  14.299  0.9270 -0.2249 -0.6494
 2685TIP3   OH229469   2.512   2.017   2.375 -0.1120  0.0362  0.1690
 2685TIP3    H129470   2.427   2.029   2.332 -1.5889  0.6574  3.0381
 2685TIP3    H229471   2.535   2.104   2.407  2.2964  0.1422 -1.5762
 2686TIP3   OH229472   4.624   4.948  11.950 -0.0151 -0.1739  0.4366
 2686TIP3    H129473   4.679   4.941  12.028 -0.1807  0.1125  0.5796
 2686TIP3    H229474   4.571   5.026  11.965 -0.8039 -0.7182  0.5229
 2687TIP3   OH229475   0.857   2.328   4.827 -0.3668 -0.2397 -0.0342
 2687TIP3    H129476   0.776   2.285   4.801 -1.4099  1.4959  0.1776
 2687TIP3    H229477   0.925   2.262   4.815 -1.8467 -1.8359  0.0768
 2688TIP3   OH229478   0.933   3.254   3.660 -0.4736 -0.1417  0.0067
 2688TIP3    H129479   0.863   3.199   3.696 -0.6278 -2.3652 -3.2313
 2688TIP3    H229480   0.889   3.311   3.597  0.5591 -2.7401 -3.3618
 2689TIP3   OH229481   3.467   4.312  11.604 -0.3868 -0.4068 -0.5415
 2689TIP3    H129482   3.467   4.330  11.511  1.9151 -1.4497 -0.8113
 2689TIP3    H229483   3.495   4.221  11.611 -0.0917 -0.2288  1.1630
 2690TIP3   OH229484   4.612   5.539   0.493  0.1152  0.0327  0.1329
 2690TIP3    H129485   4.612   5.460   0.439 -0.0351  0.1144  0.0134
 2690TIP3    H229486   4.543   5.594   0.456 -0.8267 -0.4255  1.1578
 2691TIP3   OH229487   3.775   0.995   1.677 -0.2666  0.1203  0.4009
 2691TIP3    H129488   3.814   0.933   1.740 -0.3058  1.3191  1.6536
 2691TIP3    H229489   3.701   1.033   1.724 -1.2284 -0.0516 -0.9450
 2692TIP3   OH229490   0.969   2.106  16.462 -0.6853 -0.0372 -0.3178
 2692TIP3    H129491   0.976   2.011  16.451  0.2477 -0.0136  0.0242
 2692TIP3    H229492   0.983   2.121  16.555 -0.5799  0.4635 -0.4124
 2693TIP3   OH229493   3.857   4.558  10.492  0.3343  0.4655 -0.4546
 2693TIP3    H129494   3.899   4.480  10.528 -0.3272 -0.3626 -1.4273
 2693TIP3    H229495   3.922   4.597  10.434  0.8575  0.9557  0.4420
 2694TIP3   OH229496   0.426   4.858   3.352 -0.9067 -0.8522 -0.2372
 2694TIP3    H129497   0.354   4.819   3.302 -0.6573 -0.8180 -0.6289
 2694TIP3    H229498   0.472   4.783   3.390  0.3129 -1.0461 -2.0011
 2695TIP3   OH229499   0.387   6.469  11.065 -0.1301  0.2462  0.1046
 2695TIP3    H129500   0.400   6.561  11.088 -0.5462  1.0144 -2.3885
 2695TIP3    H229501   0.314   6.471  11.003  1.5024 -1.4161 -1.9960
 2696TIP3   OH229502   3.061   3.895   3.672  0.0231 -0.3563  0.7715
 2696TIP3    H129503   3.027   3.927   3.756  2.1179  2.1239  0.8096
 2696TIP3    H229504   3.107   3.815   3.694  1.3082  0.7178  2.2449
 2697TIP3   OH229505   6.377   5.344  10.867 -0.1074 -0.2284 -0.0803
 2697TIP3    H129506   6.391   5.346  10.962 -0.6652  1.0680 -0.0059
 2697TIP3    H229507   6.459   5.377  10.830  0.6827 -2.1498 -0.1541
 2698TIP3   OH229508   2.039   0.567   4.916  0.5764 -0.3734 -0.3931
 2698TIP3    H129509   2.104   0.637   4.919  1.2706 -1.0374  0.4287
 2698TIP3    H229510   2.077   0.500   4.859  0.9432 -1.0749  0.6623
 2699TIP3   OH229511   1.329   2.417   5.529 -0.4066  0.6906 -0.4404
 2699TIP3    H129512   1.264   2.443   5.595 -2.3205 -1.8899 -1.1435
 2699TIP3    H229513   1.313   2.324   5.515  0.7986  0.8378 -3.5926
 2700TIP3   OH229514   4.059   1.937   5.436  0.4331 -0.0470 -0.1351
 2700TIP3    H129515   3.965   1.942   5.414 -0.0684  0.1716  1.8781
 2700TIP3    H229516   4.101   1.996   5.373 -0.7531 -0.2026 -1.1216
 2701TIP3   OH229517   0.145   2.928  16.614  0.2865  0.9606  0.0952
 2701TIP3    H129518   0.134   2.981  16.536 -2.3085  1.0334  0.4322
 2701TIP3    H229519   0.162   2.991  16.684  1.1753  1.0004 -0.1416
 2702TIP3   OH229520   5.527   5.328  16.934  0.1956  0.3796 -0.3236
 2702TIP3    H129521   5.458   5.267  16.907 -0.2312 -0.1073  1.6890
 2702TIP3    H229522   5.607   5.294  16.895 -0.5287  0.3446 -1.8151
 2703TIP3   OH229523   4.725   0.999   5.657  0.6791 -0.3549  0.0366
 2703TIP3    H129524   4.740   1.076   5.710  1.5297 -0.4916  0.0075
 2703TIP3    H229525   4.812   0.967   5.635  0.4553  0.7254 -2.9403
 2704TIP3   OH229526   3.946   5.103   4.020  0.2104 -0.0737 -0.0219
 2704TIP3    H129527   3.919   5.167   3.954 -0.9282 -2.8884 -2.5582
 2704TIP3    H229528   4.032   5.073   3.990 -0.1050 -1.0378  0.0139
 2705TIP3   OH229529   4.720   6.721  14.287 -0.7263  0.4769  0.2992
 2705TIP3    H129530   4.643   6.668  14.267 -0.4884 -1.2485  3.2801
 2705TIP3    H229531   4.793   6.674  14.247 -0.7913 -0.2088  0.9633
 2706TIP3   OH229532   3.424   4.633  16.787  0.4289 -0.8639 -0.0639
 2706TIP3    H129533   3.429   4.569  16.716  1.2159  1.1021 -1.9043
 2706TIP3    H229534   3.372   4.705  16.751  4.0916  1.9643 -0.2830
 2707TIP3   OH229535   1.956   3.561   4.129  0.4584 -0.4301  0.4586
 2707TIP3    H129536   1.955   3.548   4.034  1.7068  0.7848  0.2460
 2707TIP3    H229537   2.029   3.507   4.159 -0.6934 -1.7793  0.9182
 2708TIP3   OH229538   2.780   0.599   2.832 -0.1898  0.0465 -0.0798
 2708TIP3    H129539   2.842   0.532   2.862 -1.3405 -0.3592  1.5278
 2708TIP3    H229540   2.704   0.549   2.803 -0.3116  0.5920 -0.7067
 2709TIP3   OH229541   1.822   3.008   1.171  0.1707 -0.1956 -0.3379
 2709TIP3    H129542   1.814   2.927   1.121  0.4252  0.7124 -1.9100
 2709TIP3    H229543   1.748   3.062   1.142  0.7648  0.6463 -0.3325
 2710TIP3   OH229544   6.091   2.497   7.126  0.6139  0.1098 -0.3709
 2710TIP3    H129545   6.177   2.538   7.138  0.5407  0.3556 -0.6642
 2710TIP3    H229546   6.071   2.510   7.034 -0.1214  0.8174 -0.1255
 2711TIP3   OH229547   3.023   0.062  14.996  0.7763  0.9409  0.2976
 2711TIP3    H129548   3.118   0.059  15.007  0.8976  0.0386 -0.7749
 2711TIP3    H229549   3.009   0.110  14.914  0.3659  0.3320  0.0019
 2712TIP3   OH229550   4.482   4.101  12.350  0.1409  0.2216  0.0914
 2712TIP3    H129551   4.569   4.097  12.388 -0.3855  0.7466  1.4117
 2712TIP3    H229552   4.451   4.011  12.349  1.1942 -0.1612 -1.6604
 2713TIP3   OH229553   5.765   5.711  12.899  0.3182  0.3471  0.1392
 2713TIP3    H129554   5.729   5.733  12.985  0.8776  1.8514  0.0262
 2713TIP3    H229555   5.771   5.795  12.854  2.6261 -0.0347 -0.3555
 2714TIP3   OH229556   2.672   2.835   5.078 -0.0800  0.4849 -0.2887
 2714TIP3    H129557   2.705   2.750   5.050 -0.6769  0.1272  0.0784
 2714TIP3    H229558   2.579   2.821   5.093  0.0473  0.8753  1.0379
 2715TIP3   OH229559   3.059   2.752  17.174 -0.4340  0.5650  0.2714
 2715TIP3    H129560   3.023   2.829  17.130 -3.1861 -1.2997 -1.0409
 2715TIP3    H229561   3.130   2.722  17.116 -0.4948  1.1266 -0.0999
 2716TIP3   OH229562   5.632   1.954  12.343 -0.4488  0.3161  0.1399
 2716TIP3    H129563   5.542   1.946  12.374 -0.7339  1.9505 -0.1653
 2716TIP3    H229564   5.675   1.874  12.374 -1.6354  0.1708  1.5389
 2717TIP3   OH229565   0.876   5.775  15.429  0.3524 -0.5665 -0.2129
 2717TIP3    H129566   0.872   5.819  15.345  1.7247  3.2563  1.4893
 2717TIP3    H229567   0.785   5.772  15.459  0.0708 -0.2172 -1.0041
 2718TIP3   OH229568   3.286   4.055   0.360 -0.9219  0.4485 -0.0122
 2718TIP3    H129569   3.319   4.059   0.450 -2.4675 -0.5019  0.6350
 2718TIP3    H229570   3.329   3.978   0.323  0.4651  1.3924 -0.4393
 2719TIP3   OH229571   5.525   1.977   1.422  0.0305 -0.0076 -0.3312
 2719TIP3    H129572   5.592   1.911   1.436 -0.8125 -0.8725 -0.2611
 2719TIP3    H229573   5.572   2.051   1.383  1.0942 -0.4052  0.1455
 2720TIP3   OH229574   5.212   3.993  11.762 -0.1798 -0.2263  0.1431
 2720TIP3    H129575   5.278   3.976  11.695  0.8318 -0.2341  1.1061
 2720TIP3    H229576   5.134   3.948  11.732  0.4174 -0.6703 -0.7658
 2721TIP3   OH229577   3.874   0.671  16.293  0.1515 -0.2045  0.3634
 2721TIP3    H129578   3.969   0.666  16.304  0.0403 -0.5439  1.1743
 2721TIP3    H229579   3.851   0.590  16.248  0.0422 -0.8810  1.6233
 2722TIP3   OH229580   3.221   2.419   2.520  0.0365 -0.0554 -0.5466
 2722TIP3    H129581   3.217   2.514   2.513  0.2550 -0.0505 -0.6111
 2722TIP3    H229582   3.154   2.387   2.460 -0.3315  0.0682 -0.2041
 2723TIP3   OH229583   3.016   3.228   3.813 -0.1947  1.0691 -0.2382
 2723TIP3    H129584   3.064   3.293   3.863  0.1797  0.9504 -0.4410
 2723TIP3    H229585   2.939   3.208   3.867  0.1202  1.0642  0.2144
 2724TIP3   OH229586   6.155   6.176   3.017  0.3431 -0.4503 -0.2058
 2724TIP3    H129587   6.077   6.148   2.968  0.2081  0.5440 -0.5730
 2724TIP3    H229588   6.179   6.260   2.978 -0.3052  0.8415  2.0228
 2725TIP3   OH229589   1.719   5.816   5.354 -0.2178 -0.3555  0.1187
 2725TIP3    H129590   1.680   5.871   5.422 -0.8774  0.0664 -0.5939
 2725TIP3    H229591   1.813   5.830   5.364 -0.3749  0.8989 -0.0401
 2726TIP3   OH229592   1.888   1.186  14.137 -0.2253 -0.6109  1.4149
 2726TIP3    H129593   1.858   1.096  14.150 -0.3919 -0.5139  1.6924
 2726TIP3    H229594   1.811   1.240  14.151 -0.9695 -0.5851 -1.8893
 2727TIP3   OH229595   3.063   3.633  11.569 -0.3174  0.4127  0.1324
 2727TIP3    H129596   3.042   3.609  11.659  2.1194  1.2449  0.9864
 2727TIP3    H229597   3.067   3.729  11.570 -0.0239  0.4192 -0.8128
 2728TIP3   OH229598   6.385   6.001   4.805  0.1581  0.1755 -0.1526
 2728TIP3    H129599   6.383   5.956   4.721 -1.4141  0.8665 -0.5266
 2728TIP3    H229600   6.343   5.940   4.866  1.2776 -0.3167  0.1544
 2729TIP3   OH229601   5.516   1.094  14.942 -0.0836  0.2006 -0.2143
 2729TIP3    H129602   5.437   1.042  14.956 -0.6912  1.1031 -0.2217
 2729TIP3    H229603   5.586   1.029  14.933 -0.7620 -0.6005  0.1365
 2730TIP3   OH229604   6.445   1.203  12.481 -0.2828  0.0656 -0.1341
 2730TIP3    H129605   6.382   1.159  12.536  0.2414  0.5970  0.9168
 2730TIP3    H229606   6.465   1.285  12.527 -0.3490  0.8545 -1.4436
 2731TIP3   OH229607   4.010   0.789  14.393  0.2379  0.0253  0.4328
 2731TIP3    H129608   3.951   0.863  14.408 -1.7958 -1.3747 -0.2630
 2731TIP3    H229609   4.069   0.791  14.468 -0.2893  1.8379  0.8743
 2732TIP3   OH229610   5.877   1.134  10.876  0.1497 -0.2734  0.5998
 2732TIP3    H129611   5.935   1.103  10.807  0.2872 -1.4108  1.2024
 2732TIP3    H229612   5.929   1.198  10.925  1.2338 -1.8383  1.6134
 2733TIP3   OH229613   5.270   4.014  16.300  0.1556 -0.2143  0.2318
 2733TIP3    H129614   5.181   3.987  16.279  0.7826 -1.4372 -0.9814
 2733TIP3    H229615   5.321   3.993  16.222  1.3314  1.4248  0.5132
 2734TIP3   OH229616   2.268   2.637   3.683  0.2198 -0.0305  0.4180
 2734TIP3    H129617   2.334   2.697   3.720  1.1501 -0.2486 -0.8161
 2734TIP3    H229618   2.278   2.556   3.733 -0.1363  0.4004  1.2118
 2735TIP3   OH229619   2.128   2.761   5.197  0.2698 -0.3028  0.1221
 2735TIP3    H129620   2.075   2.685   5.172 -0.7107  0.2196  0.5528
 2735TIP3    H229621   2.133   2.814   5.117 -2.0600  0.8939  0.6446
 2736TIP3   OH229622   2.736   0.870   0.447 -0.0223  0.1069  0.4323
 2736TIP3    H129623   2.768   0.781   0.462 -0.2164  0.0534  0.5205
 2736TIP3    H229624   2.759   0.917   0.527 -1.2373 -0.2281  0.9985
 2737TIP3   OH229625   0.738   0.165  13.308 -0.0633  0.2600 -0.2498
 2737TIP3    H129626   0.810   0.166  13.246 -0.5617  0.2406 -0.8421
 2737TIP3    H229627   0.716   0.258  13.322  1.8059  0.4579  2.0279
 2738TIP3   OH229628   2.571   4.004   4.995  0.7588 -0.0296  0.0275
 2738TIP3    H129629   2.666   4.011   5.000  0.8510 -1.2330  0.2978
 2738TIP3    H229630   2.553   3.975   4.905  0.5691  1.1394 -0.3241
 2739TIP3   OH229631   4.530   1.759  11.523 -0.1188 -0.2800  0.6937
 2739TIP3    H129632   4.550   1.809  11.602 -2.2964  0.3685  0.9210
 2739TIP3    H229633   4.578   1.677  11.533  2.6016  1.2336  0.8791
 2740TIP3   OH229634   0.202   4.336  16.330 -0.4695  0.5777 -0.7036
 2740TIP3    H129635   0.135   4.388  16.375 -0.4451  2.3167 -2.5536
 2740TIP3    H229636   0.211   4.377  16.244  1.5325 -0.8659 -1.2599
 2741TIP3   OH229637   1.129   3.309   1.748 -0.6240  0.0154  0.3084
 2741TIP3    H129638   1.037   3.283   1.739 -0.3899 -1.0659  0.9211
 2741TIP3    H229639   1.140   3.326   1.841  0.0645 -0.9196  0.4085
 2742TIP3   OH229640   5.036   2.368   1.796  0.0514 -0.0537  0.3376
 2742TIP3    H129641   5.095   2.294   1.815 -1.3394 -0.9667  1.2712
 2742TIP3    H229642   5.088   2.445   1.819  0.2045 -0.9080  3.3472
 2743TIP3   OH229643   1.841   3.237   1.847  0.0484 -0.2163  0.6054
 2743TIP3    H129644   1.758   3.229   1.801  0.1626  3.0398 -0.4190
 2743TIP3    H229645   1.904   3.193   1.790 -0.6608 -1.0176  0.4246
 2744TIP3   OH229646   3.388   1.860   5.197  0.6807 -0.5799 -0.7387
 2744TIP3    H129647   3.397   1.948   5.160 -3.3696  1.0892  1.6621
 2744TIP3    H229648   3.409   1.871   5.290 -0.9401 -1.8511 -0.1792
 2745TIP3   OH229649   4.245   3.105   4.915  0.1010 -0.1512  0.2596
 2745TIP3    H129650   4.278   3.157   4.841 -0.5541 -0.0170  0.0552
 2745TIP3    H229651   4.323   3.070   4.956  0.4820 -0.1592 -0.4584
 2746TIP3   OH229652   3.648   6.296   0.210  0.4075 -0.0089 -0.0851
 2746TIP3    H129653   3.703   6.342   0.274  0.6300 -2.5897  1.7347
 2746TIP3    H229654   3.702   6.291   0.131  1.2680  0.7576  0.4361
 2747TIP3   OH229655   0.575   0.363   3.413  0.0737 -0.0699 -0.2856
 2747TIP3    H129656   0.662   0.357   3.451  0.7547  0.4878 -1.6715
 2747TIP3    H229657   0.543   0.449   3.438  0.1432 -0.0677 -0.2065
 2748TIP3   OH229658   0.968   0.189  16.095 -0.3800 -0.3058  0.0228
 2748TIP3    H129659   0.904   0.227  16.034 -0.8628 -0.2092  0.5882
 2748TIP3    H229660   1.045   0.171  16.040 -1.7420 -2.7933 -1.2437
 2749TIP3   OH229661   5.280   1.577  13.217  0.0514 -0.2245 -0.2072
 2749TIP3    H129662   5.322   1.547  13.298  0.0894  1.1675  0.3213
 2749TIP3    H229663   5.347   1.632  13.176 -0.7714  0.9476 -0.0158
 2750TIP3   OH229664   2.212   3.890  12.285  0.1549  0.2374  0.0175
 2750TIP3    H129665   2.201   3.795  12.295 -1.2285  0.2435 -1.0847
 2750TIP3    H229666   2.250   3.900  12.197 -1.1328  0.7407 -0.5124
 2751TIP3   OH229667   4.749   4.705  12.417 -0.4368 -0.3243  0.3570
 2751TIP3    H129668   4.819   4.653  12.456  1.4194  0.1656 -2.0546
 2751TIP3    H229669   4.689   4.641  12.380  0.9306 -0.8379 -1.0947
 2752TIP3   OH229670   5.813   0.730  12.466  0.5196 -0.3673  0.5279
 2752TIP3    H129671   5.889   0.727  12.525  0.6334 -0.5222  0.3741
 2752TIP3    H229672   5.744   0.686  12.516  0.3135  0.4420  0.9740
 2753TIP3   OH229673   6.765   6.594   3.802  1.0134  0.1290 -0.1084
 2753TIP3    H129674   6.706   6.662   3.835 -0.1546 -1.1449  0.5439
 2753TIP3    H229675   6.779   6.536   3.877  0.9517 -1.0427 -0.9672
 2754TIP3   OH229676   0.688   1.567   1.560 -0.2784 -0.9416 -0.5378
 2754TIP3    H129677   0.639   1.649   1.556  2.1313  0.7150  0.9378
 2754TIP3    H229678   0.737   1.565   1.478 -1.2037 -1.5426 -1.0920
 2755TIP3   OH229679   5.092   1.341   1.504  0.0500  0.1220  0.6205
 2755TIP3    H129680   5.010   1.334   1.554  0.2066 -0.2466  0.8287
 2755TIP3    H229681   5.124   1.429   1.524  0.1713 -0.0660  1.2672
 2756TIP3   OH229682   1.776   4.308   3.227 -0.1386  0.1364  0.3879
 2756TIP3    H129683   1.807   4.222   3.197 -0.5743 -0.4240  1.4745
 2756TIP3    H229684   1.729   4.344   3.152  1.9032  0.4097 -0.8396
 2757TIP3   OH229685   4.284   3.542   3.208 -1.0757 -0.0390  0.7964
 2757TIP3    H129686   4.240   3.468   3.167 -2.7896  1.5413 -0.4043
 2757TIP3    H229687   4.225   3.616   3.192  1.4723  2.0015  0.1475
 2758TIP3   OH229688   1.923   6.100  11.360  0.4521  0.4162  0.1044
 2758TIP3    H129689   1.946   6.129  11.448  0.3832 -0.9939  0.6196
 2758TIP3    H229690   1.962   6.165  11.301  1.5100  0.7423  1.1379
 2759TIP3   OH229691   4.840   2.350  14.098  0.0485  0.0782 -0.6701
 2759TIP3    H129692   4.894   2.272  14.088  0.7034  0.3743  0.4344
 2759TIP3    H229693   4.778   2.328  14.168 -0.0687  0.3870 -0.6739
 2760TIP3   OH229694   0.774   6.039  16.826  0.2323  0.0070  0.0407
 2760TIP3    H129695   0.729   6.042  16.742  1.9423  0.8295 -0.9172
 2760TIP3    H229696   0.768   6.129  16.859  0.4124 -0.0816  0.3121
 2761TIP3   OH229697   6.362   4.505   0.516  0.3231 -0.0927  0.8925
 2761TIP3    H129698   6.344   4.414   0.492 -0.4866  0.0611  0.8922
 2761TIP3    H229699   6.280   4.551   0.498  0.7196  0.6323  0.9234
 2762TIP3   OH229700   3.042   4.813  16.305 -0.1457  0.4902  0.2239
 2762TIP3    H129701   3.114   4.873  16.325 -0.3075  0.2790  1.5430
 2762TIP3    H229702   3.085   4.729  16.291 -0.0616  0.5707 -0.0198
 2763TIP3   OH229703   5.579   2.175  13.532  0.1995 -0.2006  0.4643
 2763TIP3    H129704   5.530   2.105  13.575 -0.2609 -0.0126  0.2499
 2763TIP3    H229705   5.542   2.256  13.566  0.2420 -0.0549  0.1736
 2764TIP3   OH229706   4.400   1.014  11.716 -0.0792  0.2109  0.3243
 2764TIP3    H129707   4.444   1.008  11.632  2.3459  1.5631  1.3815
 2764TIP3    H229708   4.323   1.069  11.699 -0.8682 -1.3502 -1.3837
 2765TIP3   OH229709   4.532   4.921  15.549  0.5552 -0.6072  0.3654
 2765TIP3    H129710   4.610   4.976  15.543 -0.0095  0.1960  0.1607
 2765TIP3    H229711   4.481   4.959  15.620  0.0857 -0.7689  0.1216
 2766TIP3   OH229712   2.721   3.599  13.264 -0.5245 -0.2478  0.2313
 2766TIP3    H129713   2.717   3.603  13.169 -3.1932 -0.5986  0.2448
 2766TIP3    H229714   2.656   3.663  13.293  0.3530 -0.0362  1.8321
 2767TIP3   OH229715   6.644   5.364  14.512  0.0009 -0.4485  0.3413
 2767TIP3    H129716   6.668   5.358  14.419  0.7787 -0.4337  0.5334
 2767TIP3    H229717   6.550   5.384  14.511  0.0235 -0.3328 -0.4436
 2768TIP3   OH229718   3.369   3.233  13.614 -0.1253  0.0042  0.3470
 2768TIP3    H129719   3.338   3.285  13.688 -2.5388  1.6099 -1.6311
 2768TIP3    H229720   3.295   3.178  13.590  0.1313  0.4141 -1.5602
 2769TIP3   OH229721   2.060   4.803   0.355 -0.0372  0.0680  0.1599
 2769TIP3    H129722   1.971   4.770   0.346 -0.7196  0.7683  3.2150
 2769TIP3    H229723   2.105   4.738   0.409  0.4813  0.9939  0.8879
 2770TIP3   OH229724   1.112   1.238  12.303  0.2387  0.6266 -0.2888
 2770TIP3    H129725   1.131   1.331  12.311  0.4773  0.5591 -0.0684
 2770TIP3    H229726   1.196   1.195  12.315  0.0646  0.3637  0.0055
 2771TIP3   OH229727   4.043   1.212   5.762  0.1147  0.0217  0.1524
 2771TIP3    H129728   4.119   1.266   5.786  1.1456 -0.7206 -1.2698
 2771TIP3    H229729   3.995   1.264   5.698  0.6804 -0.4015 -0.6326
 2772TIP3   OH229730   1.952   0.615   3.695 -0.2003 -0.3456 -0.2162
 2772TIP3    H129731   1.908   0.654   3.619 -0.7324  0.7230  0.6047
 2772TIP3    H229732   2.035   0.663   3.701  0.0312 -0.7249 -0.3683
 2773TIP3   OH229733   1.942   2.638  14.098 -0.1018  0.4656  0.3795
 2773TIP3    H129734   1.912   2.552  14.068  0.5330  0.5118 -0.4283
 2773TIP3    H229735   1.979   2.679  14.020  2.8933  0.0489  1.4175
 2774TIP3   OH229736   6.486   4.421  12.456 -0.2964 -0.2814 -0.1242
 2774TIP3    H129737   6.468   4.372  12.536 -1.4977  0.6482  0.2123
 2774TIP3    H229738   6.422   4.388  12.393  1.6283 -2.0992 -1.2321
 2775TIP3   OH229739   2.946   3.742   0.435  0.2007  0.2678 -0.3064
 2775TIP3    H129740   3.011   3.676   0.412 -0.5771 -0.5619 -0.2070
 2775TIP3    H229741   2.935   3.794   0.356  0.3905 -0.1034 -0.5799
 2776TIP3   OH229742   2.786   5.925   4.772  0.3115 -0.7519  0.6803
 2776TIP3    H129743   2.742   5.913   4.688  0.0639 -0.3760  0.7517
 2776TIP3    H229744   2.873   5.957   4.749 -0.2801  0.9306  0.5850
 2777TIP3   OH229745   6.111   2.573   5.135  0.0424 -0.2161 -0.7693
 2777TIP3    H129746   6.172   2.642   5.161 -0.9830  0.2107  0.5756
 2777TIP3    H229747   6.088   2.529   5.216 -2.6267  0.6241 -0.9922
 2778TIP3   OH229748   5.389   4.911   3.450  0.0121 -0.7987 -0.6451
 2778TIP3    H129749   5.390   4.849   3.377 -0.9090 -1.0750 -0.4273
 2778TIP3    H229750   5.310   4.890   3.499  0.5922 -0.5776  0.4099
 2779TIP3   OH229751   2.816   3.746   1.517  0.2126 -0.1183 -0.2165
 2779TIP3    H129752   2.760   3.684   1.470 -1.0750 -0.2507  1.4000
 2779TIP3    H229753   2.817   3.714   1.607  0.2275  1.7174  0.4808
 2780TIP3   OH229754   6.324   5.759  11.634  0.0774  0.1519  0.6090
 2780TIP3    H129755   6.343   5.779  11.726  1.3498 -1.2617  0.6885
 2780TIP3    H229756   6.407   5.775  11.588 -0.1225 -0.5863 -0.0415
 2781TIP3   OH229757   4.579   6.310  17.041  0.0689 -0.2845  0.1292
 2781TIP3    H129758   4.534   6.342  16.963  0.3542 -0.3274 -0.0579
 2781TIP3    H229759   4.514   6.316  17.111  0.1547  0.8467  0.1323
 2782TIP3   OH229760   2.757   6.673   2.934  0.8890 -0.1945  0.3689
 2782TIP3    H129761   2.731   6.599   2.880  0.3570  0.2853 -0.0412
 2782TIP3    H229762   2.761   6.638   3.023 -2.2409 -0.0751  0.6517
 2783TIP3   OH229763   3.228   4.974  13.844 -0.3027 -0.2315 -0.0577
 2783TIP3    H129764   3.205   4.907  13.780 -0.0638  0.0689 -0.4599
 2783TIP3    H229765   3.188   4.943  13.925 -1.7697  0.0710 -0.6433
 2784TIP3   OH229766   1.154   5.834   1.265  0.7316  0.3809 -0.2607
 2784TIP3    H129767   1.149   5.811   1.358  0.6674  0.6857 -0.1871
 2784TIP3    H229768   1.165   5.750   1.220 -0.4692  0.1087 -0.0779
 2785TIP3   OH229769   6.351   2.379   4.305 -0.5846 -0.4820 -0.2859
 2785TIP3    H129770   6.341   2.436   4.228 -1.1862 -1.6982 -1.1390
 2785TIP3    H229771   6.278   2.403   4.362 -1.0822 -0.6751 -0.8311
 2786TIP3   OH229772   2.380   6.213  11.473 -0.1287 -0.0692 -0.3862
 2786TIP3    H129773   2.451   6.173  11.422 -0.5401 -0.2846 -0.7977
 2786TIP3    H229774   2.423   6.247  11.551  0.2724 -1.1817 -0.0993
 2787TIP3   OH229775   4.396   6.323  13.569  0.0636 -0.1122  0.2357
 2787TIP3    H129776   4.304   6.330  13.595  0.5374  1.1467  1.7643
 2787TIP3    H229777   4.394   6.287  13.481 -1.9868  1.6786 -0.5316
 2788TIP3   OH229778   6.000   6.755  15.383 -0.4569  0.2614  0.5235
 2788TIP3    H129779   6.090   6.730  15.405 -0.9254 -2.4991 -0.3339
 2788TIP3    H229780   5.952   6.742  15.465 -0.8412 -2.8926 -0.0493
 2789TIP3   OH229781   3.151   1.154   2.483  0.4483  0.0074 -0.0402
 2789TIP3    H129782   3.090   1.226   2.499  2.6003  2.0689 -0.6238
 2789TIP3    H229783   3.166   1.116   2.570 -1.1146 -0.1205  0.2049
 2790TIP3   OH229784   0.673   1.131   4.134 -0.2885  0.1965 -0.1986
 2790TIP3    H129785   0.676   1.197   4.065  0.2542 -0.6559 -1.0141
 2790TIP3    H229786   0.764   1.100   4.141 -0.5028 -0.3326  0.3090
 2791TIP3   OH229787   6.666   1.254   4.630  0.0257  0.4180 -0.2598
 2791TIP3    H129788   6.639   1.174   4.673 -0.3601  0.2870 -0.7460
 2791TIP3    H229789   6.589   1.311   4.633 -0.2687  0.1138 -1.4695
 2792TIP3   OH229790   0.058   0.789  14.921 -0.4553  0.0656  0.0963
 2792TIP3    H129791   0.101   0.758  14.841 -0.0487 -0.4745  0.5126
 2792TIP3    H229792   0.026   0.709  14.964 -1.6443  0.4485 -0.0715
 2793TIP3   OH229793   4.650   1.896   5.020 -0.8350 -0.1561  0.5586
 2793TIP3    H129794   4.561   1.923   4.998 -0.6944  2.5410  2.7043
 2793TIP3    H229795   4.706   1.947   4.962 -0.6543 -0.6841  0.2660
 2794TIP3   OH229796   3.027   6.169   1.705  0.5851  0.3186 -0.3987
 2794TIP3    H129797   3.116   6.141   1.725  0.1603 -1.5721 -0.9678
 2794TIP3    H229798   3.022   6.258   1.739  3.0672  0.9505 -1.4222
 2795TIP3   OH229799   1.592   2.487  11.794  0.1208  0.1830  0.2953
 2795TIP3    H129800   1.639   2.569  11.777 -0.1199  0.2335 -0.1435
 2795TIP3    H229801   1.509   2.497  11.747  1.2088 -1.4307 -2.1916
 2796TIP3   OH229802   5.567   5.707  11.964 -0.1926 -0.1878  0.0974
 2796TIP3    H129803   5.600   5.723  12.053 -0.9754 -0.7513  0.5009
 2796TIP3    H229804   5.547   5.614  11.963 -0.0705 -0.2084 -0.7214
 2797TIP3   OH229805   6.011   4.396   0.548 -0.9553 -0.1118  0.2972
 2797TIP3    H129806   5.918   4.383   0.528 -0.7684 -1.1533  0.0362
 2797TIP3    H229807   6.057   4.342   0.484 -0.1792  0.0935  0.6713
 2798TIP3   OH229808   2.461   6.781  13.986  0.2657 -0.1864 -0.6226
 2798TIP3    H129809   2.521   6.736  14.046 -0.1566  0.5403  0.3753
 2798TIP3    H229810   2.506   6.781  13.902  0.4560 -2.0920 -0.5616
 2799TIP3   OH229811   4.557   2.935   3.394 -0.6730  1.0645  0.0546
 2799TIP3    H129812   4.602   2.924   3.478 -0.5655 -0.1178 -0.1351
 2799TIP3    H229813   4.611   2.996   3.345  0.3515  0.2224  0.1032
 2800TIP3   OH229814   4.840   1.532  16.827 -0.6961 -0.3941 -0.2053
 2800TIP3    H129815   4.806   1.443  16.837  0.4835 -1.0967 -1.9607
 2800TIP3    H229816   4.930   1.526  16.860 -1.4373  0.9009  2.3351
 2801TIP3   OH229817   0.245   1.898  16.452 -0.5439 -0.7054 -0.0421
 2801TIP3    H129818   0.301   1.827  16.480 -0.1012 -0.7125 -0.9182
 2801TIP3    H229819   0.222   1.877  16.362  0.6045  0.8603 -0.7482
 2802TIP3   OH229820   6.744   6.146  14.530  0.1241 -0.0211  0.2736
 2802TIP3    H129821   6.808   6.120  14.464  0.5286 -0.6041  0.8898
 2802TIP3    H229822   6.774   6.105  14.611  1.0923  2.7575  1.4435
 2803TIP3   OH229823   2.903   0.975  12.044 -0.0390  0.5199 -0.2010
 2803TIP3    H129824   2.991   0.998  12.071 -0.0666  0.1795  0.1806
 2803TIP3    H229825   2.904   0.984  11.948  0.2883  0.9152 -0.1629
 2804TIP3   OH229826   0.269   5.514  14.271 -0.0926  0.7672 -1.1475
 2804TIP3    H129827   0.178   5.541  14.257 -0.5618 -0.1387  0.0573
 2804TIP3    H229828   0.292   5.549  14.357  0.6259  0.7731 -1.3339
 2805TIP3   OH229829   4.147   5.742   5.372  0.1540 -0.2933 -0.2832
 2805TIP3    H129830   4.149   5.660   5.421  0.5696 -0.4911 -0.6211
 2805TIP3    H229831   4.198   5.804   5.424 -2.1555  0.4756  1.2009
 2806TIP3   OH229832   4.088   0.295  13.489  0.0102 -0.7981  0.1711
 2806TIP3    H129833   4.014   0.251  13.531 -1.6847 -0.0442 -1.8507
 2806TIP3    H229834   4.121   0.230  13.426 -0.2462 -0.4517 -0.3321
 2807TIP3   OH229835   1.826   1.600   5.206  0.2894  0.0735  0.1499
 2807TIP3    H129836   1.762   1.533   5.226  0.8158 -0.5282 -0.1395
 2807TIP3    H229837   1.819   1.613   5.111 -0.6951  1.3584  0.3658
 2808TIP3   OH229838   2.241   2.095   1.593  0.3079 -0.5544 -0.2986
 2808TIP3    H129839   2.187   2.056   1.662 -0.1205 -0.4049 -0.5436
 2808TIP3    H229840   2.190   2.082   1.513 -0.5590  1.7990 -0.1989
 2809TIP3   OH229841   3.549   1.883  12.703  0.1810 -0.0460  0.0015
 2809TIP3    H129842   3.513   1.801  12.669 -2.2852  1.1102 -0.4611
 2809TIP3    H229843   3.538   1.877  12.798 -1.3942  0.2884 -0.1303
 2810TIP3   OH229844   2.687   6.210   3.207 -0.0122  0.2858  0.5049
 2810TIP3    H129845   2.757   6.193   3.270 -0.5081  0.6099  1.1644
 2810TIP3    H229846   2.615   6.245   3.260 -0.9348 -0.6948 -0.0554
 2811TIP3   OH229847   6.107   1.054  15.764  0.5278  0.0991 -0.3369
 2811TIP3    H129848   6.178   1.040  15.702 -0.0224 -0.1732 -0.9173
 2811TIP3    H229849   6.069   0.967  15.776 -0.4318  0.4198 -0.9225
 2812TIP3   OH229850   5.002   3.551   4.201 -0.2999 -0.7927 -0.0568
 2812TIP3    H129851   4.929   3.489   4.196 -0.7556 -0.2414 -0.3510
 2812TIP3    H229852   5.076   3.503   4.163 -1.4931  0.0663 -3.8542
 2813TIP3   OH229853   3.178   0.659   3.483  0.0848 -0.7787 -0.1285
 2813TIP3    H129854   3.226   0.619   3.555  2.2561 -1.8702 -2.0227
 2813TIP3    H229855   3.141   0.739   3.519  1.0531 -1.3034  2.1632
 2814TIP3   OH229856   0.499   0.072   4.839 -0.0842  0.0573 -0.2777
 2814TIP3    H129857   0.552   0.042   4.766  1.2510  0.2740  0.5709
 2814TIP3    H229858   0.463  -0.007   4.877  1.3810 -0.3067  0.4236
 2815TIP3   OH229859   2.511   6.604  15.888  0.2047 -0.1274 -0.0049
 2815TIP3    H129860   2.427   6.597  15.845  0.0695  0.2470  0.1961
 2815TIP3    H229861   2.566   6.654  15.828 -0.5503  2.0825  1.0614
 2816TIP3   OH229862   5.129   5.481   2.264  0.0496 -0.8499  0.0578
 2816TIP3    H129863   5.095   5.447   2.346  2.5784 -0.3255  1.4172
 2816TIP3    H229864   5.084   5.565   2.252  0.4803 -0.3826  1.5492
 2817TIP3   OH229865   6.143   2.048  12.337 -0.8920 -0.5299 -0.2812
 2817TIP3    H129866   6.082   2.003  12.395  0.0044 -1.3887  0.0227
 2817TIP3    H229867   6.144   2.139  12.370 -1.7496 -0.5804 -0.0981
 2818TIP3   OH229868   4.557   1.643  12.534  0.2887  0.4388  0.1744
 2818TIP3    H129869   4.607   1.704  12.479  0.8790 -0.5458 -0.4001
 2818TIP3    H229870   4.613   1.566  12.542 -0.4625 -0.0533  0.8675
 2819TIP3   OH229871   4.890   3.206   6.466  0.6008 -0.0095 -0.1671
 2819TIP3    H129872   4.955   3.183   6.533  2.2739  0.6924 -1.4770
 2819TIP3    H229873   4.942   3.226   6.389 -1.2670 -0.7164 -1.6841
 2820TIP3   OH229874   3.796   0.409   4.149 -0.1593  0.4782 -0.2337
 2820TIP3    H129875   3.860   0.381   4.214 -1.7216 -0.8122  0.8356
 2820TIP3    H229876   3.843   0.407   4.066  1.4095  0.4604  0.6059
 2821TIP3   OH229877   4.400   2.933  14.266 -0.6341 -0.8038  0.6538
 2821TIP3    H129878   4.306   2.941  14.251 -0.6902 -2.3185 -0.0027
 2821TIP3    H229879   4.414   2.966  14.355 -1.7908 -0.6579  0.7925
 2822TIP3   OH229880   2.887   2.302  15.406 -0.2130  0.1146  0.2917
 2822TIP3    H129881   2.935   2.226  15.373  1.1299 -0.2366  2.8200
 2822TIP3    H229882   2.932   2.378  15.369  0.3901 -0.2828  0.2035
 2823TIP3   OH229883   2.139   1.896   0.302  0.0276  0.2856  0.2446
 2823TIP3    H129884   2.143   1.803   0.283  0.7578  0.5249 -0.8441
 2823TIP3    H229885   2.083   1.902   0.379 -1.0467 -0.9393 -0.4066
 2824TIP3   OH229886   4.068   6.637   3.334 -0.3309 -0.2004  0.2275
 2824TIP3    H129887   4.160   6.648   3.360 -0.4858  0.3119  0.5725
 2824TIP3    H229888   4.046   6.717   3.287 -0.7045 -0.1685  0.4496
 2825TIP3   OH229889   6.428   2.972   0.871  0.2325  0.0639 -0.4254
 2825TIP3    H129890   6.442   2.925   0.789 -0.2998 -1.7225  0.4469
 2825TIP3    H229891   6.336   2.953   0.893  0.7204 -0.5880  1.1945
 2826TIP3   OH229892   0.723   5.013   5.461 -0.0415  0.9270  0.3323
 2826TIP3    H129893   0.765   5.097   5.447  0.8472  0.2712 -1.1653
 2826TIP3    H229894   0.630   5.030   5.444  0.0636  1.6795  0.4755
 2827TIP3   OH229895   1.141   5.453  15.068  0.6332 -0.0439 -0.0089
 2827TIP3    H129896   1.223   5.445  15.116  0.2178 -0.0614  0.7064
 2827TIP3    H229897   1.082   5.500  15.127  0.4991  1.0648 -0.9907
 2828TIP3   OH229898   2.568   0.778  15.132 -0.4342 -0.6792 -0.2903
 2828TIP3    H129899   2.542   0.689  15.109 -2.5007 -0.4243  0.8282
 2828TIP3    H229900   2.585   0.821  15.048 -1.5340 -1.5403 -0.9773
 2829TIP3   OH229901   2.229   3.211  16.971 -0.0754  0.1383 -0.0360
 2829TIP3    H129902   2.157   3.218  17.034  0.0416 -0.7182  0.1987
 2829TIP3    H229903   2.308   3.230  17.022 -0.0612  0.3238 -0.1255
 2830TIP3   OH229904   2.846   1.292   4.297 -0.1284  0.2424  0.4008
 2830TIP3    H129905   2.786   1.321   4.228 -1.4230 -1.7115  0.6131
 2830TIP3    H229906   2.875   1.373   4.339  2.4586  1.7487 -3.6976
 2831TIP3   OH229907   5.097   5.363   2.509  0.6043 -0.0964  0.2698
 2831TIP3    H129908   5.130   5.388   2.596  1.2893 -1.7878  0.5378
 2831TIP3    H229909   5.162   5.301   2.476 -1.0120 -1.5712 -0.2807
 2832TIP3   OH229910   6.283   4.608   2.608  0.1317  0.4734 -0.2602
 2832TIP3    H129911   6.328   4.524   2.599 -0.3543  0.1571  0.1755
 2832TIP3    H229912   6.250   4.627   2.520 -0.5788 -0.2764 -0.1722
 2833TIP3   OH229913   3.035   1.633   6.186  0.0031  0.7276  0.2028
 2833TIP3    H129914   2.999   1.685   6.258  1.5381  0.4462  1.2160
 2833TIP3    H229915   3.124   1.667   6.174  1.3338 -2.0262  1.3527
 2834TIP3   OH229916   4.537   0.336  14.280 -0.1554  0.0593 -0.6537
 2834TIP3    H129917   4.457   0.342  14.332  0.4306 -0.9722  0.4451
 2834TIP3    H229918   4.509   0.300  14.196 -0.7727 -1.0346 -0.0126
 2835TIP3   OH229919   1.797   5.954   3.558 -0.2974  0.5027  0.4217
 2835TIP3    H129920   1.860   5.987   3.622  0.7788  0.3815 -0.5394
 2835TIP3    H229921   1.798   5.859   3.570 -0.4431  0.5146  0.5318
 2836TIP3   OH229922   2.489   3.643  15.256  0.1019  0.3389 -0.2209
 2836TIP3    H129923   2.560   3.601  15.207  0.5510 -0.8668  1.3841
 2836TIP3    H229924   2.532   3.709  15.310 -0.5823  2.9100 -2.5911
 2837TIP3   OH229925   1.714   0.068   4.983  0.3465  0.6056 -0.5264
 2837TIP3    H129926   1.696   0.159   5.008  0.3773  1.0414 -2.0018
 2837TIP3    H229927   1.637   0.020   5.015  0.9682  0.8677  1.5265
 2838TIP3   OH229928   4.781   2.774   4.449  0.1080  0.0813 -0.2430
 2838TIP3    H129929   4.723   2.848   4.436  2.2881  1.9176 -0.0777
 2838TIP3    H229930   4.758   2.740   4.535 -1.0799  0.3955 -0.4259
 2839TIP3   OH229931   1.494   6.352   0.530 -0.1806 -0.2364 -0.6559
 2839TIP3    H129932   1.549   6.287   0.486  1.3180  1.3934 -1.2913
 2839TIP3    H229933   1.420   6.365   0.471  1.1821  1.0057 -2.1620
 2840TIP3   OH229934   5.194   3.947   1.165 -0.0597  0.0391 -0.5046
 2840TIP3    H129935   5.271   3.891   1.153 -0.9623 -1.3374 -0.0766
 2840TIP3    H229936   5.139   3.900   1.227 -0.9724  1.3051 -0.3081
 2841TIP3   OH229937   6.183   2.770   4.268 -0.1234  0.1134 -0.3872
 2841TIP3    H129938   6.229   2.687   4.260  0.4050  0.2938  0.6345
 2841TIP3    H229939   6.093   2.746   4.290  0.0463 -0.1882 -0.0194
 2842TIP3   OH229940   0.618   3.169   2.502  0.0918  0.7208 -0.5578
 2842TIP3    H129941   0.680   3.129   2.562 -1.9896 -2.5116 -0.2883
 2842TIP3    H229942   0.595   3.252   2.542  2.5634  1.0271  0.3885
 2843TIP3   OH229943   5.294   6.109  13.002 -0.1503  0.2219 -0.2927
 2843TIP3    H129944   5.330   6.197  13.007  0.1999  0.0377  0.5444
 2843TIP3    H229945   5.358   6.060  12.950  0.2761  0.1645  0.2764
 2844TIP3   OH229946   4.915   2.775   5.266  0.4778 -0.7818 -0.9436
 2844TIP3    H129947   4.979   2.764   5.336  2.4671 -2.3021 -2.8617
 2844TIP3    H229948   4.844   2.715   5.290  1.0169 -1.1193 -0.1266
 2845TIP3   OH229949   0.639   2.636  11.245 -0.3613 -0.2737 -0.0681
 2845TIP3    H129950   0.624   2.627  11.151  0.5430  2.2348 -0.5124
 2845TIP3    H229951   0.575   2.701  11.274 -0.9627 -1.3636  1.1983
 2846TIP3   OH229952   3.880   4.462   4.472  0.3813 -0.1225  0.1026
 2846TIP3    H129953   3.808   4.426   4.523  0.3291 -0.7279 -0.3911
 2846TIP3    H229954   3.839   4.502   4.396  0.4038  1.3655  0.8388
 2847TIP3   OH229955   4.879   4.894   5.859 -0.0604  0.0015  0.1321
 2847TIP3    H129956   4.871   4.980   5.900  1.0094 -0.4092  1.2497
 2847TIP3    H229957   4.938   4.908   5.785 -1.4108  0.5892 -0.8916
 2848TIP3   OH229958   4.934   5.752  11.759  0.1431  0.6889 -0.3833
 2848TIP3    H129959   4.961   5.839  11.731  0.5229  0.9342  0.6954
 2848TIP3    H229960   4.851   5.737  11.713 -0.2237  1.8626 -0.1413
 2849TIP3   OH229961   4.660   1.696   0.806 -0.4628  0.1944 -0.4387
 2849TIP3    H129962   4.735   1.699   0.746 -1.2487  0.3931 -1.4348
 2849TIP3    H229963   4.699   1.689   0.893  0.7067 -0.5555 -0.9957
 2850TIP3   OH229964   5.442   6.392   4.391  0.4317  0.1964 -0.3670
 2850TIP3    H129965   5.415   6.339   4.315  1.4396  1.1941 -1.4601
 2850TIP3    H229966   5.474   6.473   4.353  0.6378  0.8673  1.1763
 2851TIP3   OH229967   0.389   5.509   4.747 -0.0501 -0.0583  0.1303
 2851TIP3    H129968   0.483   5.519   4.733  0.2151 -0.0459  1.7064
 2851TIP3    H229969   0.374   5.415   4.744  0.3623 -0.2036  1.6760
 2852TIP3   OH229970   3.616   1.478   6.080 -0.1260  0.5017  0.1799
 2852TIP3    H129971   3.534   1.430   6.077  0.6750 -0.8806 -0.7923
 2852TIP3    H229972   3.611   1.529   6.161 -1.7376  0.1006  0.3664
 2853TIP3   OH229973   4.160   1.628   0.750 -0.2789 -0.2466  0.2185
 2853TIP3    H129974   4.237   1.574   0.732  0.4026  0.7886 -0.0315
 2853TIP3    H229975   4.196   1.714   0.773 -1.2447 -0.3662  2.4904
 2854TIP3   OH229976   0.002   3.433   1.093 -0.3246  0.0643 -0.8906
 2854TIP3    H129977   0.057   3.498   1.049  1.1748  0.2112  1.0737
 2854TIP3    H229978  -0.049   3.484   1.156 -0.0250 -0.5196 -0.1656
 2855TIP3   OH229979   4.882   5.646   2.229  0.0405  0.4454 -0.6719
 2855TIP3    H129980   4.826   5.589   2.176  0.6008 -0.0398 -0.7484
 2855TIP3    H229981   4.822   5.710   2.266 -0.4135  0.5844 -1.6149
 2856TIP3   OH229982   2.010   3.481   6.461 -0.4808 -0.5590 -0.1318
 2856TIP3    H129983   2.066   3.406   6.482  0.2983 -0.3415 -1.3266
 2856TIP3    H229984   1.921   3.445   6.462 -0.1186 -1.5111 -0.6886
 2857TIP3   OH229985   3.853   6.782  17.092  0.4773 -0.0330 -0.0723
 2857TIP3    H129986   3.889   6.834  17.020 -1.2842  0.7669 -0.4412
 2857TIP3    H229987   3.793   6.721  17.050 -0.4610  0.3417  0.6804
 2858TIP3   OH229988   6.692   2.869   1.918  0.4904  0.1127 -0.1818
 2858TIP3    H129989   6.609   2.825   1.898  1.4677 -1.1268 -1.7394
 2858TIP3    H229990   6.735   2.879   1.833  2.0799  0.4503  0.6287
 2859TIP3   OH229991   3.273   6.484  15.595 -0.1723 -0.5079 -0.2121
 2859TIP3    H129992   3.304   6.567  15.631  1.1675 -0.8729 -0.4905
 2859TIP3    H229993   3.351   6.443  15.557 -0.6555 -2.2359  0.5722
 2860TIP3   OH229994   2.555   5.329  12.525  0.1805 -0.3978  0.4837
 2860TIP3    H129995   2.502   5.324  12.445 -0.9754  1.6367  1.0784
 2860TIP3    H229996   2.641   5.359  12.494  0.4652 -1.8730 -0.2438
 2861TIP3   OH229997   1.579   0.241   6.045 -0.0856 -0.1552  0.3592
 2861TIP3    H129998   1.607   0.150   6.056  0.6052  0.0956  0.7874
 2861TIP3    H229999   1.583   0.256   5.951 -0.1726 -0.5573  0.2874
 2862TIP3   OH230000   0.693   2.089  13.682  0.0517  0.8598  0.1063
 2862TIP3    H130001   0.770   2.069  13.630 -2.1567 -0.4099 -3.0293
 2862TIP3    H230002   0.643   2.008  13.684 -1.1742  1.5808  2.1500
 2863TIP3   OH230003   2.018   6.320  12.851  0.1247 -0.4315 -0.3744
 2863TIP3    H130004   1.998   6.230  12.876  0.2281 -0.4421 -0.3245
 2863TIP3    H230005   1.935   6.356  12.820  0.1341 -0.6160 -0.6161
 2864TIP3   OH230006   3.727   5.462   0.158  0.3133  0.2730 -0.4831
 2864TIP3    H130007   3.772   5.427   0.081  1.4852  0.0610  0.2796
 2864TIP3    H230008   3.677   5.536   0.124  1.4004  0.6459 -1.3335
 2865TIP3   OH230009   1.464   1.039   5.735 -0.0764 -0.5016  0.3683
 2865TIP3    H130010   1.404   0.965   5.739  0.2925 -0.8084  0.2521
 2865TIP3    H230011   1.514   1.033   5.817 -1.1391  0.5589  1.1346
 2866TIP3   OH230012   1.999   6.586   1.714 -0.6224 -0.7237 -0.0134
 2866TIP3    H130013   1.990   6.561   1.806  0.4040 -0.3327  0.2050
 2866TIP3    H230014   2.086   6.626   1.708 -1.1337  0.3257 -0.9068
 2867TIP3   OH230015   4.508   6.479  15.504 -0.5222 -0.5069  0.2982
 2867TIP3    H130016   4.486   6.572  15.511  0.3958 -0.0455 -2.1190
 2867TIP3    H230017   4.423   6.435  15.493 -0.8608  0.2261 -0.0400
 2868TIP3   OH230018   5.390   3.224   6.111 -0.5444  0.3264  1.2525
 2868TIP3    H130019   5.433   3.257   6.032  1.0774  0.6380  2.2123
 2868TIP3    H230020   5.398   3.129   6.104 -1.0224  0.3199  0.7261
 2869TIP3   OH230021   5.659   0.531   3.905 -0.3224 -0.4226 -0.9921
 2869TIP3    H130022   5.641   0.599   3.970 -0.3053  0.7790 -2.2069
 2869TIP3    H230023   5.588   0.468   3.916 -1.3566  0.6995 -1.0221
 2870TIP3   OH230024   5.979   3.461   3.516 -0.2175  0.3683 -0.0301
 2870TIP3    H130025   5.980   3.529   3.583  0.1686 -0.1151  0.4608
 2870TIP3    H230026   5.911   3.490   3.454 -2.3427 -0.3490  1.8178
 2871TIP3   OH230027   3.759   5.214   5.215  0.3874 -0.2392  0.5000
 2871TIP3    H130028   3.676   5.236   5.258 -0.5549  0.0798 -1.3704
 2871TIP3    H230029   3.735   5.149   5.149  1.6707 -0.3071  0.0775
 2872TIP3   OH230030   5.527   3.231   5.331  0.3351 -0.4609  0.2481
 2872TIP3    H130031   5.571   3.171   5.271  2.0204  0.7615  0.1675
 2872TIP3    H230032   5.592   3.300   5.347 -0.0287 -0.7079  3.4825
 2873TIP3   OH230033   4.115   3.457   3.883  0.3377 -0.1208 -0.1218
 2873TIP3    H130034   4.128   3.551   3.870 -0.6605  0.1876  0.9563
 2873TIP3    H230035   4.163   3.416   3.811  0.8912  1.2034 -0.5349
 2874TIP3   OH230036   0.339   3.941  17.092  0.4283  0.0167 -0.4156
 2874TIP3    H130037   0.327   3.873  17.158 -0.8971 -0.0620 -0.7142
 2874TIP3    H230038   0.403   4.001  17.131 -1.1268  0.5781  1.4591
 2875TIP3   OH230039   4.056   0.448  15.350  0.2921 -0.2288  0.2057
 2875TIP3    H130040   4.006   0.476  15.273  0.1411 -0.1765  0.3221
 2875TIP3    H230041   4.095   0.365  15.324 -0.8037 -0.8617  0.5068
 2876TIP3   OH230042   6.349   4.213  15.340  0.1419  0.0779 -0.8608
 2876TIP3    H130043   6.431   4.164  15.339 -0.3514 -0.8625  1.1516
 2876TIP3    H230044   6.364   4.285  15.402 -0.5247 -0.0523 -0.5366
 2877TIP3   OH230045   5.465   2.270   0.429  1.1477  0.1129 -0.2206
 2877TIP3    H130046   5.458   2.330   0.355  1.2819 -0.1035 -0.4101
 2877TIP3    H230047   5.522   2.199   0.397 -2.5818 -2.5731 -1.6288
 2878TIP3   OH230048   5.356   3.185   2.046 -0.3488  0.5800  0.1942
 2878TIP3    H130049   5.377   3.132   1.969  0.2242  1.3961 -0.2178
 2878TIP3    H230050   5.439   3.194   2.093 -0.0499  2.5178 -0.6293
 2879TIP3   OH230051   3.435   6.627  16.340  0.0510  0.3398  0.1313
 2879TIP3    H130052   3.512   6.570  16.332 -0.4371 -0.4006  0.6037
 2879TIP3    H230053   3.427   6.668  16.254 -0.5773 -1.6016 -0.7924
 2880TIP3   OH230054   4.055   4.447   3.197 -0.3339  0.5614 -0.0085
 2880TIP3    H130055   3.991   4.429   3.265  0.3998 -2.5520  0.0173
 2880TIP3    H230056   4.034   4.385   3.127  2.2339 -0.1776 -0.2297
 2881TIP3   OH230057   3.867   0.514   1.250  0.5226 -0.7139 -0.4279
 2881TIP3    H130058   3.778   0.490   1.224 -0.1833 -1.2861  2.2138
 2881TIP3    H230059   3.883   0.464   1.330  1.9555  1.8217  1.0186
 2882TIP3   OH230060   1.250   3.716   2.449 -0.0639 -0.7529 -1.0175
 2882TIP3    H130061   1.302   3.797   2.446  0.5783 -1.1886 -2.7390
 2882TIP3    H230062   1.160   3.745   2.436 -0.1257 -0.1393  0.5071
 2883TIP3   OH230063   6.467   6.112  15.014 -0.0214 -0.6714 -0.0572
 2883TIP3    H130064   6.418   6.191  15.037  1.0500 -0.1701  0.6370
 2883TIP3    H230065   6.460   6.106  14.918 -2.1868 -1.1729  0.0985
 2884TIP3   OH230066   2.359   1.032   0.724  0.0527  0.3486 -0.5657
 2884TIP3    H130067   2.362   1.026   0.628 -1.0756 -1.8062 -0.5184
 2884TIP3    H230068   2.405   0.955   0.755 -2.8432 -1.0838  0.5174
 2885TIP3   OH230069   6.050   1.303  16.932 -0.4343  0.0916 -0.0598
 2885TIP3    H130070   6.094   1.357  16.998 -0.7397  0.3707 -0.0790
 2885TIP3    H230071   6.021   1.225  16.981  2.5376 -1.4787 -0.6138
 2886TIP3   OH230072   3.021   4.191   2.098 -0.2342 -0.1623  0.3525
 2886TIP3    H130073   2.969   4.111   2.096  0.0178 -0.3408 -2.2356
 2886TIP3    H230074   2.973   4.249   2.158 -2.6593 -0.8284 -0.8255
 2887TIP3   OH230075   5.775   3.356  15.664 -0.3032 -0.4914 -0.0962
 2887TIP3    H130076   5.774   3.377  15.570  1.1012 -0.5338 -0.1536
 2887TIP3    H230077   5.761   3.262  15.668  0.8736 -0.6967 -0.3725
 2888TIP3   OH230078   5.088   5.161   0.787 -0.0300 -0.4861  0.2510
 2888TIP3    H130079   5.035   5.144   0.710  1.2012 -1.7770 -0.3490
 2888TIP3    H230080   5.111   5.075   0.821 -0.7765  0.0468  2.2620
 2889TIP3   OH230081   6.780   4.737  16.806 -0.2180  0.4627  0.0577
 2889TIP3    H130082   6.698   4.690  16.824 -0.4873  0.3859 -1.2559
 2889TIP3    H230083   6.848   4.670  16.811 -0.3602  0.3283  0.1883
 2890TIP3   OH230084   1.684   5.422   2.888  0.4032 -0.6329 -0.1106
 2890TIP3    H130085   1.742   5.474   2.943 -1.7466  0.0825  1.6180
 2890TIP3    H230086   1.647   5.485   2.826  1.7992 -1.1951 -1.6058
 2891TIP3   OH230087   3.228   2.015   1.347  0.3576 -0.5438  0.2624
 2891TIP3    H130088   3.283   2.068   1.290  0.8827  1.5404  2.5197
 2891TIP3    H230089   3.244   1.925   1.319  0.7566  0.3183 -2.6157
 2892TIP3   OH230090   3.425   4.030   0.615 -0.1032  0.2549  0.1145
 2892TIP3    H130091   3.454   4.097   0.676 -2.4068  0.6078  0.9449
 2892TIP3    H230092   3.349   3.990   0.658 -0.7534 -0.6692 -1.7679
 2893TIP3   OH230093   4.795   1.740   5.221 -0.2230 -0.0713  0.0574
 2893TIP3    H130094   4.721   1.724   5.279 -1.0238 -0.8581 -1.1373
 2893TIP3    H230095   4.775   1.824   5.180  1.0720  1.2465  1.9404
 2894TIP3   OH230096   5.696   4.026  11.865 -0.2119 -0.4480  0.0967
 2894TIP3    H130097   5.616   4.041  11.815 -1.0149 -2.0230  0.8562
 2894TIP3    H230098   5.745   3.963  11.814  1.0099  1.1424 -0.7982
 2895TIP3   OH230099   1.822   1.422  12.688  0.4107 -0.6871  0.7409
 2895TIP3    H130100   1.794   1.364  12.617  2.3442  0.6573 -1.2895
 2895TIP3    H230101   1.913   1.397  12.705  0.0302 -0.8710  2.7008
 2896TIP3   OH230102   2.570   0.654   3.854 -0.4040  0.4507 -0.0541
 2896TIP3    H130103   2.537   0.726   3.907 -2.0901 -0.9009  0.8378
 2896TIP3    H230104   2.616   0.598   3.915 -1.5845 -0.6620 -0.1388
 2897TIP3   OH230105   1.095   2.755  16.595  0.0714 -0.7780 -0.2321
 2897TIP3    H130106   1.066   2.795  16.513 -1.1730 -2.2382 -0.5416
 2897TIP3    H230107   1.028   2.690  16.615  1.3741 -1.8251  0.9084
 2898TIP3   OH230108   6.308   5.401   2.680 -0.5928 -0.3411  0.5345
 2898TIP3    H130109   6.357   5.477   2.710 -2.8509  0.9420  1.2464
 2898TIP3    H230110   6.337   5.329   2.737  0.3525  0.3867  0.9893
 2899TIP3   OH230111   2.223   6.167  12.584 -0.1047 -0.3794 -0.2644
 2899TIP3    H130112   2.209   6.086  12.536  0.9751 -0.3824 -0.6077
 2899TIP3    H230113   2.211   6.143  12.676  2.4450 -1.5200 -0.1455
 2900TIP3   OH230114   6.334   0.622   3.819 -0.1133 -0.4641  0.4525
 2900TIP3    H130115   6.370   0.587   3.737  1.2138  1.1306  0.2947
 2900TIP3    H230116   6.321   0.545   3.874  0.2155 -1.4517 -0.7858
 2901TIP3   OH230117   2.675   5.423  13.089  0.4129  0.4768  0.0271
 2901TIP3    H130118   2.704   5.513  13.079  2.2715 -0.0753  0.1594
 2901TIP3    H230119   2.645   5.418  13.180 -0.4819  1.1570 -0.2214
 2902TIP3   OH230120   5.613   2.342   2.102  0.7662 -0.1697 -1.0427
 2902TIP3    H130121   5.633   2.302   2.017  1.3216 -2.0843 -0.0528
 2902TIP3    H230122   5.645   2.280   2.166 -1.1518  0.4510  0.6114
 2903TIP3   OH230123   1.539   0.296   3.247 -0.4500 -0.0346 -0.0284
 2903TIP3    H130124   1.542   0.302   3.152  1.6716  0.2694  0.0103
 2903TIP3    H230125   1.613   0.348   3.277 -0.3268 -1.1441  1.7329
 2904TIP3   OH230126   0.177   0.354  16.899  0.1569 -0.0180  0.1705
 2904TIP3    H130127   0.263   0.338  16.860  0.0894  2.0022 -0.9837
 2904TIP3    H230128   0.193   0.421  16.965 -0.4993  0.2495  0.0649
 2905TIP3   OH230129   1.455   1.980   5.488 -0.0395 -0.6334  0.2202
 2905TIP3    H130130   1.493   2.019   5.566  0.3066  1.1052 -0.7848
 2905TIP3    H230131   1.360   1.988   5.502  0.0103 -0.6987  0.6259
 2906TIP3   OH230132   0.179   1.876   0.859 -0.1545 -0.3225 -0.4799
 2906TIP3    H130133   0.165   1.848   0.769  1.1575 -1.1255 -0.4653
 2906TIP3    H230134   0.210   1.797   0.904  1.2691  0.5621  0.1582
 2907TIP3   OH230135   0.916   3.825   0.821  0.6310 -0.4071 -0.3468
 2907TIP3    H130136   0.876   3.883   0.885  1.7743 -1.3805  1.3202
 2907TIP3    H230137   0.989   3.876   0.786  0.9827 -0.4332  0.3278
 2908TIP3   OH230138   5.177   0.586  15.557  0.5243 -0.0130 -0.3762
 2908TIP3    H130139   5.203   0.605  15.647 -0.8439 -1.4567  0.3563
 2908TIP3    H230140   5.152   0.494  15.557 -0.4105  0.1905 -2.0231
 2909TIP3   OH230141   3.550   3.609  12.133  0.2722  0.1893  0.2637
 2909TIP3    H130142   3.466   3.568  12.153 -0.1673  0.5039 -0.8375
 2909TIP3    H230143   3.615   3.541  12.151 -0.3560 -0.6368 -0.4709
 2910TIP3   OH230144   1.950   4.373  15.153 -0.2164  0.4594  0.1391
 2910TIP3    H130145   1.957   4.357  15.247  3.8012 -0.4625 -0.1272
 2910TIP3    H230146   1.971   4.466  15.143 -1.9886  0.9045  0.1520
 2911TIP3   OH230147   5.900   6.088  13.636 -0.9878 -0.2279  0.2260
 2911TIP3    H130148   5.921   5.999  13.664  0.5919 -0.2911 -0.9925
 2911TIP3    H230149   5.921   6.142  13.712 -0.3144 -0.7474  0.4269
 2912TIP3   OH230150   3.169   0.550  16.170 -0.1705  0.2551  0.5229
 2912TIP3    H130151   3.253   0.525  16.209 -0.5708 -1.5901  0.2607
 2912TIP3    H230152   3.135   0.617  16.230  1.0245  0.3324  1.1590
 2913TIP3   OH230153   5.626   2.685  14.491  0.1016  0.0440 -0.1876
 2913TIP3    H130154   5.623   2.589  14.494  0.1221  0.0415 -0.2395
 2913TIP3    H230155   5.660   2.711  14.576  2.1470 -0.0883 -0.9015
 2914TIP3   OH230156   0.847   1.094   4.896 -0.3724  0.0426  0.1814
 2914TIP3    H130157   0.799   1.158   4.947  0.5986  0.5114  0.5316
 2914TIP3    H230158   0.801   1.090   4.812  0.3272  2.2208 -0.3681
 2915TIP3   OH230159   4.615   0.485  15.234  0.9198  0.1334 -0.3044
 2915TIP3    H130160   4.669   0.407  15.221  0.3276 -1.0018  3.0029
 2915TIP3    H230161   4.526   0.456  15.213  0.9486  0.5462 -1.0217
 2916TIP3   OH230162   6.279   0.478  11.693  0.2336 -0.2117  0.2232
 2916TIP3    H130163   6.209   0.543  11.694 -1.1078 -1.5859 -0.1784
 2916TIP3    H230164   6.351   0.519  11.646 -0.8204  0.7283 -0.5965
 2917TIP3   OH230165   3.104   5.716  12.489  0.0179  0.1790  0.3618
 2917TIP3    H130166   3.189   5.731  12.448 -0.7174  1.4240 -0.7873
 2917TIP3    H230167   3.105   5.624  12.514  1.3111 -0.0790 -0.5475
 2918TIP3   OH230168   5.130   4.375   1.203  0.5319  0.0065 -0.4117
 2918TIP3    H130169   5.119   4.460   1.246 -0.4474 -0.5239  0.4229
 2918TIP3    H230170   5.151   4.315   1.274 -0.5261 -0.7767 -0.7394
 2919TIP3   OH230171   5.860   0.741  11.716 -0.2104  0.9561 -0.1757
 2919TIP3    H130172   5.782   0.766  11.665 -0.1576  0.0822 -0.7100
 2919TIP3    H230173   5.828   0.728  11.805 -0.4362  1.8321 -0.1224
 2920TIP3   OH230174   3.033   2.893   1.218  0.5131 -0.4781  0.5662
 2920TIP3    H130175   3.108   2.910   1.275  1.4441 -0.4329 -0.6301
 2920TIP3    H230176   3.072   2.871   1.134 -0.8359 -0.1602 -0.1632
 2921TIP3   OH230177   1.302   5.464   0.044  0.0220  0.2711  0.1505
 2921TIP3    H130178   1.310   5.432  -0.046  1.2143 -0.0585  0.3580
 2921TIP3    H230179   1.322   5.557   0.038  0.9884  0.0743  0.1922
 2922TIP3   OH230180   3.754   3.288   1.595 -0.0335 -0.1557 -0.3698
 2922TIP3    H130181   3.801   3.256   1.518 -0.9731  1.1842 -1.5518
 2922TIP3    H230182   3.670   3.243   1.592 -0.0898 -0.0648 -0.1546
 2923TIP3   OH230183   2.445   6.629   5.464  0.6770 -0.4009 -0.2705
 2923TIP3    H130184   2.400   6.572   5.402 -1.3193  1.4699 -0.6651
 2923TIP3    H230185   2.501   6.685   5.410 -0.8996  1.0849 -0.4275
 2924TIP3   OH230186   3.792   6.420   0.421  0.1343 -0.7731 -0.1243
 2924TIP3    H130187   3.751   6.464   0.496 -0.0192 -2.0941  0.5986
 2924TIP3    H230188   3.837   6.345   0.459  1.5375 -0.5060 -1.1648
 2925TIP3   OH230189   2.169   4.641   0.538 -0.2700  0.0790  0.0082
 2925TIP3    H130190   2.129   4.557   0.560 -1.7918  0.5785 -0.7434
 2925TIP3    H230191   2.130   4.704   0.599  2.7439 -0.0653  2.3381
 2926TIP3   OH230192   6.473   6.550  16.820  0.5588  0.3913 -0.8460
 2926TIP3    H130193   6.515   6.632  16.797  0.3591  0.0322 -2.7075
 2926TIP3    H230194   6.399   6.544  16.759  0.0378 -0.7340 -0.1305
 2927TIP3   OH230195   4.664   5.893  11.135  0.2954  0.3945 -0.1663
 2927TIP3    H130196   4.647   5.902  11.229  0.3350 -1.6770  0.0855
 2927TIP3    H230197   4.665   5.798  11.120  3.3085  0.5552 -1.7026
 2928TIP3   OH230198   0.325   1.767   1.821 -0.2825  0.2047 -0.0027
 2928TIP3    H130199   0.405   1.773   1.872  1.3852 -3.7819 -1.7281
 2928TIP3    H230200   0.315   1.854   1.781  1.0307  1.9200  3.0838
 2929TIP3   OH230201   5.724   5.183  12.302 -0.0766 -0.4754  0.0960
 2929TIP3    H130202   5.705   5.110  12.361  0.2290 -0.2815  0.4421
 2929TIP3    H230203   5.740   5.143  12.217  0.5327 -0.8501  0.3805
 2930TIP3   OH230204   4.541   3.909   0.412  0.4546  0.3095 -0.2523
 2930TIP3    H130205   4.562   3.998   0.384  0.1601  0.5057  0.1377
 2930TIP3    H230206   4.502   3.920   0.499  1.7071 -0.3225  0.4179
 2931TIP3   OH230207   6.454   2.711   0.761  0.5300 -0.4099 -0.3081
 2931TIP3    H130208   6.447   2.764   0.682  0.0774 -1.4856 -1.0080
 2931TIP3    H230209   6.364   2.684   0.780  0.7081 -0.6206  0.2519
 2932TIP3   OH230210   6.739   5.581  16.040 -0.1727  0.2388  0.2852
 2932TIP3    H130211   6.758   5.496  16.001 -0.2332  0.6073 -0.5654
 2932TIP3    H230212   6.739   5.642  15.966  0.8756  1.1561  1.0062
 2933TIP3   OH230213   5.059   5.889   1.233  0.2427 -0.7336 -0.1319
 2933TIP3    H130214   5.022   5.815   1.282  1.6747 -1.1748  0.3283
 2933TIP3    H230215   5.102   5.849   1.158 -0.6689 -0.1760 -0.9816
 2934TIP3   OH230216   3.022   0.574   6.396  0.3445 -0.6920  0.3995
 2934TIP3    H130217   2.984   0.650   6.440 -0.7755 -0.9066 -0.1724
 2934TIP3    H230218   2.993   0.499   6.449  0.9777 -0.7713  0.6410
 2935TIP3   OH230219   5.006   6.151   1.176 -0.3884  0.5121  0.0687
 2935TIP3    H130220   5.090   6.175   1.138 -0.8810 -0.1754 -1.5522
 2935TIP3    H230221   5.017   6.060   1.204 -0.2670  0.7746  0.9071
 2936TIP3   OH230222   4.000   1.022  14.905 -0.1728  0.4756 -0.4700
 2936TIP3    H130223   3.925   1.052  14.957 -0.0453  1.9917 -1.1164
 2936TIP3    H230224   3.990   0.927  14.902 -0.6851  0.4114  1.5533
 2937TIP3   OH230225   4.762   1.622  11.670 -0.4467  0.1635 -0.0559
 2937TIP3    H130226   4.798   1.711  11.663 -1.5339  0.9683  2.9968
 2937TIP3    H230227   4.839   1.565  11.666  0.4245  1.3298 -0.5793
 2938TIP3   OH230228   5.323   6.201  12.638  0.5037 -0.3583 -0.4961
 2938TIP3    H130229   5.390   6.237  12.581  0.4703  1.1265  0.3597
 2938TIP3    H230230   5.371   6.174  12.717  0.1870  0.1947 -0.1059
 2939TIP3   OH230231   5.722   2.329  17.088 -0.7365  0.5235  0.5339
 2939TIP3    H130232   5.751   2.345  17.177  0.5135 -0.9875  0.4356
 2939TIP3    H230233   5.797   2.354  17.033 -0.8549 -0.2040  0.0306
 2940TIP3   OH230234   0.460   2.070   3.939 -0.0096 -0.1278  0.0601
 2940TIP3    H130235   0.520   2.142   3.921  0.8243 -0.0085  2.9724
 2940TIP3    H230236   0.373   2.111   3.939  0.2840  0.5034 -0.1265
 2941TIP3   OH230237   1.053   6.660  12.665  0.6116  0.6585  0.0150
 2941TIP3    H130238   1.126   6.721  12.662  0.9217  0.3890  1.3535
 2941TIP3    H230239   1.093   6.576  12.690 -0.1263  0.4982  0.7235
 2942TIP3   OH230240   4.154   2.278  14.575 -0.2296 -0.3390  0.3464
 2942TIP3    H130241   4.064   2.308  14.559 -0.7258 -0.9682  1.7778
 2942TIP3    H230242   4.183   2.244  14.490 -2.1060 -1.9843  0.2879
 2943TIP3   OH230243   2.232   2.107   4.269  0.0875  0.6505  0.4728
 2943TIP3    H130244   2.197   2.170   4.331 -0.9924  0.2938  0.2507
 2943TIP3    H230245   2.202   2.138   4.183 -0.2843 -0.0437  0.3460
 2944TIP3   OH230246   2.717   1.457  12.825  0.0139  0.2006  0.4871
 2944TIP3    H130247   2.697   1.369  12.793  3.0904  0.3257 -2.3745
 2944TIP3    H230248   2.758   1.442  12.911  1.0594 -1.2841 -0.2181
 2945TIP3   OH230249   2.456   5.118   1.211  0.0377 -0.3673  0.7299
 2945TIP3    H130250   2.511   5.042   1.231  0.2684 -0.2983  0.3544
 2945TIP3    H230251   2.470   5.135   1.118 -1.8630 -1.3758  0.1882
 2946TIP3   OH230252   0.506   4.860  16.193  0.9273 -0.0655 -0.1853
 2946TIP3    H130253   0.449   4.922  16.239 -2.8879 -3.7998  0.7242
 2946TIP3    H230254   0.561   4.822  16.262  0.4005 -0.4932  0.0044
 2947TIP3   OH230255   4.829   4.253   1.426  0.6294  0.5027  0.0228
 2947TIP3    H130256   4.835   4.334   1.375 -0.6877  0.5874 -0.0445
 2947TIP3    H230257   4.774   4.195   1.372  2.5414 -0.9175 -0.5086
 2948TIP3   OH230258   0.679   3.698  13.390  0.2197 -0.1428 -0.0619
 2948TIP3    H130259   0.732   3.704  13.311 -1.9989  0.3470 -1.6211
 2948TIP3    H230260   0.589   3.690  13.358 -0.7202 -0.5578  2.4262
 2949TIP3   OH230261   2.662   6.120  15.693  0.1891 -0.1743 -0.4660
 2949TIP3    H130262   2.652   6.120  15.789 -0.7267  0.6609 -0.5442
 2949TIP3    H230263   2.719   6.046  15.675 -0.6178 -1.1096  0.6481
 2950TIP3   OH230264   6.248   4.074  16.390  0.0046  0.2163  0.0619
 2950TIP3    H130265   6.195   4.057  16.468  0.5289  1.4462  0.7161
 2950TIP3    H230266   6.187   4.068  16.317 -0.1330 -2.9276  0.3094
 2951TIP3   OH230267   5.124   3.892  13.516 -0.1470  0.2064  0.4304
 2951TIP3    H130268   5.075   3.814  13.541  0.8187 -0.0369  1.6912
 2951TIP3    H230269   5.207   3.859  13.482 -0.4480  0.6434 -0.8091
 2952TIP3   OH230270   2.235   1.483   3.542 -0.3610 -0.2430  0.4891
 2952TIP3    H130271   2.215   1.416   3.607  2.4975 -2.3947 -0.6078
 2952TIP3    H230272   2.200   1.446   3.460  1.3574 -0.5200 -0.1476
 2953TIP3   OH230273   3.317   5.217  12.879 -0.0287  0.0806 -0.4512
 2953TIP3    H130274   3.406   5.190  12.900 -0.5652 -0.2072  1.6123
 2953TIP3    H230275   3.269   5.209  12.961 -1.9596  0.2765 -1.5037
 2954TIP3   OH230276   5.171   5.417   2.768 -0.4173  0.1791  0.2039
 2954TIP3    H130277   5.083   5.431   2.805 -0.3680 -0.2125  0.4752
 2954TIP3    H230278   5.227   5.476   2.818 -0.7541  1.5701 -0.9869
 2955TIP3   OH230279   6.766   5.732   1.382 -0.6814 -0.7311 -0.0641
 2955TIP3    H130280   6.847   5.687   1.405  1.2189  2.6435  0.5724
 2955TIP3    H230281   6.778   5.758   1.291  0.7295  2.7996  0.9590
 2956TIP3   OH230282   2.371   6.372   0.337 -0.5505 -0.3040  0.7412
 2956TIP3    H130283   2.439   6.368   0.404 -0.6513 -1.1239  0.8102
 2956TIP3    H230284   2.332   6.284   0.338 -0.8055 -0.2088 -0.1254
 2957TIP3   OH230285   5.811   6.592  11.787  0.2125  0.1375 -0.7052
 2957TIP3    H130286   5.790   6.505  11.822  0.1777  1.2816  2.4846
 2957TIP3    H230287   5.887   6.578  11.731  1.4443 -1.7297  1.2698
 2958TIP3   OH230288   1.890   1.161   3.545  0.2597  0.2709 -0.3153
 2958TIP3    H130289   1.935   1.077   3.545 -0.7468 -0.4169  2.8123
 2958TIP3    H230290   1.800   1.141   3.521  0.0845  0.4790  0.1428
 2959TIP3   OH230291   5.923   1.888   1.654 -0.1325 -0.4190 -0.4414
 2959TIP3    H130292   5.966   1.971   1.675  1.0257 -1.1590  0.2213
 2959TIP3    H230293   5.991   1.821   1.665 -1.0185 -1.4666 -1.0109
 2960TIP3   OH230294   5.246   2.212  13.063  0.2542 -0.4559 -0.1557
 2960TIP3    H130295   5.203   2.239  13.145 -0.2440 -2.3545  0.2570
 2960TIP3    H230296   5.339   2.222  13.080  0.1095  0.2800  0.2299
 2961TIP3   OH230297   6.694   5.792   2.099  0.6817  0.1570  0.3793
 2961TIP3    H130298   6.672   5.769   2.189  0.3548 -2.6893 -0.3458
 2961TIP3    H230299   6.615   5.774   2.049  1.1285  0.8813 -0.6318
 2962TIP3   OH230300   1.023   5.408   0.818 -0.7387 -0.3978  0.2124
 2962TIP3    H130301   1.037   5.502   0.829  1.8609 -0.7271  0.4734
 2962TIP3    H230302   1.029   5.372   0.906  1.3303 -1.0761 -0.1475
 2963TIP3   OH230303   6.320   4.342  11.769 -0.5377 -0.1944 -0.3806
 2963TIP3    H130304   6.294   4.290  11.845 -0.7827  0.6584  0.1364
 2963TIP3    H230305   6.399   4.299  11.736 -0.6264 -0.7791  0.1467
 2964TIP3   OH230306   6.540   5.769   0.123 -0.1255 -0.1070  0.0544
 2964TIP3    H130307   6.462   5.823   0.125  0.0119  0.0772  0.9232
 2964TIP3    H230308   6.508   5.682   0.097 -0.6079 -0.0170  0.3314
 2965TIP3   OH230309   6.595   1.399   1.478 -0.9817  0.6385 -0.4243
 2965TIP3    H130310   6.625   1.431   1.563 -0.8815  0.3672 -0.3550
 2965TIP3    H230311   6.597   1.304   1.487  1.0462  0.5332 -1.4351
 2966TIP3   OH230312   5.786   5.577   1.539  0.5899 -0.6777 -0.9056
 2966TIP3    H130313   5.820   5.580   1.449 -0.3201  1.4109 -1.2366
 2966TIP3    H230314   5.843   5.635   1.588 -0.5588  0.3696 -0.7746
 2967TIP3   OH230315   1.443   1.518  11.566 -0.0269 -0.5039 -0.3499
 2967TIP3    H130316   1.406   1.544  11.481  1.2847 -1.4120 -1.2373
 2967TIP3    H230317   1.409   1.583  11.627 -0.3403  0.6748 -1.7138
 2968TIP3   OH230318   4.501   2.492   2.979 -0.0993 -0.3872 -0.4492
 2968TIP3    H130319   4.469   2.440   2.905 -0.9930  0.3795 -0.6290
 2968TIP3    H230320   4.489   2.583   2.951 -1.8474 -0.0541  1.2019
 2969TIP3   OH230321   4.266   2.890  13.750  0.1119  0.3515  0.1275
 2969TIP3    H130322   4.204   2.892  13.677  0.4763 -1.3431 -0.2618
 2969TIP3    H230323   4.316   2.809  13.737  1.6675  1.1241  1.0492
 2970TIP3   OH230324   3.219   2.588   6.290 -0.3278 -0.1902  0.9084
 2970TIP3    H130325   3.312   2.574   6.273 -0.8573 -1.7537 -1.2258
 2970TIP3    H230326   3.185   2.624   6.208 -2.0294 -2.2641  0.5987
 2971TIP3   OH230327   2.478   0.015  10.927  0.1582 -0.1282 -1.0104
 2971TIP3    H130328   2.550   0.074  10.955 -0.5999  0.8558 -1.0757
 2971TIP3    H230329   2.467   0.034  10.834 -1.7257  1.4848 -0.5244
 2972TIP3   OH230330   5.428   3.258   4.671 -0.3851 -0.1266 -0.4137
 2972TIP3    H130331   5.407   3.167   4.693 -1.1633 -0.2639 -1.6514
 2972TIP3    H230332   5.453   3.298   4.755 -3.3007 -0.5651  0.7546
 2973TIP3   OH230333   1.261   2.315  15.136  0.3719  0.2647 -0.1314
 2973TIP3    H130334   1.197   2.244  15.137  2.0908 -1.3688  0.2448
 2973TIP3    H230335   1.263   2.347  15.227 -0.1913  0.5948 -0.2342
 2974TIP3   OH230336   4.299   0.512  17.065 -0.5438 -0.4924  0.2149
 2974TIP3    H130337   4.387   0.507  17.101 -0.0720 -1.2694 -0.9708
 2974TIP3    H230338   4.243   0.470  17.131  0.3396 -2.1645 -0.0328
 2975TIP3   OH230339   3.185   1.265   3.905  0.4447  0.2255  0.4147
 2975TIP3    H130340   3.215   1.174   3.905 -0.8235 -0.2379  1.4627
 2975TIP3    H230341   3.110   1.266   3.845  1.4040  0.9644 -0.8222
 2976TIP3   OH230342   3.272   4.836   0.887  0.1428  0.3370 -0.3003
 2976TIP3    H130343   3.216   4.812   0.961 -1.3445 -0.9843 -1.7819
 2976TIP3    H230344   3.212   4.871   0.822  1.5305  2.2435 -0.6382
 2977TIP3   OH230345   1.517   0.996   3.270 -0.1929 -0.1935  0.0618
 2977TIP3    H130346   1.547   1.006   3.180  0.8365 -1.8639  0.1774
 2977TIP3    H230347   1.450   0.928   3.266  0.1021 -0.5206  0.6008
 2978TIP3   OH230348   5.636   0.037  17.107 -0.0503  0.4222 -0.0118
 2978TIP3    H130349   5.619   0.049  17.013  0.7492 -0.0813 -0.2243
 2978TIP3    H230350   5.689  -0.042  17.112 -0.6983  0.0274  0.9353
 2979TIP3   OH230351   1.038   4.149   3.919  0.1032 -0.5793  0.0016
 2979TIP3    H130352   0.952   4.166   3.879  0.0354 -2.9410 -1.0471
 2979TIP3    H230353   1.101   4.171   3.851  0.0992 -2.2364 -0.5990
 2980TIP3   OH230354   6.139   2.671  16.425  0.8824 -1.2444  0.3233
 2980TIP3    H130355   6.060   2.725  16.422  2.1169  0.6110 -0.1098
 2980TIP3    H230356   6.134   2.625  16.509  0.3331  0.4199  1.2467
 2981TIP3   OH230357   3.481   0.715   1.222  0.4063  0.2018 -0.0004
 2981TIP3    H130358   3.429   0.776   1.274  1.9152  1.7847 -0.2670
 2981TIP3    H230359   3.538   0.672   1.286  1.9734  1.8487 -0.2448
 2982TIP3   OH230360   2.647   5.624   3.684 -0.0691  1.0567  0.3039
 2982TIP3    H130361   2.608   5.711   3.688  1.7303  1.8908  0.3138
 2982TIP3    H230362   2.669   5.604   3.775  0.5494  1.0819  0.1621
 2983TIP3   OH230363   0.822   5.720   1.149 -0.6637 -0.0127 -0.3781
 2983TIP3    H130364   0.821   5.701   1.243 -3.3263  0.2184 -0.2941
 2983TIP3    H230365   0.730   5.721   1.123  0.0166 -1.0319 -3.2273
 2984TIP3   OH230366   0.504   1.018   3.099 -0.7276 -0.4238  0.1419
 2984TIP3    H130367   0.501   1.072   3.178  0.7481  0.3163 -0.2797
 2984TIP3    H230368   0.547   0.937   3.126  0.3213  0.0692 -0.0243
 2985TIP3   OH230369   2.918   4.561   6.658 -0.4110 -0.5761  0.0153
 2985TIP3    H130370   3.003   4.598   6.632 -0.6086 -0.5756 -0.6504
 2985TIP3    H230371   2.921   4.558   6.754  0.1157 -0.0457  0.0166
 2986TIP3   OH230372   5.626   0.597   4.245  0.4361  0.2598 -0.2952
 2986TIP3    H130373   5.653   0.657   4.175  1.1081  1.5132  0.9961
 2986TIP3    H230374   5.708   0.561   4.279  0.1653  0.2878  0.3983
 2987TIP3   OH230375   5.217   0.639   5.755  0.3196 -0.4378  0.4087
 2987TIP3    H130376   5.239   0.546   5.749 -0.7289 -0.6725 -0.1717
 2987TIP3    H230377   5.189   0.662   5.666  1.2261  0.6199  0.3784
 2988TIP3   OH230378   2.761   3.553  14.311 -0.1755 -1.0896 -0.3216
 2988TIP3    H130379   2.696   3.611  14.352 -0.9578 -0.9701 -1.6921
 2988TIP3    H230380   2.807   3.609  14.249  0.1754 -1.5642 -0.4909
 2989TIP3   OH230381   3.749   1.283  11.730  0.1484  0.2227 -0.0246
 2989TIP3    H130382   3.714   1.261  11.643 -1.5824  1.2839  0.3628
 2989TIP3    H230383   3.826   1.336  11.711 -0.0864  0.2733 -0.9245
 2990TIP3   OH230384   5.857   3.840  16.672 -0.0424 -0.2005  0.1608
 2990TIP3    H130385   5.813   3.758  16.646  0.6589 -0.5265 -0.0263
 2990TIP3    H230386   5.840   3.900  16.600 -0.0093 -0.3932 -0.0107
 2991TIP3   OH230387   1.161   3.766   0.140 -0.9276 -0.1186  0.1771
 2991TIP3    H130388   1.189   3.857   0.142  2.6190 -1.0715  0.1442
 2991TIP3    H230389   1.148   3.746   0.047  1.4810 -0.4101 -0.1557
 2992TIP3   OH230390   0.546   3.041  11.406  0.2506 -0.6861 -0.2031
 2992TIP3    H130391   0.617   2.996  11.451  0.0113 -1.8205 -0.9258
 2992TIP3    H230392   0.584   3.066  11.322  0.3403  0.3767  0.1358
 2993TIP3   OH230393   0.299   1.349  11.443  0.2340  0.4732 -0.4698
 2993TIP3    H130394   0.260   1.302  11.516  0.9404  0.1593 -0.2937
 2993TIP3    H230395   0.377   1.299  11.420  1.0004  1.5432 -0.2732
 2994TIP3   OH230396   5.672   0.415  15.229  0.1306 -0.0798 -0.1608
 2994TIP3    H130397   5.767   0.406  15.234 -0.0919 -2.7332  1.2545
 2994TIP3    H230398   5.651   0.483  15.294  0.9689 -0.9832  1.1161
 2995TIP3   OH230399   3.538   3.544   1.514  0.0072  0.0632 -0.2318
 2995TIP3    H130400   3.596   3.607   1.472 -0.5354 -0.3793 -1.7267
 2995TIP3    H230401   3.544   3.466   1.459  0.4287 -1.1076  1.4022
 2996TIP3   OH230402   5.680   0.216  15.583  0.4155  0.5255  0.1001
 2996TIP3    H130403   5.669   0.144  15.521  3.1936  1.6894 -1.9677
 2996TIP3    H230404   5.697   0.173  15.667 -0.4579 -1.1543 -0.5426
 2997TIP3   OH230405   1.893   2.864  14.238 -0.4943  0.3454  0.0870
 2997TIP3    H130406   1.917   2.776  14.208  0.0004  0.0658  1.2483
 2997TIP3    H230407   1.893   2.858  14.334 -1.3017  1.3930  0.1770
 2998TIP3   OH230408   1.772   1.064   1.267  0.1394 -0.1591  0.4137
 2998TIP3    H130409   1.691   1.114   1.273  0.6568  0.6214  1.2087
 2998TIP3    H230410   1.744   0.974   1.251 -0.8226  0.3619 -1.1478
 2999TIP3   OH230411   2.769   6.608   5.038 -0.7304  0.0383 -0.0322
 2999TIP3    H130412   2.848   6.645   4.999  1.0617 -2.7417  0.6028
 2999TIP3    H230413   2.795   6.586   5.127 -1.6604 -2.4267 -0.2955
 3000TIP3   OH230414   2.681   3.674   4.580  0.0753 -0.0630  0.7594
 3000TIP3    H130415   2.700   3.684   4.674  0.3633 -0.1257  0.7084
 3000TIP3    H230416   2.766   3.653   4.541  0.4404  2.3605  0.1163
 3001TIP3   OH230417   6.290   6.182   1.410 -0.4016 -0.3697  0.0740
 3001TIP3    H130418   6.231   6.258   1.404 -0.1456 -0.2410 -0.9880
 3001TIP3    H230419   6.330   6.191   1.496 -1.6649 -0.2642  0.6796
 3002TIP3   OH230420   1.555   2.245   5.683 -0.5557  0.4280 -0.6368
 3002TIP3    H130421   1.555   2.340   5.673  0.0605  0.4544 -0.4326
 3002TIP3    H230422   1.641   2.218   5.652 -0.1862  0.0882  0.6027
 3003TIP3   OH230423   0.883   5.922  13.029  0.1094  0.0197  0.2836
 3003TIP3    H130424   0.885   5.888  13.119  0.2589 -0.5946  0.0537
 3003TIP3    H230425   0.807   5.981  13.028 -0.0222 -0.1351  0.7543
 3004TIP3   OH230426   0.813   3.323   3.293 -0.3036  0.4329 -0.7585
 3004TIP3    H130427   0.749   3.259   3.326 -0.4765  1.2462  0.5594
 3004TIP3    H230428   0.760   3.400   3.271  0.0944  0.7171 -0.7266
 3005TIP3   OH230429   4.254   1.453  14.909 -0.6282  0.9100  0.0488
 3005TIP3    H130430   4.200   1.390  14.957 -0.1793  0.6624  0.2385
 3005TIP3    H230431   4.260   1.416  14.821  0.4335  0.1632  0.4077
 3006TIP3   OH230432   2.743   2.634  13.920  0.0375 -0.5111  0.4264
 3006TIP3    H130433   2.715   2.677  14.001 -0.1306 -0.1074  0.1548
 3006TIP3    H230434   2.835   2.613  13.935  0.3404  0.6242  0.2849
 3007TIP3   OH230435   1.937   1.280   1.528 -0.3871 -0.0573  0.1009
 3007TIP3    H130436   1.924   1.233   1.446 -0.1866  0.6993 -0.3814
 3007TIP3    H230437   1.982   1.361   1.502  0.0144  0.0216  1.0033
 3008TIP3   OH230438   3.934   5.149  12.742 -0.0420  0.3129 -0.4071
 3008TIP3    H130439   3.996   5.157  12.669 -0.7669 -2.0919 -1.3995
 3008TIP3    H230440   3.982   5.100  12.809  0.1899  1.3544  0.1948
 3009TIP3   OH230441   0.843   2.483  15.075 -0.6237  0.1335  0.3082
 3009TIP3    H130442   0.863   2.403  15.027  0.3341 -1.6242  3.3564
 3009TIP3    H230443   0.927   2.528  15.084 -0.7531  0.3370  0.5235
 3010TIP3   OH230444   2.536   2.561   2.186 -0.0473 -0.1503 -0.0501
 3010TIP3    H130445   2.524   2.588   2.277 -0.2301  1.2483 -0.4662
 3010TIP3    H230446   2.515   2.467   2.186 -0.8749  0.0073  1.1891
 3011TIP3   OH230447   3.682   4.675   3.291  0.0465 -0.2355  0.2151
 3011TIP3    H130448   3.675   4.752   3.234 -0.0567 -0.4822 -0.1141
 3011TIP3    H230449   3.714   4.605   3.233 -0.9649 -0.7325  0.2293
 3012TIP3   OH230450   3.227   5.074  12.374 -0.2201 -0.2501  0.7460
 3012TIP3    H130451   3.240   4.982  12.352  1.6231  0.5257 -1.8470
 3012TIP3    H230452   3.296   5.094  12.437 -0.3632 -0.5157  0.9909
 3013TIP3   OH230453   5.756   0.789   1.664 -0.2919 -0.2735  0.3324
 3013TIP3    H130454   5.746   0.701   1.699  0.7768 -0.2199  0.8223
 3013TIP3    H230455   5.752   0.846   1.742 -3.1105  0.3280 -0.1604
 3014TIP3   OH230456   2.884   0.856   3.899 -0.2071 -0.2971 -0.0518
 3014TIP3    H130457   2.906   0.862   3.992 -0.1110  0.3856 -0.1116
 3014TIP3    H230458   2.840   0.939   3.879  2.0677  0.7077 -1.2124
 3015TIP3   OH230459   1.043   4.957  13.077  0.1972 -0.4913  0.3744
 3015TIP3    H130460   1.080   4.879  13.117 -1.0806 -0.6432  1.3456
 3015TIP3    H230461   0.954   4.963  13.114 -0.2699  0.5661 -0.8446
 3016TIP3   OH230462   1.644   4.003   3.117  0.1648  0.7583  0.0992
 3016TIP3    H130463   1.705   3.948   3.068 -1.0902 -1.3770  0.7977
 3016TIP3    H230464   1.653   4.090   3.077  2.7147  0.2590 -0.6089
 3017TIP3   OH230465   2.073   2.615  14.645 -0.4337 -0.0452 -0.0039
 3017TIP3    H130466   2.075   2.615  14.549 -0.5206 -0.8771 -0.0112
 3017TIP3    H230467   1.980   2.621  14.667 -0.5187 -1.1066  0.0042
 3018TIP3   OH230468   5.364   5.120  14.361  0.3920 -0.6785  0.2163
 3018TIP3    H130469   5.457   5.104  14.344  0.8878  0.3677  1.7206
 3018TIP3    H230470   5.336   5.175  14.288  0.9193 -1.1365 -0.3397
 3019TIP3   OH230471   0.335   2.272  13.420 -0.2588 -0.6524  0.6233
 3019TIP3    H130472   0.362   2.324  13.344 -1.1347 -1.4896 -0.2928
 3019TIP3    H230473   0.388   2.305  13.492 -0.5773  1.2878  0.0062
 3020TIP3   OH230474   2.060   2.514   3.081 -0.4999  0.3433 -0.5488
 3020TIP3    H130475   2.117   2.472   3.146 -1.3937  0.1975  0.1575
 3020TIP3    H230476   2.100   2.600   3.067  0.3300 -0.0499 -0.6552
 3021TIP3   OH230477   6.563   3.376   2.098  0.5532  0.4000  0.1002
 3021TIP3    H130478   6.497   3.444   2.082 -0.7769 -1.0227 -0.8091
 3021TIP3    H230479   6.574   3.333   2.013  1.6867 -0.2419  0.5484
 3022TIP3   OH230480   3.659   6.653  10.511  0.0995  0.1552  0.0168
 3022TIP3    H130481   3.668   6.681  10.602  2.8410  0.0819 -0.1597
 3022TIP3    H230482   3.584   6.702  10.478 -0.7152  0.4685  2.1749
 3023TIP3   OH230483   0.753   2.567   4.969 -0.2191  0.0101 -0.7094
 3023TIP3    H130484   0.773   2.648   4.922  0.8309 -0.3783 -0.9612
 3023TIP3    H230485   0.762   2.498   4.904  0.3010 -0.4383 -0.1787
 3024TIP3   OH230486   1.073   3.593  14.636  0.3483  0.1361 -0.4942
 3024TIP3    H130487   1.056   3.678  14.595  0.6685  0.3026 -0.2753
 3024TIP3    H230488   1.159   3.601  14.676 -0.2468  0.1940  0.8032
 3025TIP3   OH230489   1.425   5.371  10.803 -0.2182 -0.0852  1.1111
 3025TIP3    H130490   1.336   5.404  10.789 -0.2301 -0.9972 -1.3834
 3025TIP3    H230491   1.413   5.279  10.827  0.0354 -0.5458 -0.4183
 3026TIP3   OH230492   1.999   6.749  13.947 -0.0096  0.7724 -0.1049
 3026TIP3    H130493   1.965   6.663  13.924 -1.5998  1.0886  0.9219
 3026TIP3    H230494   1.989   6.801  13.868  0.8008  0.0855 -0.6765
 3027TIP3   OH230495   4.969   2.811  14.128  0.2370 -0.1207  1.2229
 3027TIP3    H130496   4.961   2.726  14.085  0.4776  0.7166 -0.5762
 3027TIP3    H230497   4.918   2.802  14.209  0.2209 -1.9392  1.0487
 3028TIP3   OH230498   1.984   6.431   2.265  0.7044 -0.0269  0.3371
 3028TIP3    H130499   2.039   6.464   2.336  0.2243 -0.3593  0.8700
 3028TIP3    H230500   1.910   6.491   2.262 -0.5240 -1.3726  1.7680
 3029TIP3   OH230501   0.381   6.100   3.789  0.1989 -0.2711  0.2010
 3029TIP3    H130502   0.353   6.166   3.853 -0.6018 -0.0247 -0.3854
 3029TIP3    H230503   0.304   6.087   3.733  1.2618  0.4235 -1.4861
 3030TIP3   OH230504   2.313   1.876  15.532 -0.0127 -0.2003  1.1654
 3030TIP3    H130505   2.380   1.846  15.594 -0.1019  0.4173  1.5685
 3030TIP3    H230506   2.295   1.966  15.558  1.8050  1.0086 -1.2838
 3031TIP3   OH230507   0.750   3.931   1.716  0.4527 -0.1221 -0.1843
 3031TIP3    H130508   0.718   3.986   1.644 -0.9571 -0.7566 -0.0785
 3031TIP3    H230509   0.846   3.937   1.710  0.3457  1.0223 -1.1753
 3032TIP3   OH230510   4.933   4.049   4.234  0.4557 -0.0244  0.2845
 3032TIP3    H130511   4.842   4.037   4.259  0.6639  1.1210  1.8180
 3032TIP3    H230512   4.969   3.961   4.228 -0.1048 -0.4543  2.4317
 3033TIP3   OH230513   2.603   3.040  12.199 -0.3867  0.1534  0.7047
 3033TIP3    H130514   2.648   3.098  12.260 -0.1682 -0.9414  1.6149
 3033TIP3    H230515   2.524   3.087  12.174 -0.3663  0.7069  1.6532
 3034TIP3   OH230516   5.305   0.558  14.966 -0.1940 -0.7992  0.4350
 3034TIP3    H130517   5.390   0.529  15.000  0.2323  1.1893  1.1777
 3034TIP3    H230518   5.272   0.618  15.032 -1.0022  0.4455 -1.0381
 3035TIP3   OH230519   4.128   4.468   2.153  0.4796  0.3346  0.3963
 3035TIP3    H130520   4.062   4.531   2.181 -0.1304  0.9818 -2.1990
 3035TIP3    H230521   4.098   4.384   2.188 -0.8190  0.8856  0.6640
 3036TIP3   OH230522   2.348   5.108  16.245 -0.1763  0.0358  0.2943
 3036TIP3    H130523   2.367   5.015  16.234  0.1015 -0.1171  1.7641
 3036TIP3    H230524   2.433   5.149  16.261 -0.2464  0.6227 -0.7916
 3037TIP3   OH230525   4.060   0.304   1.130 -0.1601  0.1526  0.5664
 3037TIP3    H130526   3.985   0.346   1.090  1.2244  0.2105 -2.1703
 3037TIP3    H230527   4.026   0.221   1.164 -1.5636  0.4887  0.0282
 3038TIP3   OH230528   1.189   6.745  17.180  0.3622  0.0919  0.2111
 3038TIP3    H130529   1.161   6.724  17.091  0.2081 -0.5157  0.3968
 3038TIP3    H230530   1.228   6.832  17.173 -0.1958  0.3064 -0.3330
 3039TIP3   OH230531   2.590   0.837  15.509 -0.1351  0.4139  0.1367
 3039TIP3    H130532   2.496   0.855  15.500 -0.3241  0.3375  1.6475
 3039TIP3    H230533   2.597   0.742  15.511  0.0501  0.4073 -0.5343
 3040TIP3   OH230534   0.097   5.756   4.389  0.1068 -0.0950  0.1975
 3040TIP3    H130535   0.095   5.664   4.364 -0.6878  0.5901 -2.6027
 3040TIP3    H230536   0.005   5.780   4.402  0.1145  0.7443 -1.1119
 3041TIP3   OH230537   0.485   2.538   3.515 -0.0237 -0.1815 -0.5767
 3041TIP3    H130538   0.490   2.442   3.524 -1.6209 -0.1699  0.9044
 3041TIP3    H230539   0.493   2.553   3.420 -3.2243 -2.1156 -1.3293
 3042TIP3   OH230540   1.807   2.198   5.485 -0.9731  0.0777 -0.3003
 3042TIP3    H130541   1.723   2.211   5.442 -1.0031  1.1297  0.0623
 3042TIP3    H230542   1.864   2.265   5.448 -0.1639 -0.8552 -0.8188
 3043TIP3   OH230543   2.620   4.495  12.498 -0.6972  0.1049  0.4151
 3043TIP3    H130544   2.554   4.446  12.548 -1.0790 -0.5804 -0.7225
 3043TIP3    H230545   2.664   4.549  12.564  0.4567 -2.4957  1.9285
 3044TIP3   OH230546   1.114   6.521  17.005  0.7140 -0.1445 -0.2949
 3044TIP3    H130547   1.115   6.450  16.940  0.3625 -0.1789 -0.2635
 3044TIP3    H230548   1.100   6.600  16.953  0.7100 -0.1409 -0.2870
 3045TIP3   OH230549   5.199   2.646   6.653  0.3469  0.6620 -0.0775
 3045TIP3    H130550   5.136   2.696   6.704  0.5246  1.6848 -0.8157
 3045TIP3    H230551   5.285   2.675   6.686  0.4647  1.3989 -0.9738
 3046TIP3   OH230552   1.061   0.413   0.777 -0.1643 -0.4801 -0.3231
 3046TIP3    H130553   1.001   0.468   0.727 -0.9535 -1.4005 -0.4043
 3046TIP3    H230554   1.143   0.463   0.779 -0.7349  0.4995 -0.7535
 3047TIP3   OH230555   3.033   0.647   0.142 -0.1407  0.1536  0.1414
 3047TIP3    H130556   3.110   0.598   0.171 -1.3232 -0.9971  1.4080
 3047TIP3    H230557   3.039   0.730   0.189  0.5912  0.3094 -0.1948
 3048TIP3   OH230558   5.313   3.980   5.312  0.2609 -0.1502  0.0725
 3048TIP3    H130559   5.327   3.885   5.321 -0.6697 -0.5117 -1.8369
 3048TIP3    H230560   5.278   4.006   5.398  0.7384 -1.4842  0.7121
 3049TIP3   OH230561   0.776   2.099   3.933 -0.3573 -0.0356  0.0240
 3049TIP3    H130562   0.725   2.177   3.910  1.0148  1.3792  1.5774
 3049TIP3    H230563   0.714   2.043   3.979 -0.9528  0.8646  0.3452
 3050TIP3   OH230564   4.295   5.317   0.946  0.0312 -0.0599  0.1340
 3050TIP3    H130565   4.262   5.289   1.031 -0.1771  0.9535  0.3978
 3050TIP3    H230566   4.348   5.394   0.965  0.5090 -0.1982 -0.5861
 3051TIP3   OH230567   6.551   3.482   0.022 -0.3254 -0.1868  0.0498
 3051TIP3    H130568   6.545   3.568   0.065 -0.9785  1.2388 -2.6595
 3051TIP3    H230569   6.631   3.487  -0.030 -0.6919 -0.9601 -0.6212
 3052TIP3   OH230570   1.291   2.670   6.788 -0.3749 -0.1447  0.5655
 3052TIP3    H130571   1.315   2.579   6.807 -0.9834 -0.0803  1.7260
 3052TIP3    H230572   1.300   2.678   6.693 -0.1535 -1.3672  0.4691
 3053TIP3   OH230573   2.238   1.222   1.439  0.4274 -0.1828  0.9386
 3053TIP3    H130574   2.271   1.288   1.500  1.3593  0.6787 -0.4393
 3053TIP3    H230575   2.317   1.180   1.404 -0.1005 -0.8769  0.5607
 3054TIP3   OH230576   0.876   2.994  11.228  0.0032 -0.4843 -0.2555
 3054TIP3    H130577   0.898   3.027  11.315 -0.5525  0.5978 -0.5167
 3054TIP3    H230578   0.886   3.069  11.170 -2.4501 -0.4140 -0.6820
 3055TIP3   OH230579   5.416   4.694   3.989  0.2650 -0.1849  0.3120
 3055TIP3    H130580   5.435   4.767   3.930 -0.2577 -0.1069  0.2362
 3055TIP3    H230581   5.501   4.673   4.029  0.5659 -0.0425 -0.2388
 3056TIP3   OH230582   4.970   2.100   5.037 -0.2865 -0.1613 -0.1677
 3056TIP3    H130583   4.957   2.006   5.024 -0.1921 -0.2642  0.4578
 3056TIP3    H230584   4.937   2.117   5.124 -1.4787  0.6374 -0.7607
 3057TIP3   OH230585   1.196   0.168  15.953 -0.3972 -0.0006  0.3315
 3057TIP3    H130586   1.290   0.155  15.940 -0.7460 -3.0355  0.0892
 3057TIP3    H230587   1.160   0.170  15.864 -0.5998  1.3812  0.4158
 3058TIP3   OH230588   3.483   2.721  14.228 -0.5877 -0.0050  0.2135
 3058TIP3    H130589   3.479   2.789  14.296  1.6606 -1.4530  1.9647
 3058TIP3    H230590   3.515   2.643  14.274  2.1677 -0.7923 -2.6373
 3059TIP3   OH230591   3.640   1.029   2.856  0.4099  0.0936 -0.5311
 3059TIP3    H130592   3.558   1.050   2.902  1.1710  0.4627  0.7157
 3059TIP3    H230593   3.612   1.006   2.767 -1.0847 -0.1790 -0.0325
 3060TIP3   OH230594   5.868   1.230   0.523  0.3755  0.1454  0.3542
 3060TIP3    H130595   5.918   1.176   0.462 -0.2909  0.0981 -0.1561
 3060TIP3    H230596   5.813   1.285   0.468 -1.2948 -0.8933  0.9114
 3061TIP3   OH230597   1.603   5.932   4.599 -0.1002  0.4728 -0.2947
 3061TIP3    H130598   1.643   5.898   4.679  1.8299  0.0429 -1.3747
 3061TIP3    H230599   1.621   6.026   4.601  1.6389  0.1949 -1.0746
 3062TIP3   OH230600   0.650   4.837  11.882  0.0836 -0.0763  0.5928
 3062TIP3    H130601   0.636   4.779  11.807 -2.7647 -1.9081  2.3502
 3062TIP3    H230602   0.740   4.867  11.873 -0.1204 -0.0998 -3.5624
 3063TIP3   OH230603   6.463   1.677   3.153  0.1707  0.1181  0.2710
 3063TIP3    H130604   6.478   1.751   3.095 -0.6864 -0.1294 -0.2942
 3063TIP3    H230605   6.540   1.674   3.210  2.0066 -0.7939 -2.0830
 3064TIP3   OH230606   0.118   3.759  15.304  0.3113 -0.3816 -0.5529
 3064TIP3    H130607   0.096   3.808  15.225  1.2399 -0.3773 -0.8241
 3064TIP3    H230608   0.035   3.746  15.348 -0.0000  1.2925 -0.5587
 3065TIP3   OH230609   0.203   5.232  13.655  0.0965 -0.1477  0.3571
 3065TIP3    H130610   0.193   5.173  13.580 -0.9245 -0.4646  0.7275
 3065TIP3    H230611   0.138   5.202  13.719  2.1888 -1.0613  2.1704
 3066TIP3   OH230612   2.184   5.873  16.944 -0.6182 -0.3960 -0.0700
 3066TIP3    H130613   2.174   5.778  16.951 -1.4605 -0.3748 -0.8479
 3066TIP3    H230614   2.118   5.899  16.881 -0.7014  0.7750  0.4828
 3067TIP3   OH230615   2.615   5.219   1.890 -0.8143 -0.1922 -0.2723
 3067TIP3    H130616   2.625   5.287   1.823 -1.5678  0.8922  0.6824
 3067TIP3    H230617   2.594   5.140   1.840  2.7792 -0.4568 -1.6230
 3068TIP3   OH230618   0.858   2.487  15.413  0.5908  0.1386  0.2440
 3068TIP3    H130619   0.904   2.563  15.378  1.2747 -0.6946 -0.7489
 3068TIP3    H230620   0.781   2.478  15.357  1.8063 -1.3338 -1.3178
 3069TIP3   OH230621   5.489   2.424  12.164 -0.1478 -0.0305  0.2283
 3069TIP3    H130622   5.580   2.398  12.149 -0.2120  0.9473 -2.2891
 3069TIP3    H230623   5.459   2.363  12.232  2.5000 -0.0120  1.5889
 3070TIP3   OH230624   2.816   3.645   1.807 -0.2826  0.0084 -0.2163
 3070TIP3    H130625   2.796   3.642   1.901  0.4333 -0.3489 -0.0685
 3070TIP3    H230626   2.903   3.604   1.800 -0.0775  0.5563 -0.9606
 3071TIP3   OH230627   5.756   0.399   1.616 -0.0955  0.6207 -0.3037
 3071TIP3    H130628   5.778   0.361   1.531 -1.3965  1.3045 -0.9779
 3071TIP3    H230629   5.673   0.445   1.601  0.3135  1.8543  1.0142
 3072TIP3   OH230630   0.252   2.999   5.817  0.8159  0.0194 -0.3137
 3072TIP3    H130631   0.243   3.019   5.724  0.2912 -2.0895 -0.7721
 3072TIP3    H230632   0.225   3.079   5.862 -1.7215  0.1760 -1.9324
 3073TIP3   OH230633   3.236   5.025   4.088  0.0257 -0.1451  0.0294
 3073TIP3    H130634   3.327   5.044   4.113 -0.7076  1.2841  1.8020
 3073TIP3    H230635   3.227   5.065   4.002  0.8369  0.4912  0.2189
 3074TIP3   OH230636   4.721   3.037  17.052  0.1026 -0.0470 -0.4468
 3074TIP3    H130637   4.795   3.098  17.042  0.2347 -0.0186  0.6507
 3074TIP3    H230638   4.721   3.014  17.145 -0.9709 -0.4392 -0.5355
 3075TIP3   OH230639   3.759   3.583   1.968  0.1878  0.5318  0.1519
 3075TIP3    H130640   3.758   3.584   1.872  1.2718  0.7600  0.1293
 3075TIP3    H230641   3.671   3.555   1.993 -0.0300  0.2311 -0.9156
 3076TIP3   OH230642   1.623   2.295   3.220 -0.3237  0.2388 -0.3439
 3076TIP3    H130643   1.592   2.331   3.304 -0.2793 -2.3034  0.8680
 3076TIP3    H230644   1.692   2.355   3.192 -0.2906  1.1246  1.4831
 3077TIP3   OH230645   6.359   1.940  16.469 -0.1336 -0.1592  0.2042
 3077TIP3    H130646   6.330   2.032  16.468 -2.7441 -0.8159  2.1956
 3077TIP3    H230647   6.296   1.895  16.412 -1.0312 -1.1463  1.8897
 3078TIP3   OH230648   0.998   4.411  11.426 -0.3646  0.7418 -0.0597
 3078TIP3    H130649   1.056   4.350  11.381 -0.1266  0.4972  0.5696
 3078TIP3    H230650   0.961   4.360  11.498 -0.8606  1.0835 -0.0719
 3079TIP3   OH230651   5.857   2.492   2.754 -0.3530 -0.6476  0.2880
 3079TIP3    H130652   5.776   2.486   2.703 -2.0136 -1.2959  2.7671
 3079TIP3    H230653   5.887   2.402   2.762 -1.5925 -0.9352  2.5036
 3080TIP3   OH230654   4.089   0.767  12.310  0.3621 -0.1526 -0.6547
 3080TIP3    H130655   4.137   0.740  12.389 -0.8507 -1.3886 -0.3034
 3080TIP3    H230656   4.154   0.814  12.258  1.4542 -0.1573  0.6343
 3081TIP3   OH230657   2.843   1.244   5.045  0.0343 -0.0062 -0.1732
 3081TIP3    H130658   2.848   1.190   4.966 -2.5616  0.0442 -0.4526
 3081TIP3    H230659   2.851   1.334   5.012  0.0291 -0.0289 -0.2376
 3082TIP3   OH230660   3.611   1.011  12.505  0.0245 -0.2125  0.4398
 3082TIP3    H130661   3.694   1.015  12.552  0.0176 -1.7702  0.6436
 3082TIP3    H230662   3.634   1.031  12.414  0.1186  2.3089  0.9561
 3083TIP3   OH230663   5.669   2.739  14.228 -0.1086 -0.5284 -0.0829
 3083TIP3    H130664   5.627   2.728  14.313 -0.8245  0.6588 -0.2570
 3083TIP3    H230665   5.763   2.746  14.248 -0.2758 -0.1949  0.6122
 3084TIP3   OH230666   6.423   4.692  16.461  0.0242  0.4764  0.1197
 3084TIP3    H130667   6.459   4.690  16.372  1.3676  0.6310  0.6400
 3084TIP3    H230668   6.345   4.746  16.454 -0.8084 -0.8379 -1.2824
 3085TIP3   OH230669   3.098   4.520   6.067 -0.3535  0.5968 -0.1124
 3085TIP3    H130670   3.098   4.600   6.120  0.7855 -0.6261  1.8855
 3085TIP3    H230671   3.056   4.545   5.985  0.0761  3.2568  0.3917
 3086TIP3   OH230672   3.526   1.210  13.616  0.3922  0.5159  0.3864
 3086TIP3    H130673   3.579   1.219  13.695  1.9121  1.9362 -0.7042
 3086TIP3    H230674   3.444   1.172  13.646  0.1814  2.6937  2.9807
 3087TIP3   OH230675   4.242   4.433  16.398 -0.4284 -0.7259 -0.0308
 3087TIP3    H130676   4.236   4.521  16.361 -2.1728 -0.4506  0.7665
 3087TIP3    H230677   4.262   4.376  16.324  1.9958  0.4557 -0.3586
 3088TIP3   OH230678   3.386   1.307   3.197  0.2120 -0.3814 -0.3371
 3088TIP3    H130679   3.392   1.234   3.136  3.5820 -0.8009  0.3436
 3088TIP3    H230680   3.394   1.385   3.142 -1.8476 -0.4724 -0.8802
 3089TIP3   OH230681   4.343   4.630  12.629 -0.4071 -0.7244  0.1046
 3089TIP3    H130682   4.326   4.564  12.696 -0.9683  0.3019  1.0136
 3089TIP3    H230683   4.290   4.705  12.656  1.8365  0.8721  0.2921
 3090TIP3   OH230684   4.706   0.576   0.670 -0.7212  0.1698  0.1944
 3090TIP3    H130685   4.629   0.587   0.727 -0.3475 -2.3293  1.2785
 3090TIP3    H230686   4.669   0.556   0.584 -1.2769  3.2249 -0.3959
 3091TIP3   OH230687   2.607   6.614   4.071  0.4172  0.0398 -0.1834
 3091TIP3    H130688   2.565   6.610   4.157 -1.9668  3.6140 -0.9703
 3091TIP3    H230689   2.677   6.679   4.081  0.1527  0.4479 -0.9379
 3092TIP3   OH230690   0.382   2.158  12.472 -0.0508 -0.3672 -0.5310
 3092TIP3    H130691   0.470   2.154  12.437  0.2148  2.0367 -0.2909
 3092TIP3    H230692   0.394   2.178  12.565 -0.8132  1.2635 -0.7497
 3093TIP3   OH230693   1.229   5.136  15.699 -0.0930 -0.2594 -0.2423
 3093TIP3    H130694   1.151   5.098  15.739 -1.3788  1.4051 -1.0342
 3093TIP3    H230695   1.238   5.090  15.615 -0.7803  0.1762 -0.5594
 3094TIP3   OH230696   1.714   3.817   0.054  0.0842  0.2257  0.7844
 3094TIP3    H130697   1.707   3.726   0.084 -0.5093 -0.2570 -0.7173
 3094TIP3    H230698   1.680   3.869   0.127 -0.0833 -0.7849  1.4525
 3095TIP3   OH230699   5.950   6.643  16.523  0.0497  0.4026 -0.1664
 3095TIP3    H130700   5.933   6.558  16.564  1.8294 -0.0954 -0.3810
 3095TIP3    H230701   6.044   6.643  16.507 -0.1493  1.8273 -1.5197
 3096TIP3   OH230702   6.437   3.837   3.068 -0.4654  0.2443  0.1975
 3096TIP3    H130703   6.344   3.845   3.086 -0.4713  1.1629 -0.2121
 3096TIP3    H230704   6.477   3.824   3.154 -0.9433  0.0892  0.3986
 3097TIP3   OH230705   1.645   6.635   1.337  0.2064 -0.2811  0.1760
 3097TIP3    H130706   1.631   6.552   1.383 -0.1513 -0.2137  0.1950
 3097TIP3    H230707   1.684   6.610   1.254 -0.9956 -0.5781 -0.3222
 3098TIP3   OH230708   5.268   1.597  13.840  1.0490 -0.8924 -0.4501
 3098TIP3    H130709   5.206   1.525  13.855  0.7691 -1.0844 -2.3648
 3098TIP3    H230710   5.339   1.579  13.901 -0.3082 -1.1965  1.1245
 3099TIP3   OH230711   4.432   4.309  15.932  0.0508 -0.0594  0.9061
 3099TIP3    H130712   4.477   4.225  15.928  0.1569  0.0348  0.0754
 3099TIP3    H230713   4.503   4.373  15.946  0.1593  0.0624 -0.1481
 3100TIP3   OH230714   6.056   5.334  14.088  0.5105 -0.0607  0.1721
 3100TIP3    H130715   5.996   5.294  14.026  0.0603  1.2093 -0.2370
 3100TIP3    H230716   6.101   5.402  14.039  2.4545 -1.0868  0.4216
 3101TIP3   OH230717   3.685   5.920  14.299  0.1112  0.3339 -0.1738
 3101TIP3    H130718   3.653   5.851  14.240  0.0091  0.9846 -0.8877
 3101TIP3    H230719   3.716   5.989  14.241 -1.3817  1.6354  0.5157
 3102TIP3   OH230720   3.437   5.413  14.173 -0.2684 -0.1462  0.0712
 3102TIP3    H130721   3.363   5.417  14.112 -1.3931  0.4897  1.4312
 3102TIP3    H230722   3.399   5.431  14.259  1.6564  1.4535  0.6621
 3103TIP3   OH230723   0.220   3.655   1.562  0.2188  0.0375 -0.3272
 3103TIP3    H130724   0.244   3.613   1.645  2.6263  2.0127  0.0645
 3103TIP3    H230725   0.297   3.646   1.507 -0.7726  0.1974 -1.8038
 3104TIP3   OH230726   4.863   3.927  15.625 -0.3028 -0.3844 -0.2826
 3104TIP3    H130727   4.834   3.844  15.663 -0.2943  0.4119  1.6247
 3104TIP3    H230728   4.861   3.988  15.699 -1.3782  1.5890 -1.8422
 3105TIP3   OH230729   0.913   2.088  13.512  0.0923  0.0973  0.2455
 3105TIP3    H130730   0.991   2.034  13.528  0.5258  0.3785 -0.8509
 3105TIP3    H230731   0.870   2.048  13.436 -0.3515  0.4656  0.2948
 3106TIP3   OH230732   4.616   1.041  13.353  0.1011 -0.6024  0.5175
 3106TIP3    H130733   4.667   1.000  13.284 -2.8306  0.7493 -2.7405
 3106TIP3    H230734   4.659   1.125  13.368  0.0916 -0.3822 -0.5980
 3107TIP3   OH230735   2.477   5.735  14.691 -0.6951  0.3590 -0.2996
 3107TIP3    H130736   2.424   5.668  14.733  1.1816 -1.6611 -0.9506
 3107TIP3    H230737   2.460   5.724  14.598 -0.2791  0.7162 -0.4204
 3108TIP3   OH230738   4.064   3.965   2.197 -0.2564 -0.1650  0.1484
 3108TIP3    H130739   4.133   3.899   2.206 -1.6359 -2.0081 -1.9653
 3108TIP3    H230740   3.998   3.925   2.141 -1.5293  2.7811 -0.6747
 3109TIP3   OH230741   5.667   2.201   3.118 -0.2093 -0.2295 -0.1955
 3109TIP3    H130742   5.666   2.106   3.110 -0.5602 -0.3115  0.6734
 3109TIP3    H230743   5.754   2.221   3.154 -0.8949 -0.4378  1.6900
 3110TIP3   OH230744   0.084   4.818  10.351  0.7306  0.5068  0.0068
 3110TIP3    H130745   0.070   4.744  10.292  0.3993  1.1431 -0.7254
 3110TIP3    H230746   0.002   4.824  10.401  0.6773  0.5048 -0.0793
 3111TIP3   OH230747   5.842   1.429  15.862  0.0422  0.0465 -0.1178
 3111TIP3    H130748   5.851   1.361  15.795 -1.9074 -1.1654  0.7429
 3111TIP3    H230749   5.881   1.507  15.822 -0.6871 -0.7109 -2.5268
 3112TIP3   OH230750   2.124   4.109  12.883  0.3030 -0.0255  0.1605
 3112TIP3    H130751   2.063   4.045  12.917 -0.3294 -1.3422 -3.1116
 3112TIP3    H230752   2.146   4.164  12.958  1.0803 -4.1079  3.2571
 3113TIP3   OH230753   5.828   5.311   4.590 -0.0667 -0.2956  0.1991
 3113TIP3    H130754   5.745   5.357   4.597 -1.3891 -2.2868 -1.3000
 3113TIP3    H230755   5.849   5.313   4.496  1.6101  0.1688  0.5432
 3114TIP3   OH230756   4.896   3.676  15.727 -0.5142  0.2204  0.4932
 3114TIP3    H130757   4.990   3.683  15.745 -0.1858 -1.9703 -0.0652
 3114TIP3    H230758   4.854   3.690  15.812  0.3391  0.6763  0.8553
 3115TIP3   OH230759   3.551   0.197  11.697 -0.4454 -0.1033  0.1754
 3115TIP3    H130760   3.596   0.254  11.635 -0.2702  1.3409  1.5657
 3115TIP3    H230761   3.577   0.229  11.783  0.2927 -2.8087  1.0629
 3116TIP3   OH230762   3.615   6.787  12.305  0.0557 -0.4704 -0.1612
 3116TIP3    H130763   3.660   6.851  12.249  1.9443 -1.0441  0.6285
 3116TIP3    H230764   3.596   6.714  12.247  2.6665 -1.3825 -0.0048
 3117TIP3   OH230765   0.889   2.511   1.605  0.5064  0.5292 -0.0816
 3117TIP3    H130766   0.835   2.432   1.593  0.5700  0.6955 -1.8483
 3117TIP3    H230767   0.965   2.496   1.548  0.6558  1.7289 -0.2221
 3118TIP3   OH230768   5.929   4.600  10.504  0.0240  0.8989 -0.3479
 3118TIP3    H130769   5.913   4.607  10.598 -0.0215  0.7465 -0.3445
 3118TIP3    H230770   5.973   4.516  10.493 -0.0379  0.8824 -0.4715
 3119TIP3   OH230771   2.065   0.351   4.050  0.8012 -0.1002 -0.6698
 3119TIP3    H130772   2.136   0.287   4.055  0.1233 -0.9450 -1.4397
 3119TIP3    H230773   2.106   0.435   4.068  1.5797 -0.8281  1.2411
 3120TIP3   OH230774   4.211   6.345   0.387 -0.2967 -0.0277 -0.2324
 3120TIP3    H130775   4.300   6.380   0.384 -0.7149  1.0707 -0.2742
 3120TIP3    H230776   4.156   6.421   0.410 -1.3774 -0.3853 -1.5126
 3121TIP3   OH230777   6.553   0.761   4.847  0.3270  0.1644  0.1764
 3121TIP3    H130778   6.494   0.718   4.785  2.1390 -1.1471 -0.7223
 3121TIP3    H230779   6.577   0.692   4.909 -0.7749  1.2465  1.9114
 3122TIP3   OH230780   2.169   4.857  12.475  0.0985 -0.3477 -0.1507
 3122TIP3    H130781   2.155   4.919  12.547 -0.8991 -0.9166  0.1548
 3122TIP3    H230782   2.244   4.893  12.428  0.7928  0.0302  1.1753
 3123TIP3   OH230783   2.757   6.092   5.123  0.1612  0.0796 -0.0317
 3123TIP3    H130784   2.753   5.997   5.134 -0.0434  0.0098 -0.6729
 3123TIP3    H230785   2.680   6.113   5.070  0.4627  0.5451 -0.2873
 3124TIP3   OH230786   6.161   1.677   4.136 -0.1184 -0.2097  0.2937
 3124TIP3    H130787   6.137   1.754   4.187 -0.0490 -0.6760  1.0374
 3124TIP3    H230788   6.257   1.676   4.138 -0.1258 -0.4899  0.5514
 3125TIP3   OH230789   4.270   6.406  10.551  0.0565  0.0890  0.0233
 3125TIP3    H130790   4.339   6.462  10.587  0.4589 -0.8148  0.6910
 3125TIP3    H230791   4.213   6.466  10.503  2.5161  0.6075 -2.5138
 3126TIP3   OH230792   6.076   5.905  12.510  0.4611 -0.3004  0.4671
 3126TIP3    H130793   6.108   5.875  12.424  0.8292  2.5939 -0.5029
 3126TIP3    H230794   6.154   5.905  12.565  0.2592 -1.9932  0.8101
 3127TIP3   OH230795   2.111   0.665   5.575 -0.5553  0.0269  0.5288
 3127TIP3    H130796   2.044   0.700   5.517 -1.3393  0.0916  1.4467
 3127TIP3    H230797   2.073   0.672   5.663 -0.4392 -2.3359  0.8479
 3128TIP3   OH230798   3.011   1.821  13.989 -0.3258  0.1166 -0.1152
 3128TIP3    H130799   3.072   1.895  13.987  1.4544 -1.3025 -1.6920
 3128TIP3    H230800   3.039   1.769  14.065 -0.0200 -0.1356 -0.3933
 3129TIP3   OH230801   5.594   0.768  14.181 -0.4004  0.2605  0.0529
 3129TIP3    H130802   5.574   0.811  14.264 -1.2482 -0.9287  0.4836
 3129TIP3    H230803   5.681   0.731  14.193 -0.6697 -0.2124  0.5363
 3130TIP3   OH230804   1.251   1.809  15.593  0.0219  0.6372  0.4231
 3130TIP3    H130805   1.343   1.832  15.599  0.1544  0.5073 -0.7639
 3130TIP3    H230806   1.248   1.714  15.603 -0.0428  0.6911  0.9434
 3131TIP3   OH230807   2.870   4.714   0.822  0.4081  0.1585  0.2049
 3131TIP3    H130808   2.869   4.810   0.815 -0.3671  0.0231 -3.2506
 3131TIP3    H230809   2.963   4.691   0.815  0.7059  0.6143  2.0190
 3132TIP3   OH230810   1.057   0.586  15.027  0.0230  0.2345  0.0891
 3132TIP3    H130811   0.978   0.571  14.974 -0.4365  0.1893  0.7770
 3132TIP3    H230812   1.034   0.661  15.082  2.2840  3.9061 -3.3655
 3133TIP3   OH230813   6.434   2.743   3.963  0.6660  0.0081 -0.2308
 3133TIP3    H130814   6.429   2.838   3.958 -2.9889 -0.0033  0.6682
 3133TIP3    H230815   6.404   2.712   3.878 -0.1991 -0.3005  0.1741
 3134TIP3   OH230816   5.761   6.648  16.050 -0.0233  0.0383  0.0769
 3134TIP3    H130817   5.767   6.574  16.110 -1.0179  0.0230  0.1722
 3134TIP3    H230818   5.817   6.715  16.089  1.1836 -0.7750 -0.1989
 3135TIP3   OH230819   4.003   1.910   1.699 -0.1610  0.3320 -0.0140
 3135TIP3    H130820   3.947   1.862   1.637 -1.2310 -0.4271  1.4748
 3135TIP3    H230821   4.081   1.931   1.648 -1.8582  1.6693 -2.2811
 3136TIP3   OH230822   3.413   1.239   0.761 -0.5127  0.2659 -0.1110
 3136TIP3    H130823   3.467   1.188   0.822  0.7530  2.1422  0.4359
 3136TIP3    H230824   3.340   1.181   0.739  0.3962 -1.4419  1.1127
 3137TIP3   OH230825   0.456   1.715  16.560  0.3176 -0.2223  0.0468
 3137TIP3    H130826   0.492   1.747  16.477 -0.6330  0.2375 -0.2026
 3137TIP3    H230827   0.507   1.637  16.580  0.3707 -0.5058 -1.1240
 3138TIP3   OH230828   2.257   2.999   5.079 -0.3172  0.5906 -0.1926
 3138TIP3    H130829   2.285   3.015   4.989  1.0617 -1.1557 -0.1044
 3138TIP3    H230830   2.307   2.923   5.107 -1.3443  0.5907  1.7849
 3139TIP3   OH230831   2.429   1.618  13.661  0.5114 -0.0524  0.0948
 3139TIP3    H130832   2.374   1.561  13.714  0.4856  0.9924  1.2297
 3139TIP3    H230833   2.509   1.568  13.645  1.0724  0.0799  2.2567
 3140TIP3   OH230834   5.328   0.071  16.530 -0.2149  0.0942  0.2087
 3140TIP3    H130835   5.290  -0.015  16.511 -1.4867  0.4839  0.8896
 3140TIP3    H230836   5.254   0.132  16.521  0.5482  1.0472  0.2780
 3141TIP3   OH230837   3.363   2.526   6.509  0.1386  0.7915  0.4162
 3141TIP3    H130838   3.387   2.438   6.482  1.7177  1.6762 -1.2095
 3141TIP3    H230839   3.283   2.545   6.459  0.7281  0.8917 -0.4945
 3142TIP3   OH230840   0.856   3.139   4.448 -0.1423 -0.2572 -0.3251
 3142TIP3    H130841   0.915   3.092   4.389  0.5333  0.5949 -0.3540
 3142TIP3    H230842   0.829   3.216   4.398 -0.9740 -0.4262 -0.1584
 3143TIP3   OH230843   4.075   0.193  12.095 -0.2863 -0.3058 -0.1627
 3143TIP3    H130844   4.071   0.119  12.034  0.7615 -1.3762  1.0074
 3143TIP3    H230845   4.151   0.243  12.067  0.0218 -0.6350  0.0780
 3144TIP3   OH230846   1.947   3.915  13.051  0.2813 -0.1068 -0.6956
 3144TIP3    H130847   1.906   3.829  13.046  1.6130 -0.8539  0.5036
 3144TIP3    H230848   1.900   3.961  13.120  0.4470 -0.3833 -0.3965
 3145TIP3   OH230849   5.642   4.609   4.888 -0.4728  0.9368 -0.3231
 3145TIP3    H130850   5.656   4.698   4.920 -1.0107  0.8109  0.2726
 3145TIP3    H230851   5.612   4.620   4.798 -1.0724  1.3849 -0.0745
 3146TIP3   OH230852   6.609   2.309  13.991 -0.1142  0.0977 -0.1393
 3146TIP3    H130853   6.545   2.243  13.966 -0.2780  0.5471 -0.9355
 3146TIP3    H230854   6.567   2.392  13.973  1.2058  0.4131 -2.1639
 3147TIP3   OH230855   1.736   5.304   0.502  0.2105 -0.0882  0.1844
 3147TIP3    H130856   1.820   5.343   0.528  0.1206  0.9074 -0.8989
 3147TIP3    H230857   1.760   5.229   0.448  0.4049 -0.2008  0.4275
 3148TIP3   OH230858   1.138   5.513   3.994  0.6818 -0.1390 -0.0044
 3148TIP3    H130859   1.125   5.426   3.956 -0.4007 -0.1692  0.4018
 3148TIP3    H230860   1.121   5.573   3.921 -0.7031 -0.2202  0.2241
 3149TIP3   OH230861   3.590   2.090   3.835 -0.4511 -0.4360 -0.3403
 3149TIP3    H130862   3.543   2.106   3.917 -0.8741  0.8013 -0.8040
 3149TIP3    H230863   3.681   2.078   3.862 -1.0359 -3.4359  0.6316
 3150TIP3   OH230864   3.857   5.501  11.313  0.2288 -0.0219 -0.0292
 3150TIP3    H130865   3.809   5.559  11.253 -0.4036 -0.4334  0.0629
 3150TIP3    H230866   3.792   5.477  11.379  1.1338  1.1264  1.3494
 3151TIP3   OH230867   4.228   0.403  11.673 -0.0225  0.1454  0.0901
 3151TIP3    H130868   4.257   0.467  11.608 -0.0412  0.8370  0.7464
 3151TIP3    H230869   4.153   0.360  11.633  0.6858 -0.2798 -0.8253
 3152TIP3   OH230870   2.644   6.327   4.865 -0.0407 -0.2884  0.2380
 3152TIP3    H130871   2.575   6.262   4.880 -0.8096  0.3478 -0.4889
 3152TIP3    H230872   2.599   6.410   4.859  1.0381  0.5148  2.2456
 3153TIP3   OH230873   6.130   0.085   1.840  0.4989  0.2641  0.1672
 3153TIP3    H130874   6.188   0.013   1.866 -0.3035 -0.1255  0.9015
 3153TIP3    H230875   6.100   0.061   1.753  1.0559  0.2319 -0.0232
 3154TIP3   OH230876   4.266   2.536  10.988 -0.4265  0.3324  0.4822
 3154TIP3    H130877   4.322   2.612  11.003  0.2077 -0.0437  0.1141
 3154TIP3    H230878   4.214   2.528  11.067 -1.5743  2.0201 -0.0425
 3155TIP3   OH230879   4.891   5.858   2.011 -0.2232  0.0674 -0.0325
 3155TIP3    H130880   4.915   5.816   2.093 -1.3644 -1.3727 -0.3837
 3155TIP3    H230881   4.834   5.930   2.037  1.9780  1.6511  0.5998
 3156TIP3   OH230882   1.962   6.725  16.368  0.2478  0.2797 -0.5387
 3156TIP3    H130883   1.946   6.692  16.456 -0.1855  1.0157 -0.3339
 3156TIP3    H230884   1.876   6.725  16.326  0.4799 -0.2456 -1.0333
 3157TIP3   OH230885   4.277   4.538   1.106 -0.0977  0.0914  0.3452
 3157TIP3    H130886   4.252   4.628   1.083 -0.5174  0.5868  2.5321
 3157TIP3    H230887   4.296   4.542   1.199  1.1989 -1.8411  0.2094
 3158TIP3   OH230888   5.242   1.504  13.485  0.0268 -0.4098  0.4202
 3158TIP3    H130889   5.155   1.505  13.526 -0.7414 -1.5175 -1.0819
 3158TIP3    H230890   5.283   1.585  13.514 -0.7332 -0.7612  2.7354
 3159TIP3   OH230891   4.352   1.545  16.973 -0.5480 -0.3302 -0.1296
 3159TIP3    H130892   4.427   1.561  16.916  0.7848 -2.0340  1.0479
 3159TIP3    H230893   4.302   1.476  16.928 -0.8924  0.1170 -0.4407
 3160TIP3   OH230894   3.804   5.585   5.432  0.3211 -0.1669  0.0487
 3160TIP3    H130895   3.770   5.580   5.343  1.2918  1.9505 -0.4992
 3160TIP3    H230896   3.899   5.570   5.423  0.6639  1.5299  0.4723
 3161TIP3   OH230897   1.741   0.567  11.781  0.3387  0.1117 -0.2339
 3161TIP3    H130898   1.740   0.502  11.851  0.3195 -0.3514 -0.6603
 3161TIP3    H230899   1.761   0.650  11.826 -0.1446 -0.0934  0.3821
 3162TIP3   OH230900   4.331   5.507  12.847 -0.2116 -0.1117 -0.2349
 3162TIP3    H130901   4.380   5.440  12.895 -0.4731 -0.2087 -0.1009
 3162TIP3    H230902   4.296   5.461  12.771  0.9088  0.2391 -0.9780
 3163TIP3   OH230903   5.014   4.400  11.360 -0.0580  0.4630  0.0010
 3163TIP3    H130904   5.038   4.475  11.414  0.2053 -0.3481  1.0557
 3163TIP3    H230905   4.934   4.365  11.401 -1.3131  1.2932 -1.6322
 3164TIP3   OH230906   0.903   3.493   4.558  0.5118 -0.9058  0.7482
 3164TIP3    H130907   0.994   3.519   4.543  0.4139 -1.3648 -0.8013
 3164TIP3    H230908   0.887   3.423   4.494 -1.1219 -0.3473  0.5015
 3165TIP3   OH230909   6.131   4.588  13.183  0.2933 -0.3306  0.2568
 3165TIP3    H130910   6.213   4.594  13.230  0.6653 -1.8455 -0.1612
 3165TIP3    H230911   6.151   4.624  13.096  0.4595 -0.4857  0.2302
 3166TIP3   OH230912   6.373   4.030   3.361 -0.2407  0.4849  0.2202
 3166TIP3    H130913   6.460   4.050   3.396 -0.7196  0.7186  1.3009
 3166TIP3    H230914   6.336   4.115   3.338 -1.0438  0.6017  1.8593
 3167TIP3   OH230915   2.203   2.113   3.344  0.2518 -0.1621 -0.2316
 3167TIP3    H130916   2.135   2.050   3.368 -1.2937  1.3443 -0.4174
 3167TIP3    H230917   2.272   2.060   3.304  0.5718 -2.1114  2.6279
 3168TIP3   OH230918   5.918   6.200   5.642  0.2366 -0.2507  0.5269
 3168TIP3    H130919   5.997   6.147   5.629  1.0692  1.2204 -0.8188
 3168TIP3    H230920   5.944   6.267   5.704 -0.2103 -0.2332  0.7003
 3169TIP3   OH230921   2.097   2.746   2.165 -0.0454  0.2870  0.4094
 3169TIP3    H130922   2.014   2.786   2.189 -0.2001 -0.7463  1.6704
 3169TIP3    H230923   2.089   2.729   2.071 -0.8715  1.0606  0.3278
 3170TIP3   OH230924   1.167   4.478   4.998 -0.2128 -0.5053 -0.1764
 3170TIP3    H130925   1.211   4.442   5.075 -1.9462 -1.4564  0.4200
 3170TIP3    H230926   1.074   4.479   5.021 -0.4601  2.5482 -0.9402
 3171TIP3   OH230927   6.455   0.494  15.908 -0.0282  0.1040  0.1072
 3171TIP3    H130928   6.412   0.549  15.841 -0.5370 -1.3075 -0.7662
 3171TIP3    H230929   6.548   0.498  15.886  0.1771  1.9896  1.1143
 3172TIP3   OH230930   3.905   4.526  13.476  0.0167 -0.5516 -0.3650
 3172TIP3    H130931   3.916   4.438  13.441  0.5491  0.5006 -3.0988
 3172TIP3    H230932   3.989   4.569  13.460  0.1988  0.1562  2.0676
 3173TIP3   OH230933   4.080   5.889  14.138  0.3824 -0.4078  0.5764
 3173TIP3    H130934   4.171   5.900  14.111 -0.2421  0.3405 -1.4341
 3173TIP3    H230935   4.061   5.797  14.121  0.0789 -0.0097 -1.4828
 3174TIP3   OH230936   4.438   3.067  13.155  0.0466 -0.0648 -0.1985
 3174TIP3    H130937   4.397   3.092  13.237 -0.1957 -1.0514 -0.0108
 3174TIP3    H230938   4.529   3.097  13.163 -0.5039  1.8291 -0.4850
 3175TIP3   OH230939   0.160   2.691  15.865  0.1046  0.6131 -0.3480
 3175TIP3    H130940   0.100   2.659  15.933 -0.8465  0.0202 -1.4266
 3175TIP3    H230941   0.215   2.615  15.845  1.6385  1.3141  1.0339
 3176TIP3   OH230942   1.422   1.315  14.813 -0.2364  0.1866 -0.3445
 3176TIP3    H130943   1.483   1.279  14.750  1.8536  0.7703  1.2468
 3176TIP3    H230944   1.399   1.241  14.869  1.7753  0.6094  1.1407
 3177TIP3   OH230945   2.046   0.831  16.973 -0.1603  0.6119  0.4048
 3177TIP3    H130946   2.095   0.831  17.055  1.7892  0.5490 -0.7043
 3177TIP3    H230947   2.109   0.803  16.907 -1.4497  1.4078 -1.2534
 3178TIP3   OH230948   2.952   0.495  13.220 -0.1305  0.3541  0.0275
 3178TIP3    H130949   3.000   0.463  13.296  1.1027  0.9799 -0.4634
 3178TIP3    H230950   2.979   0.437  13.148 -1.6439 -0.5372  0.1154
 3179TIP3   OH230951   5.772   2.868  13.110  0.6086  0.0409  0.0040
 3179TIP3    H130952   5.750   2.775  13.100  0.5149 -0.1327  1.5032
 3179TIP3    H230953   5.742   2.908  13.029  0.4804 -1.2084 -0.6004
 3180TIP3   OH230954   2.417   3.567  13.193  0.2253  0.7766  0.4520
 3180TIP3    H130955   2.501   3.542  13.231  0.5894 -0.4263 -1.0429
 3180TIP3    H230956   2.430   3.657  13.164  1.1842  0.4253 -0.2418
 3181TIP3   OH230957   2.857   0.339   0.274  0.4412 -0.3363 -0.4966
 3181TIP3    H130958   2.783   0.384   0.314  0.6947  0.4463 -0.8918
 3181TIP3    H230959   2.841   0.247   0.293 -0.2905 -0.1233 -0.0092
 3182TIP3   OH230960   3.367   6.505  12.615 -0.1653 -0.5589 -0.5310
 3182TIP3    H130961   3.350   6.585  12.665  1.2697 -0.3636 -0.3094
 3182TIP3    H230962   3.366   6.533  12.523  1.8559  0.0713 -0.4058
 3183TIP3   OH230963   0.288   1.048  16.852 -0.1413 -0.1751  0.4464
 3183TIP3    H130964   0.253   0.969  16.894  1.9077 -1.0570  0.6182
 3183TIP3    H230965   0.375   1.023  16.822  0.3437  1.8658 -0.0210
 3184TIP3   OH230966   0.551   2.675   6.263  0.0458 -0.3437  0.6141
 3184TIP3    H130967   0.528   2.693   6.354  2.2751 -1.9699  1.6038
 3184TIP3    H230968   0.487   2.610   6.234  0.8453 -1.8148  1.9593
 3185TIP3   OH230969   1.383   2.596   2.025  0.3126  0.2555  0.6311
 3185TIP3    H130970   1.331   2.619   1.949  1.1338  1.5662  0.4451
 3185TIP3    H230971   1.364   2.503   2.039  0.5472 -0.1687 -1.4948
 3186TIP3   OH230972   0.180   0.897   4.493  0.4998  0.1831 -0.0552
 3186TIP3    H130973   0.119   0.847   4.547  0.9301  0.7430  0.9815
 3186TIP3    H230974   0.124   0.947   4.434 -0.0371  0.5559  0.7573
 3187TIP3   OH230975   2.014   3.586   0.384 -0.4666  0.0987 -0.2616
 3187TIP3    H130976   2.091   3.636   0.356 -1.1960  0.9129 -0.8637
 3187TIP3    H230977   2.032   3.497   0.355 -0.7116  0.6905 -2.4577
 3188TIP3   OH230978   4.907   3.081  16.396 -0.0649  0.0100  0.4586
 3188TIP3    H130979   4.876   3.168  16.423  1.4848  1.1519 -1.2396
 3188TIP3    H230980   4.848   3.056  16.325  1.1103  0.9618 -0.9151
 3189TIP3   OH230981   6.732   5.800  12.821 -0.2999  0.6615 -0.0709
 3189TIP3    H130982   6.672   5.742  12.775  0.7717 -0.1481 -0.4901
 3189TIP3    H230983   6.766   5.858  12.754  0.6769 -0.0156 -0.1893
 3190TIP3   OH230984   5.968   6.296   4.717  0.1558  0.0195 -0.0946
 3190TIP3    H130985   5.925   6.352   4.782 -0.7529  0.6995 -1.2367
 3190TIP3    H230986   5.964   6.208   4.755  0.9915  0.6048  1.4227
 3191TIP3   OH230987   5.763   5.260  16.808  0.1357  0.2917 -0.0056
 3191TIP3    H130988   5.726   5.321  16.744  0.2379  1.0129  0.6036
 3191TIP3    H230989   5.840   5.223  16.764  0.4030  1.0342 -0.1906
 3192TIP3   OH230990   2.408   5.855  12.682 -0.2065  0.2105  0.3930
 3192TIP3    H130991   2.393   5.872  12.775  0.0795 -0.8142  0.6378
 3192TIP3    H230992   2.479   5.915  12.658 -0.9407  1.1709  0.5813
 3193TIP3   OH230993   2.323   5.058   4.848 -0.5535 -0.2722  0.2162
 3193TIP3    H130994   2.338   4.973   4.889  1.7260 -0.0289 -0.0013
 3193TIP3    H230995   2.282   5.111   4.916 -2.1024 -1.5232  0.3234
 3194TIP3   OH230996   0.136   3.051  16.900 -0.0486 -0.2780  0.3863
 3194TIP3    H130997   0.207   3.017  16.845  0.5940 -0.2123  1.1538
 3194TIP3    H230998   0.091   2.973  16.931 -0.6150 -0.3088 -0.4670
 3195TIP3   OH230999   2.295   1.271  11.559  0.1354  0.2894 -0.2818
 3195TIP3    H131000   2.254   1.251  11.475  0.0197 -0.2319 -0.1066
 3195TIP3    H231001   2.223   1.264  11.623  0.4912 -0.6262  0.0282
 3196TIP3   OH231002   1.986   3.344   5.732  0.2590 -0.2293  0.8492
 3196TIP3    H131003   1.942   3.423   5.762 -0.1618  0.2307 -0.8735
 3196TIP3    H231004   1.916   3.280   5.720 -0.0350  0.4431 -1.7018
 3197TIP3   OH231005   2.199   1.048  16.357  0.2069  0.5305  0.0954
 3197TIP3    H131006   2.169   1.118  16.414 -1.7054 -0.9573  1.0086
 3197TIP3    H231007   2.119   1.011  16.320  1.1711 -1.1533 -0.4002
 3198TIP3   OH231008   2.810   0.944  12.521 -0.3667  0.2046 -0.6133
 3198TIP3    H131009   2.899   0.947  12.556 -0.3522 -1.6873 -0.3824
 3198TIP3    H231010   2.783   1.036  12.516  0.9411  0.7310  1.0096
 3199TIP3   OH231011   0.950   1.666  11.064  0.0334 -0.0589 -0.0687
 3199TIP3    H131012   1.010   1.655  10.990 -0.5296 -2.1014 -0.2781
 3199TIP3    H231013   0.969   1.754  11.097  0.8286  0.6167 -2.1562
 3200TIP3   OH231014   4.800   4.862  16.823  0.4837  0.6773  0.1966
 3200TIP3    H131015   4.886   4.832  16.850  0.6060  0.6249 -0.2519
 3200TIP3    H231016   4.799   4.851  16.728 -0.2500  0.0619  0.2645
 3201TIP3   OH231017   2.141   1.191  14.000  0.1681 -0.0779  0.1959
 3201TIP3    H131018   2.053   1.201  14.037  0.3658 -0.3096  0.7253
 3201TIP3    H231019   2.134   1.231  13.913 -1.1676 -2.3772 -0.8487
 3202TIP3   OH231020   4.920   5.163   0.556 -0.4611  0.4615 -0.1669
 3202TIP3    H131021   4.879   5.186   0.472  0.5041  1.2034 -0.4477
 3202TIP3    H231022   4.981   5.092   0.534 -1.1808 -0.2745  0.1572
 3203TIP3   OH231023   2.413   2.024  15.151 -0.3220 -0.0991 -0.3945
 3203TIP3    H131024   2.367   2.078  15.215  0.2011 -0.4057  0.2474
 3203TIP3    H231025   2.441   1.947  15.199 -0.9842 -0.9197 -1.2926
 3204TIP3   OH231026   4.671   1.761  14.825  0.5482 -0.3381  0.5506
 3204TIP3    H131027   4.628   1.676  14.814 -0.3121  0.2522 -0.8817
 3204TIP3    H231028   4.604   1.817  14.865 -0.0767  0.5709 -1.6398
 3205TIP3   OH231029   5.170   1.605   2.206 -0.4933 -0.2848  0.3576
 3205TIP3    H131030   5.194   1.567   2.121 -1.5455 -1.3012  0.4923
 3205TIP3    H231031   5.170   1.700   2.190  2.3459 -0.2399  0.0563
 3206TIP3   OH231032   2.254   2.975   5.547 -0.0038 -0.3615  0.2278
 3206TIP3    H131033   2.233   3.024   5.627 -1.3845 -1.0715  0.3261
 3206TIP3    H231034   2.349   2.984   5.538 -0.1045  1.5921  0.7034
 3207TIP3   OH231035   2.503   2.570  13.081  0.0845 -0.2000 -0.1257
 3207TIP3    H131036   2.470   2.647  13.035  1.3691  0.2492 -0.3381
 3207TIP3    H231037   2.559   2.525  13.017 -0.6301 -1.3177 -0.0018
 3208TIP3   OH231038   4.112   3.707  13.468  0.8306  0.2593 -0.0917
 3208TIP3    H131039   4.185   3.647  13.484  0.4643  0.1007  1.1146
 3208TIP3    H231040   4.154   3.791  13.447  1.3431 -0.5122 -2.3555
 3209TIP3   OH231041   5.388   4.942  15.224 -0.0609  0.0552 -0.8783
 3209TIP3    H131042   5.361   4.948  15.132 -0.2992 -0.2913 -0.8326
 3209TIP3    H231043   5.411   5.032  15.248 -1.7192  0.4798 -0.7550
 3210TIP3   OH231044   4.680   0.321  13.238  0.4982 -0.0970  0.4373
 3210TIP3    H131045   4.746   0.312  13.307  0.6540  0.5032  0.3705
 3210TIP3    H231046   4.651   0.412  13.244  0.9034  0.1200 -0.6263
 3211TIP3   OH231047   2.773   4.110  14.518  0.0032  0.5445  0.3692
 3211TIP3    H131048   2.784   4.048  14.445 -1.5014 -1.9122  2.0833
 3211TIP3    H231049   2.841   4.086  14.580 -0.8736  0.2290  1.2444
 3212TIP3   OH231050   0.471   3.720   6.543 -0.7470 -0.0324 -0.6654
 3212TIP3    H131051   0.493   3.811   6.561  2.4085 -0.1769 -2.8802
 3212TIP3    H231052   0.481   3.675   6.627 -0.5185  1.3587  0.0737
 3213TIP3   OH231053   5.875   3.646  13.385  0.5930  0.0132 -0.2936
 3213TIP3    H131054   5.829   3.582  13.330 -2.1676  0.6715  1.0617
 3213TIP3    H231055   5.895   3.718  13.326 -1.9363  0.5250 -0.6408
 3214TIP3   OH231056   3.078   5.641  12.130 -0.2135  0.3069 -0.4686
 3214TIP3    H131057   3.046   5.705  12.194  0.1916  0.9292 -0.8763
 3214TIP3    H231058   3.006   5.631  12.068 -0.9135 -0.8878  0.4863
 3215TIP3   OH231059   5.680   1.030  15.905  0.1940 -0.1577 -0.2039
 3215TIP3    H131060   5.629   1.084  15.845  0.1127  2.0862  1.7689
 3215TIP3    H231061   5.742   1.091  15.945 -0.1072 -1.4180  2.3710
 3216TIP3   OH231062   5.012   6.080   0.871  0.4555 -0.0610  0.0076
 3216TIP3    H131063   5.031   6.023   0.945 -1.0500  2.5247  2.6384
 3216TIP3    H231064   5.086   6.141   0.868  0.5180 -0.1681 -0.6332
 3217TIP3   OH231065   4.297   1.254   4.970  0.2967  0.0899  0.1047
 3217TIP3    H131066   4.270   1.240   5.061 -0.0325  3.1805  0.5725
 3217TIP3    H231067   4.392   1.247   4.972  0.1828 -2.6224  0.0571
 3218TIP3   OH231068   3.420   2.932  12.081  0.0082  0.6043 -0.6948
 3218TIP3    H131069   3.381   3.014  12.113 -1.5105 -0.8578  1.4911
 3218TIP3    H231070   3.510   2.934  12.112  0.1207  1.6135 -1.0468
 3219TIP3   OH231071   1.136   0.523  10.934  0.1530 -0.6297  0.6555
 3219TIP3    H131072   1.195   0.490  11.002 -1.7179  0.4441  2.9621
 3219TIP3    H231073   1.147   0.618  10.938  0.1913 -0.5602 -0.7519
 3220TIP3   OH231074   3.010   4.603   3.866  0.0075 -0.0148 -0.7300
 3220TIP3    H131075   3.087   4.555   3.838  0.8301  0.9739 -0.2397
 3220TIP3    H231076   3.044   4.686   3.900 -1.3124  0.7367 -1.1262
 3221TIP3   OH231077   5.264   4.077  14.978 -0.2499  0.5116 -0.7170
 3221TIP3    H131078   5.339   4.134  14.964  0.0188  1.1000  2.4822
 3221TIP3    H231079   5.301   3.995  15.009 -0.8519  0.3316 -0.4484
 3222TIP3   OH231080   0.566   3.419   5.371  0.0922 -0.4543  0.3592
 3222TIP3    H131081   0.520   3.419   5.455  0.4586 -1.4841  0.5701
 3222TIP3    H231082   0.622   3.341   5.374 -1.1540 -1.4818 -1.5364
 3223TIP3   OH231083   2.625   2.393  16.637  0.6484 -0.5120  0.0719
 3223TIP3    H131084   2.694   2.327  16.644  2.5436  1.0621 -1.9482
 3223TIP3    H231085   2.627   2.440  16.720 -0.2477 -2.4944  1.2582
 3224TIP3   OH231086   0.627   3.179   3.013  0.2031 -0.4097 -0.2205
 3224TIP3    H131087   0.656   3.118   3.081 -1.5790 -0.8231  0.2193
 3224TIP3    H231088   0.704   3.234   2.996  0.8567 -0.6345  1.7447
 3225TIP3   OH231089   5.858   5.967  15.661 -0.0189  0.2292  0.7780
 3225TIP3    H131090   5.842   5.998  15.572  1.0731 -0.9047  0.1410
 3225TIP3    H231091   5.936   6.014  15.689 -0.3869  0.6163  1.1576
 3226TIP3   OH231092   3.516   2.921   1.043 -0.0722  0.3307 -0.3167
 3226TIP3    H131093   3.541   2.957   1.128  0.4795 -1.3990  0.2846
 3226TIP3    H231094   3.596   2.925   0.990  0.1561 -0.5269 -0.0507
 3227TIP3   OH231095   1.285   5.023  15.284  0.0649 -0.1956  0.0230
 3227TIP3    H131096   1.199   5.048  15.317 -0.0551  0.2411 -0.6085
 3227TIP3    H231097   1.273   5.010  15.190  0.6949 -0.0673 -0.0843
 3228TIP3   OH231098   5.604   3.011   5.961  0.5090 -0.8583 -0.2519
 3228TIP3    H131099   5.524   2.958   5.953  1.3853 -2.2697  0.0247
 3228TIP3    H231100   5.669   2.951   5.996  1.4754  0.5113  0.3636
 3229TIP3   OH231101   5.925   4.661   3.656  0.1299  0.1228  0.6280
 3229TIP3    H131102   5.848   4.610   3.680 -1.7415  0.4907 -3.6861
 3229TIP3    H231103   5.894   4.752   3.656  0.1881  0.2125 -1.9219
 3230TIP3   OH231104   0.498   6.543   0.573  0.2629  0.2614  0.4372
 3230TIP3    H131105   0.464   6.456   0.554  0.0201  0.0486  1.7935
 3230TIP3    H231106   0.431   6.603   0.540  0.3160 -0.0624 -0.2715
 3231TIP3   OH231107   5.025   3.079   5.614 -0.3650  0.2644  0.1045
 3231TIP3    H131108   5.040   3.055   5.706 -0.2360 -0.8515 -0.1995
 3231TIP3    H231109   5.003   2.997   5.571  2.1450  0.2907 -1.3986
 3232TIP3   OH231110   3.296   2.909   1.332  0.5301 -0.4393  0.2833
 3232TIP3    H131111   3.308   2.976   1.265  0.4137  0.2402  0.9223
 3232TIP3    H231112   3.379   2.862   1.335  0.3549 -0.8358 -0.7049
 3233TIP3   OH231113   3.951   6.774  15.872 -0.1245 -0.5241  0.4094
 3233TIP3    H131114   3.936   6.723  15.792  1.7726  0.8966 -0.9434
 3233TIP3    H231115   3.900   6.854  15.859  0.9497  0.1372  0.1302
 3234TIP3   OH231116   0.190   2.133  13.701  0.1071 -0.6813  0.4195
 3234TIP3    H131117   0.193   2.185  13.621 -1.9183 -0.3325  0.5154
 3234TIP3    H231118   0.255   2.173  13.758  1.3351 -0.7070 -0.8888
 3235TIP3   OH231119   3.907   5.342  15.673  0.0127  0.4101 -0.4379
 3235TIP3    H131120   3.824   5.303  15.643  0.2262 -0.6456  0.2945
 3235TIP3    H231121   3.974   5.295  15.623  0.2037  0.9536 -0.7015
 3236TIP3   OH231122   0.247   2.225   3.733 -0.4406 -0.2700 -0.1661
 3236TIP3    H131123   0.221   2.295   3.792  1.0587  0.1216  0.0676
 3236TIP3    H231124   0.183   2.156   3.748 -1.2339  0.5867  0.4672
 3237TIP3   OH231125   4.862   6.036  15.963 -0.1877 -0.5112 -0.7456
 3237TIP3    H131126   4.883   6.016  16.054  1.2079 -1.0583 -1.1420
 3237TIP3    H231127   4.769   6.058  15.963 -0.0120  0.3788  0.9358
 3238TIP3   OH231128   2.175   1.675   0.620  0.0339 -0.5866 -1.2522
 3238TIP3    H131129   2.180   1.588   0.580  0.4186 -1.4881  0.6433
 3238TIP3    H231130   2.086   1.704   0.602 -0.7882 -2.2830 -0.1913
 3239TIP3   OH231131   6.032   5.847  13.427  0.0903  0.3234  0.1759
 3239TIP3    H131132   6.094   5.920  13.420 -0.0595  0.5541  1.1011
 3239TIP3    H231133   6.066   5.793  13.498 -0.8005  0.4901  0.7453
 3240TIP3   OH231134   0.796   1.288  11.903 -0.3729 -0.5321  0.0491
 3240TIP3    H131135   0.869   1.267  11.962 -0.3389  0.3786  0.3459
 3240TIP3    H231136   0.837   1.333  11.830 -0.7433  0.9878  0.7447
 3241TIP3   OH231137   2.490   2.886  15.860  0.0049  0.2351  0.1869
 3241TIP3    H131138   2.403   2.913  15.888 -0.6121 -1.0148 -0.4196
 3241TIP3    H231139   2.475   2.808  15.806  1.3272  1.1043 -1.5463
 3242TIP3   OH231140   2.473   1.891  12.693  0.8882 -0.0295 -0.7156
 3242TIP3    H131141   2.537   1.837  12.740 -0.4889  0.0325  1.3425
 3242TIP3    H231142   2.431   1.831  12.631  1.1187 -0.7049 -0.2278
 3243TIP3   OH231143   0.722   2.429  15.668  0.5740 -0.1085  0.4226
 3243TIP3    H131144   0.722   2.336  15.692  0.4879 -0.1256  0.3604
 3243TIP3    H231145   0.788   2.435  15.599 -0.9449 -0.5476 -1.1408
 3244TIP3   OH231146   1.521   5.809   3.561 -0.2705  0.0879  0.6291
 3244TIP3    H131147   1.465   5.739   3.526  0.6045 -1.5663  2.3645
 3244TIP3    H231148   1.610   5.778   3.547  0.1929  1.4807  0.2962
 3245TIP3   OH231149   0.836   5.307   5.083  0.2169  0.2449 -0.5685
 3245TIP3    H131150   0.908   5.283   5.142  1.4766  0.3625 -2.0240
 3245TIP3    H231151   0.794   5.381   5.126 -0.3550 -1.0861  1.3125
 3246TIP3   OH231152   4.039   1.624   3.533 -0.1337 -0.3158  0.4288
 3246TIP3    H131153   4.109   1.576   3.578  0.3318 -1.1464 -1.0963
 3246TIP3    H231154   3.958   1.595   3.576  0.3428 -0.4747  1.2391
 3247TIP3   OH231155   5.306   1.514  11.305  0.1225  0.0093 -0.1451
 3247TIP3    H131156   5.364   1.526  11.381  1.3959  3.0592 -1.4365
 3247TIP3    H231157   5.363   1.480  11.237 -0.7691 -1.6288 -0.1120
 3248TIP3   OH231158   1.155   1.306  12.907 -0.3141 -0.1039 -0.2634
 3248TIP3    H131159   1.153   1.224  12.859  0.1478 -0.3983  0.1994
 3248TIP3    H231160   1.234   1.350  12.876 -0.3168 -0.0446 -0.1869
 3249TIP3   OH231161   0.097   4.389   3.550  0.5331  0.1161 -0.4035
 3249TIP3    H131162   0.008   4.401   3.516  0.4048 -0.9252 -0.4642
 3249TIP3    H231163   0.097   4.300   3.584  0.6302  1.1161  2.4209
 3250TIP3   OH231164   3.579   4.704   0.823  0.2117  0.7239  0.4888
 3250TIP3    H131165   3.584   4.718   0.728  1.0533 -0.0230  0.3998
 3250TIP3    H231166   3.507   4.759   0.852  0.0860  1.1384 -0.5562
 3251TIP3   OH231167   5.194   2.037  11.848 -0.5678  0.0986 -0.5900
 3251TIP3    H131168   5.244   2.038  11.930 -1.4085 -0.2350 -0.0580
 3251TIP3    H231169   5.127   2.104  11.861 -0.5912  0.1687 -1.0779
 3252TIP3   OH231170   2.430   4.825  12.137  0.0221  0.4815  0.1322
 3252TIP3    H131171   2.422   4.735  12.167  3.4260 -0.5179 -1.3999
 3252TIP3    H231172   2.452   4.818  12.044 -0.3801  2.9563 -0.2420
 3253TIP3   OH231173   4.230   2.629   2.979  0.6334  0.2888 -0.3500
 3253TIP3    H131174   4.269   2.567   3.041  1.5903  0.5539 -0.6699
 3253TIP3    H231175   4.255   2.596   2.893 -0.8214 -0.1644 -0.6222
 3254TIP3   OH231176   5.303   3.332   3.109  0.6487  0.2620  0.4760
 3254TIP3    H131177   5.247   3.260   3.137  0.1762 -0.1133 -1.2839
 3254TIP3    H231178   5.371   3.290   3.057 -0.4048  1.1257 -1.7482
 3255TIP3   OH231179   3.879   0.981  16.434 -0.1057 -0.1056 -0.0996
 3255TIP3    H131180   3.803   1.012  16.484  1.0671  0.7983  1.1766
 3255TIP3    H231181   3.841   0.926  16.365 -1.7783 -1.8239  2.0271
 3256TIP3   OH231182   6.430   1.433   4.197 -0.0384  0.2119 -1.1582
 3256TIP3    H131183   6.457   1.522   4.177 -1.7550  0.8867 -0.6600
 3256TIP3    H231184   6.500   1.378   4.161  0.9908  1.7291 -1.5879
 3257TIP3   OH231185   4.309   4.500   1.818 -0.2403 -0.4674 -0.1850
 3257TIP3    H131186   4.259   4.423   1.845 -0.3995 -0.2720  0.0777
 3257TIP3    H231187   4.313   4.555   1.896  1.4432 -1.0329  0.1556
 3258TIP3   OH231188   3.214   0.921  11.799  0.2023 -0.5019 -0.2401
 3258TIP3    H131189   3.132   0.942  11.754  0.2930  1.1912  0.2943
 3258TIP3    H231190   3.243   1.005  11.836  0.4646 -1.6440  2.3920
 3259TIP3   OH231191   5.687   3.933  15.320 -0.4143  0.3033  0.3032
 3259TIP3    H131192   5.754   3.954  15.386 -0.1805  1.2992 -0.2303
 3259TIP3    H231193   5.615   3.897  15.370 -0.2861  1.1494  1.1361
 3260TIP3   OH231194   2.881   6.568  13.340  0.4457  0.6225  0.6965
 3260TIP3    H131195   2.969   6.542  13.314  0.3106 -0.1339  0.9757
 3260TIP3    H231196   2.849   6.621  13.266  1.0718  0.7796  0.5327
 3261TIP3   OH231197   3.619   4.826  16.871  0.3790 -0.7975  0.1078
 3261TIP3    H131198   3.584   4.744  16.834 -0.3667  0.0524 -1.1570
 3261TIP3    H231199   3.708   4.832  16.836  0.5527 -1.2250  0.4696
 3262TIP3   OH231200   4.054   3.014  16.085 -0.4652  0.1305 -0.2218
 3262TIP3    H131201   4.049   3.101  16.047  0.1871  0.0710 -0.4738
 3262TIP3    H231202   4.144   3.008  16.119 -0.6236 -0.3012  0.1292
 3263TIP3   OH231203   1.303   4.907   4.407  0.5026  0.0190 -0.1951
 3263TIP3    H131204   1.287   4.958   4.486 -1.3084  0.7092 -0.9577
 3263TIP3    H231205   1.264   4.821   4.426 -2.2461  0.9537 -1.1701
 3264TIP3   OH231206   5.914   1.012  16.487 -0.0941  0.0600 -0.5535
 3264TIP3    H131207   5.977   0.975  16.550  0.9090 -0.5670 -1.8902
 3264TIP3    H231208   5.921   1.107  16.500 -1.2588 -0.0719  1.5326
 3265TIP3   OH231209   6.390   6.559   3.000  0.0163  0.6595  0.2582
 3265TIP3    H131210   6.476   6.525   2.976 -0.3852 -0.2931  0.1091
 3265TIP3    H231211   6.355   6.596   2.919  1.5171  3.9439  0.9606
 3266TIP3   OH231212   6.105   5.146   3.930  0.3912  0.1318 -0.3460
 3266TIP3    H131213   6.104   5.103   3.844 -0.7319  0.0615 -0.3150
 3266TIP3    H231214   6.154   5.086   3.986 -0.4724 -0.7497 -0.5028
 3267TIP3   OH231215   3.697   1.624   0.785 -0.1806  0.4470  0.1315
 3267TIP3    H131216   3.656   1.539   0.798  0.1506  0.3889  0.8146
 3267TIP3    H231217   3.634   1.687   0.822 -0.3907  0.4991 -0.3045
 3268TIP3   OH231218   3.581   1.758  16.387 -0.4067 -0.5679  0.1312
 3268TIP3    H131219   3.493   1.720  16.389 -0.2100 -1.0338 -0.0214
 3268TIP3    H231220   3.632   1.697  16.334  0.2877 -0.9165  1.1702
 3269TIP3   OH231221   5.552   2.064   1.088 -0.0081  0.2011  0.1513
 3269TIP3    H131222   5.604   2.140   1.115 -0.3260  0.1023  1.0825
 3269TIP3    H231223   5.465   2.080   1.126 -0.7934  0.5507 -1.7040
 3270TIP3   OH231224   1.390   4.032   2.951 -0.5287  0.4410  0.0508
 3270TIP3    H131225   1.336   4.025   3.029 -0.1775 -1.0748  0.1843
 3270TIP3    H231226   1.476   3.999   2.978 -0.1822  0.6261 -0.7737
 3271TIP3   OH231227   2.380   1.267   0.847  0.6103 -0.3403  0.6369
 3271TIP3    H131228   2.402   1.262   0.940  2.1469 -0.3704  0.2988
 3271TIP3    H231229   2.386   1.177   0.816 -1.9659 -0.6595  0.9115
 3272TIP3   OH231230   4.517   5.454  10.193  0.6223 -0.6997 -0.5841
 3272TIP3    H131231   4.611   5.471  10.199  0.4214  1.0597 -1.7120
 3272TIP3    H231232   4.510   5.381  10.132  1.2421 -0.3764 -1.0558
 3273TIP3   OH231233   0.097   3.653  16.471 -0.2230 -0.4526  0.2140
 3273TIP3    H131234   0.100   3.746  16.495  1.8513 -0.7450  1.4334
 3273TIP3    H231235   0.005   3.635  16.454 -0.6744  1.8223 -0.0588
 3274TIP3   OH231236   3.326   6.718  12.794  0.2010  0.3831 -0.6090
 3274TIP3    H131237   3.232   6.727  12.812  0.1988 -1.0443  0.2298
 3274TIP3    H231238   3.352   6.804  12.761 -0.9835  1.4164  0.9908
 3275TIP3   OH231239   0.925   5.659  16.954  0.2666 -0.1060 -0.3032
 3275TIP3    H131240   0.950   5.618  17.037 -1.2711  0.0702  0.2780
 3275TIP3    H231241   0.907   5.586  16.895  0.3632 -0.2370 -0.1717
 3276TIP3   OH231242   4.199   2.559   4.181 -0.5888  0.1176  0.2555
 3276TIP3    H131243   4.213   2.536   4.089 -2.0832  0.3037 -0.0407
 3276TIP3    H231244   4.200   2.475   4.227 -0.2494 -0.0119  0.0142
 3277TIP3   OH231245   3.208   1.443  10.593  0.3922  0.0044 -1.0007
 3277TIP3    H131246   3.210   1.414  10.684  0.3509  1.0320 -0.6669
 3277TIP3    H231247   3.180   1.365  10.544 -0.1028 -0.4086 -0.0830
 3278TIP3   OH231248   5.225   4.467  13.835 -0.0115  0.2213 -0.4933
 3278TIP3    H131249   5.228   4.372  13.828 -0.1781  0.2816 -1.4825
 3278TIP3    H231250   5.147   4.493  13.785  0.4231  0.9223 -0.8291
 3279TIP3   OH231251   2.087   1.870  15.803  0.0485  0.1156  0.3088
 3279TIP3    H131252   2.000   1.852  15.767  0.0776  0.0095  0.2936
 3279TIP3    H231253   2.093   1.816  15.881  0.0054  0.3081  0.4454
 3280TIP3   OH231254   0.174   5.719  11.263 -0.2526 -0.2971  0.0298
 3280TIP3    H131255   0.208   5.743  11.349 -0.8570 -1.8917  0.7534
 3280TIP3    H231256   0.134   5.633  11.277  0.9971 -1.3143 -2.1790
 3281TIP3   OH231257   0.380   3.470  15.545 -0.2107 -0.0539 -0.1692
 3281TIP3    H131258   0.464   3.446  15.506  0.4086  0.3591  0.8558
 3281TIP3    H231259   0.360   3.556  15.510 -1.8594 -1.4323 -2.9448
 3282TIP3   OH231260   0.716   0.453  13.295  0.0243  0.1712 -0.4192
 3282TIP3    H131261   0.681   0.521  13.352 -0.0868  0.2033 -0.5253
 3282TIP3    H231262   0.799   0.429  13.335 -1.1705 -1.5687  1.1710
 3283TIP3   OH231263   5.251   1.368  14.404  0.1095 -0.2109  0.2822
 3283TIP3    H131264   5.189   1.397  14.471  0.2498  3.0668 -0.8459
 3283TIP3    H231265   5.337   1.383  14.444  0.1923 -0.6591  0.2735
 3284TIP3   OH231266   6.491   2.748  11.698 -0.0836  0.5688 -0.0068
 3284TIP3    H131267   6.429   2.812  11.662 -1.2083 -0.9469 -0.8523
 3284TIP3    H231268   6.546   2.724  11.624 -0.9565 -0.8914 -0.2154
 3285TIP3   OH231269   5.170   4.847   0.205 -0.2365 -0.1969 -0.1143
 3285TIP3    H131270   5.260   4.855   0.235 -0.7863 -3.1102  3.0666
 3285TIP3    H231271   5.122   4.913   0.255 -0.1779 -0.3242  0.1120
 3286TIP3   OH231272   4.453   5.665  15.798 -0.4877 -0.4708  0.2652
 3286TIP3    H131273   4.463   5.760  15.804 -0.8190 -0.4081 -0.1157
 3286TIP3    H231274   4.437   5.636  15.888  0.7115 -0.3031  0.5484
 3287TIP3   OH231275   2.253   5.987  15.058 -1.0842 -0.1473  0.3549
 3287TIP3    H131276   2.212   5.993  15.144 -0.4167 -0.8945  0.7419
 3287TIP3    H231277   2.344   6.012  15.074 -0.8386 -0.7664 -0.0372
 3288TIP3   OH231278   1.179   1.914   0.434 -0.2869  0.4028 -0.5973
 3288TIP3    H131279   1.114   1.846   0.413 -0.0981  0.4207 -1.2574
 3288TIP3    H231280   1.221   1.933   0.350 -0.6336  1.6549 -0.5067
 3289TIP3   OH231281   2.154   4.666  16.620 -0.3339  0.2762 -0.5842
 3289TIP3    H131282   2.196   4.711  16.693 -1.6266  1.6810 -0.6284
 3289TIP3    H231283   2.185   4.576  16.625 -0.2084  0.3769  1.5707
 3290TIP3   OH231284   1.365   6.602   5.673  0.1182  0.5702 -0.4289
 3290TIP3    H131285   1.288   6.586   5.618 -0.4459  1.1843  0.1514
 3290TIP3    H231286   1.404   6.516   5.686  1.5758  0.6260 -3.6245
 3291TIP3   OH231287   6.130   4.728  16.132 -0.0407 -0.3780 -0.3880
 3291TIP3    H131288   6.141   4.705  16.039 -1.9739  0.0152 -0.7646
 3291TIP3    H231289   6.064   4.667  16.164 -0.1369  0.1506  0.4556
 3292TIP3   OH231290   2.170   4.572  12.379  0.0978  0.3382 -0.4765
 3292TIP3    H131291   2.261   4.592  12.358  0.5703  1.1577  1.9949
 3292TIP3    H231292   2.141   4.646  12.432 -1.4951 -0.6757  0.1486
 3293TIP3   OH231293   1.283   1.075  13.393 -0.1828 -0.3653  0.2628
 3293TIP3    H131294   1.192   1.064  13.364 -0.2924  0.2327  0.3765
 3293TIP3    H231295   1.276   1.121  13.476  0.2583  0.2965 -0.0619
 3294TIP3   OH231296   2.042   6.768   5.503  0.2979 -0.1510 -0.0442
 3294TIP3    H131297   2.077   6.687   5.465 -1.2252  0.1722 -2.2906
 3294TIP3    H231298   1.971   6.794   5.445  0.3891  2.5499  0.8905
 3295TIP3   OH231299   3.764   5.057   2.383  0.3459 -0.3161 -0.2777
 3295TIP3    H131300   3.776   5.112   2.460  0.4239 -0.5153 -0.1466
 3295TIP3    H231301   3.707   4.986   2.414 -1.1664  0.5832 -0.8626
 3296TIP3   OH231302   6.708   4.559   5.449 -0.6890 -0.5727 -0.0075
 3296TIP3    H131303   6.720   4.624   5.519 -3.3250 -0.5107  0.4946
 3296TIP3    H231304   6.682   4.610   5.373 -0.1796 -0.8422 -0.3660
 3297TIP3   OH231305   2.789   5.798   1.939 -0.5167 -0.4988 -0.5816
 3297TIP3    H131306   2.883   5.805   1.952 -0.6610 -1.3946  1.4687
 3297TIP3    H231307   2.771   5.704   1.945 -1.4484 -0.4416 -1.9427
 3298TIP3   OH231308   4.789   0.178  14.348 -0.0785  0.4919 -0.1580
 3298TIP3    H131309   4.784   0.082  14.348 -1.1800  0.5371 -0.0859
 3298TIP3    H231310   4.705   0.206  14.312  0.1364  1.4398  0.0551
 3299TIP3   OH231311   6.231   2.551   4.082  0.4144  0.3725  0.2198
 3299TIP3    H131312   6.142   2.577   4.060  0.5360  2.0390  1.5011
 3299TIP3    H231313   6.287   2.605   4.025  0.6527 -0.8071 -0.7261
 3300TIP3   OH231314   4.872   4.673  12.693 -0.0128 -0.1301 -0.2007
 3300TIP3    H131315   4.879   4.767  12.673 -2.2819  0.1810  0.1812
 3300TIP3    H231316   4.925   4.630  12.625 -0.1336  1.3534 -1.2900
 3301TIP3   OH231317   1.744   1.714  13.987 -0.0372 -0.3520 -0.2525
 3301TIP3    H131318   1.816   1.681  14.041 -0.4878  1.2997  1.4619
 3301TIP3    H231319   1.768   1.805  13.968 -1.6394  0.2437  0.3820
 3302TIP3   OH231320   6.631   0.289  11.530  0.1272  0.8603 -0.1808
 3302TIP3    H131321   6.601   0.233  11.601 -0.6660  0.1956 -1.0201
 3302TIP3    H231322   6.647   0.374  11.571 -2.2254  1.0539  0.4593
 3303TIP3   OH231323   4.532   0.433   4.263 -0.5226 -0.4390 -0.0183
 3303TIP3    H131324   4.535   0.402   4.353  1.2828 -0.8490 -0.1843
 3303TIP3    H231325   4.624   0.441   4.237 -0.9910  0.6381 -1.4975
 3304TIP3   OH231326   2.048   4.842   4.302 -0.2981 -0.4994 -0.2326
 3304TIP3    H131327   2.011   4.904   4.239 -0.8873 -0.6716 -0.0668
 3304TIP3    H231328   2.034   4.757   4.261 -0.2428 -0.5756 -0.0891
 3305TIP3   OH231329   6.586   3.709  12.612  0.2760 -0.3050  0.1136
 3305TIP3    H131330   6.602   3.719  12.706  1.3964 -0.1238 -0.0897
 3305TIP3    H231331   6.512   3.767  12.595  0.4050  0.0731  0.7854
 3306TIP3   OH231332   6.409   3.006   6.696  0.4046  0.0742  0.0883
 3306TIP3    H131333   6.378   2.928   6.651 -0.7220 -0.1646  1.2262
 3306TIP3    H231334   6.333   3.063   6.702  0.6688  0.3360  1.1716
 3307TIP3   OH231335   1.381   6.344  14.486  0.0699  0.2531 -0.4188
 3307TIP3    H131336   1.420   6.356  14.573 -3.3376  1.0954  1.2014
 3307TIP3    H231337   1.418   6.415  14.434  1.1853  0.5847  0.7661
 3308TIP3   OH231338   3.979   0.422   5.374  0.6346 -0.0513  0.3478
 3308TIP3    H131339   3.921   0.498   5.369 -0.3856 -0.7146  1.5070
 3308TIP3    H231340   3.921   0.346   5.374  1.6287 -0.8455 -0.6627
 3309TIP3   OH231341   6.504   0.288   0.541  0.2314 -0.4296 -0.2138
 3309TIP3    H131342   6.435   0.267   0.604 -1.2399  0.5444 -1.4241
 3309TIP3    H231343   6.586   0.275   0.590 -0.8252 -0.1198  1.7490
 3310TIP3   OH231344   2.628   6.497   0.626 -0.2034  0.4853  0.8049
 3310TIP3    H131345   2.684   6.541   0.690 -0.4354 -0.6492  1.8218
 3310TIP3    H231346   2.666   6.520   0.541  0.3807  1.6512  1.3579
 3311TIP3   OH231347   6.649   4.564   0.517  0.1355  0.0804 -0.4612
 3311TIP3    H131348   6.580   4.510   0.555  0.3967  0.4783  0.6112
 3311TIP3    H231349   6.622   4.654   0.536  0.5052  0.2702 -0.8199
 3312TIP3   OH231350   1.643   1.179   3.436  0.2917  0.0884 -0.2374
 3312TIP3    H131351   1.581   1.107   3.422  2.1942 -1.9294  1.0852
 3312TIP3    H231352   1.606   1.252   3.386 -1.4394 -1.9579 -2.1847
 3313TIP3   OH231353   5.723   3.422   0.973 -0.5893  0.2590  0.1251
 3313TIP3    H131354   5.693   3.344   1.019 -0.0010  0.4143  0.7905
 3313TIP3    H231355   5.642   3.465   0.944 -0.9802  0.1499  1.0099
 3314TIP3   OH231356   3.862   1.992   4.550  0.2593 -0.4069  0.0063
 3314TIP3    H131357   3.913   1.933   4.607 -1.7206 -1.9695  0.2884
 3314TIP3    H231358   3.801   1.934   4.504 -1.6695  1.3870  0.1361
 3315TIP3   OH231359   1.467   3.816  17.071 -0.8749 -0.0247  0.9780
 3315TIP3    H131360   1.558   3.804  17.100 -0.4537  1.7330  0.4795
 3315TIP3    H231361   1.437   3.727  17.051  0.7038 -0.6530  1.2179
 3316TIP3   OH231362   4.078   2.087  16.067  0.6631 -0.8704  0.6357
 3316TIP3    H131363   4.083   2.005  16.117  0.4647 -1.1932  0.1285
 3316TIP3    H231364   4.090   2.061  15.976  0.9365 -0.2916  0.4972
 3317TIP3   OH231365   0.422   2.155  14.213 -0.2390 -0.1239  0.0910
 3317TIP3    H131366   0.385   2.181  14.129 -1.6704 -0.9514  0.4431
 3317TIP3    H231367   0.358   2.183  14.278  0.3456 -0.4454  0.8245
 3318TIP3   OH231368   4.229   4.918   1.373 -0.1545 -0.3207 -0.2742
 3318TIP3    H131369   4.278   4.851   1.326  0.9078 -0.3628  0.8225
 3318TIP3    H231370   4.168   4.869   1.428  0.6286 -0.4167  0.5349
 3319TIP3   OH231371   5.810   3.031  11.047  0.8329 -0.4604  0.0841
 3319TIP3    H131372   5.792   3.102  10.986 -0.3650 -2.6809 -2.3207
 3319TIP3    H231373   5.892   2.993  11.017 -0.3044 -2.2440 -0.9119
 3320TIP3   OH231374   6.014   0.585  16.140 -0.7242 -0.0470 -0.0128
 3320TIP3    H131375   5.977   0.656  16.088 -2.2360 -1.1826 -0.5443
 3320TIP3    H231376   5.956   0.579  16.216 -0.9603 -1.0693 -0.2591
 3321TIP3   OH231377   2.493   3.478  12.461 -0.4718  0.3522  0.4468
 3321TIP3    H131378   2.507   3.552  12.519 -0.0979  0.9012 -0.3346
 3321TIP3    H231379   2.500   3.514  12.373  0.5293 -0.7536  0.0416
 3322TIP3   OH231380   4.175   0.056   0.848  0.7831 -0.0975 -0.3945
 3322TIP3    H131381   4.081   0.053   0.866  0.5652  2.1391 -0.7915
 3322TIP3    H231382   4.214   0.083   0.932  0.8329  0.7491 -0.6717
 3323TIP3   OH231383   4.368   5.160  14.218 -0.0367 -0.2806 -0.4994
 3323TIP3    H131384   4.348   5.210  14.139 -1.1823 -0.6862 -0.4913
 3323TIP3    H231385   4.330   5.211  14.289  1.3612  0.2953 -0.1411
 3324TIP3   OH231386   3.796   0.459  15.936 -0.5032 -0.7009 -0.6105
 3324TIP3    H131387   3.859   0.470  15.864 -0.4170 -1.5677 -0.6808
 3324TIP3    H231388   3.755   0.545  15.945  0.1315 -0.3326 -1.0910
 3325TIP3   OH231389   0.848   0.667  15.803 -0.4062 -0.1176 -0.8477
 3325TIP3    H131390   0.770   0.658  15.858  0.1172 -0.8281 -0.1999
 3325TIP3    H231391   0.820   0.723  15.730 -1.0399  1.0693  0.2752
 3326TIP3   OH231392   2.985   2.761  12.194 -0.1333  0.3598  0.2144
 3326TIP3    H131393   2.902   2.782  12.151 -0.3063 -0.1239  0.3050
 3326TIP3    H231394   3.007   2.674  12.161 -0.9500 -0.6268  2.0930
 3327TIP3   OH231395   4.215   4.975  13.373 -0.0854 -0.0784 -0.0822
 3327TIP3    H131396   4.141   5.013  13.325 -0.1026  1.0003  0.7527
 3327TIP3    H231397   4.183   4.891  13.405 -0.0558 -0.8623 -1.9716
 3328TIP3   OH231398   2.390   6.511  10.124 -0.5718  0.2950 -0.1958
 3328TIP3    H131399   2.364   6.484  10.212 -0.5745  0.6898 -0.0739
 3328TIP3    H231400   2.469   6.461  10.106 -1.0320 -0.4177 -0.3030
 3329TIP3   OH231401   0.928   2.040   0.534 -0.4646 -0.1548 -0.2063
 3329TIP3    H131402   0.871   2.006   0.466 -0.6156  1.6470 -1.0411
 3329TIP3    H231403   1.016   2.035   0.497 -0.2024 -1.6473  0.5446
 3330TIP3   OH231404   5.023   6.520   4.024 -0.3430 -0.0309  0.1438
 3330TIP3    H131405   5.013   6.507   3.930  0.8857 -0.6796  0.0779
 3330TIP3    H231406   4.952   6.470   4.064 -0.9997  0.4226 -0.4291
 3331TIP3   OH231407   3.873   4.346   3.413  0.0642  0.1321  0.2402
 3331TIP3    H131408   3.921   4.294   3.477 -1.6579 -0.0347  1.4466
 3331TIP3    H231409   3.858   4.286   3.340  2.5890  0.5005 -0.6896
 3332TIP3   OH231410   5.843   3.589  15.191  0.0585 -0.0202  0.2243
 3332TIP3    H131411   5.783   3.600  15.117  1.3463  0.0207 -0.8573
 3332TIP3    H231412   5.789   3.607  15.268 -1.3830 -0.2894 -0.6729
 3333TIP3   OH231413   3.313   3.438  12.086 -0.4451 -0.4025 -0.4380
 3333TIP3    H131414   3.323   3.348  12.115  0.7887 -0.2388 -0.3117
 3333TIP3    H231415   3.330   3.435  11.992  1.3780 -0.0727 -0.1677
 3334TIP3   OH231416   4.439   3.367   5.081 -0.6268 -0.3681 -0.5657
 3334TIP3    H131417   4.365   3.380   5.021 -1.4848 -1.0923  0.3138
 3334TIP3    H231418   4.403   3.316   5.154  0.8934 -1.3226 -0.4318
 3335TIP3   OH231419   4.673   0.373   1.535 -0.8722 -0.0603  0.1492
 3335TIP3    H131420   4.726   0.297   1.560 -0.7888  0.1887  0.7707
 3335TIP3    H231421   4.734   0.431   1.490 -0.9648 -0.4091 -0.4396
 3336TIP3   OH231422   1.622   6.089   3.764  0.3614  0.0314 -0.1037
 3336TIP3    H131423   1.618   6.104   3.670  0.6254  2.9099  0.2702
 3336TIP3    H231424   1.531   6.083   3.791  0.2625  0.1913 -0.3973
 3337TIP3   OH231425   0.933   5.251   3.677 -0.7682 -0.3959 -0.1683
 3337TIP3    H131426   1.024   5.255   3.707 -1.2008  1.4749  1.0714
 3337TIP3    H231427   0.900   5.340   3.689 -3.9156 -1.7591  3.2758
 3338TIP3   OH231428   5.077   3.453  12.967 -0.1078 -0.0192 -0.3488
 3338TIP3    H131429   5.152   3.408  13.007 -0.5062 -1.4217 -1.0926
 3338TIP3    H231430   5.110   3.540  12.944  0.7252  0.0763  1.0868
 3339TIP3   OH231431   5.122   6.174   5.102 -0.8198  0.5822  0.2310
 3339TIP3    H131432   5.085   6.227   5.173 -1.2988 -0.3238  0.6766
 3339TIP3    H231433   5.046   6.149   5.049 -0.4037  1.7495 -0.9704
 3340TIP3   OH231434   0.726   3.408  14.046  0.5086  0.0310  0.0676
 3340TIP3    H131435   0.655   3.384  13.986 -0.5031  1.0644  0.7971
 3340TIP3    H231436   0.684   3.410  14.132  1.3927  0.8110  0.4960
 3341TIP3   OH231437   1.808   4.545  14.949 -0.8650  0.0053 -0.1970
 3341TIP3    H131438   1.740   4.480  14.963 -0.6926 -0.0006  0.6117
 3341TIP3    H231439   1.811   4.596  15.030 -0.2351  0.3124 -0.4032
 3342TIP3   OH231440   6.267   2.400   0.300 -0.1536 -0.2175 -0.2056
 3342TIP3    H131441   6.329   2.328   0.311  0.5010  0.2762 -0.6062
 3342TIP3    H231442   6.214   2.398   0.379  0.8668 -0.1816  0.4968
 3343TIP3   OH231443   3.830   2.905  11.719 -0.2209 -0.2060  0.2921
 3343TIP3    H131444   3.792   2.987  11.688 -1.3671 -0.3013  1.3505
 3343TIP3    H231445   3.759   2.863  11.768  0.8061 -1.1310  1.0296
 3344TIP3   OH231446   5.067   5.325  16.530  0.1799  0.4559  0.1398
 3344TIP3    H131447   5.069   5.416  16.558  2.4175  0.1483  1.2098
 3344TIP3    H231448   4.990   5.288  16.573 -0.5475  1.7322 -0.0236
 3345TIP3   OH231449   6.266   0.251   3.016  0.1177 -0.0075 -0.3150
 3345TIP3    H131450   6.170   0.242   3.017  0.2966 -2.9272 -0.9138
 3345TIP3    H231451   6.291   0.248   3.109 -0.3560  1.2100 -0.1253
 3346TIP3   OH231452   4.245   1.301   3.927  0.0136  0.0606 -0.3400
 3346TIP3    H131453   4.151   1.303   3.944  0.1942  0.5833  0.7125
 3346TIP3    H231454   4.256   1.343   3.842 -0.6378  0.7677 -0.0844
 3347TIP3   OH231455   3.149   2.401   5.210  0.5357  0.6270  0.6533
 3347TIP3    H131456   3.083   2.433   5.271  0.3464  1.6408 -0.0593
 3347TIP3    H231457   3.222   2.374   5.265 -0.3341 -0.1966  1.4312
 3348TIP3   OH231458   1.989   5.665   3.845  0.1163 -0.5337  0.6802
 3348TIP3    H131459   2.027   5.697   3.763  0.0696 -0.4236  0.7004
 3348TIP3    H231460   2.011   5.572   3.848 -2.7456 -1.4015 -1.1449
 3349TIP3   OH231461   5.596   5.685   1.207  0.1101 -0.2971 -0.2117
 3349TIP3    H131462   5.675   5.721   1.165 -1.1202  0.9109 -1.5999
 3349TIP3    H231463   5.588   5.733   1.289  0.3251  0.1995 -0.4800
 3350TIP3   OH231464   6.230   4.886   1.898 -0.2911  0.4584  0.2981
 3350TIP3    H131465   6.153   4.829   1.891 -0.5645  0.7855  0.6349
 3350TIP3    H231466   6.266   4.867   1.984  0.9081 -0.8168 -0.4390
 3351TIP3   OH231467   1.218   5.832  16.451 -0.0918  0.4387  0.0497
 3351TIP3    H131468   1.245   5.771  16.383 -1.4042 -0.7322  0.5333
 3351TIP3    H231469   1.237   5.919  16.415  2.1608 -0.2291 -0.5070
 3352TIP3   OH231470   4.941   6.193   3.506  0.3684 -0.0351 -0.0227
 3352TIP3    H131471   4.922   6.196   3.600  0.7854 -0.1018  0.0664
 3352TIP3    H231472   4.952   6.285   3.481 -0.5401  0.0404 -0.1782
 3353TIP3   OH231473   2.047   1.985   0.861 -0.6523 -0.4246  0.4246
 3353TIP3    H131474   2.026   1.930   0.936  0.0833  0.0234  0.9789
 3353TIP3    H231475   2.121   1.941   0.818 -0.0519  0.1213  0.8779
 3354TIP3   OH231476   2.451   6.663   4.317 -0.1304  0.6010  0.0858
 3354TIP3    H131477   2.531   6.658   4.369  1.0272  0.4147 -1.5950
 3354TIP3    H231478   2.396   6.592   4.350  0.7150  0.2663  0.8130
 3355TIP3   OH231479   3.636   5.240   4.744  0.4921  0.2719  0.0188
 3355TIP3    H131480   3.702   5.242   4.674  1.4015 -0.7774  0.8206
 3355TIP3    H231481   3.625   5.147   4.763 -0.5940  0.4929  0.4944
 3356TIP3   OH231482   4.821   1.812   6.005 -0.2897 -0.1738 -0.6640
 3356TIP3    H131483   4.841   1.775   5.919 -0.5897 -0.3399 -0.6643
 3356TIP3    H231484   4.894   1.785   6.060 -0.1958 -0.2367 -0.8195
 3357TIP3   OH231485   3.683   1.356   4.025  0.4787 -0.5247  0.0165
 3357TIP3    H131486   3.711   1.445   4.003  1.1049 -0.4010  1.2121
 3357TIP3    H231487   3.619   1.333   3.957  0.3226  0.8266 -0.3236
 3358TIP3   OH231488   5.142   3.947  14.025  0.0950  0.2515 -0.4035
 3358TIP3    H131489   5.114   3.986  14.108  2.6448  1.8341 -0.1732
 3358TIP3    H231490   5.218   3.893  14.048 -0.9597 -1.7204 -1.3284
 3359TIP3   OH231491   3.772   4.360  14.324  1.5580 -0.0208 -0.3399
 3359TIP3    H131492   3.839   4.421  14.293 -0.0996  1.7568 -0.6217
 3359TIP3    H231493   3.694   4.382  14.272  0.1461 -0.5184  1.4622
 3360TIP3   OH231494   3.927   0.831  13.839 -0.6134  0.3189 -0.2057
 3360TIP3    H131495   3.922   0.894  13.768  0.8643  0.0528 -0.5726
 3360TIP3    H231496   3.953   0.883  13.915 -1.0299  0.4097 -0.1218
 3361TIP3   OH231497   1.164   6.299   3.454  0.6824  0.2343 -0.4618
 3361TIP3    H131498   1.241   6.296   3.510 -0.3293 -0.4059  0.9763
 3361TIP3    H231499   1.110   6.226   3.484  1.3622 -2.1331 -4.2750
 3362TIP3   OH231500   4.509   4.995   5.171  0.0565  0.4106  0.3100
 3362TIP3    H131501   4.426   4.984   5.125  0.2923 -0.3651  0.0712
 3362TIP3    H231502   4.533   4.908   5.201  1.5027  0.3721 -0.8548
 3363TIP3   OH231503   3.571   0.534  13.049  0.1292  0.1653 -0.3594
 3363TIP3    H131504   3.578   0.439  13.044  0.3465  0.1770 -0.3073
 3363TIP3    H231505   3.494   0.556  12.997 -1.3108 -0.2291  1.5339
 3364TIP3   OH231506   6.077   0.490   5.213  0.6135 -0.1792 -0.4786
 3364TIP3    H131507   6.125   0.572   5.223 -0.5663  0.7207 -1.8538
 3364TIP3    H231508   6.047   0.469   5.302  3.4619 -0.7821  0.4387
 3365TIP3   OH231509   3.237   4.123  15.996 -0.6073 -0.6800 -0.4389
 3365TIP3    H131510   3.267   4.170  16.074  0.4443  0.4836 -1.4994
 3365TIP3    H231511   3.181   4.186  15.950  0.2085 -0.7036 -1.5015
 3366TIP3   OH231512   1.744   5.244  17.136  0.4600 -0.5114  0.6759
 3366TIP3    H131513   1.664   5.223  17.185  0.6515 -1.3854  0.6293
 3366TIP3    H231514   1.774   5.160  17.101  0.8904 -0.0482 -0.0927
 3367TIP3   OH231515   2.597   4.660   1.627  0.2761  0.3808  0.7623
 3367TIP3    H131516   2.647   4.742   1.620 -0.1632  0.6033  0.1092
 3367TIP3    H231517   2.634   4.616   1.703  0.7257  1.0501  0.9445
 3368TIP3   OH231518   2.259   5.300  13.638 -0.3252 -0.0093  0.7533
 3368TIP3    H131519   2.164   5.302  13.622 -0.1847  1.3753 -0.0460
 3368TIP3    H231520   2.289   5.221  13.592 -0.5307  1.7523 -2.7110
 3369TIP3   OH231521   0.442   6.450  13.091 -0.1162 -0.4017 -0.3002
 3369TIP3    H131522   0.501   6.456  13.167 -0.5278 -0.5860  0.0381
 3369TIP3    H231523   0.465   6.525  13.037  0.6357 -0.6403 -0.3192
 3370TIP3   OH231524   6.681   5.164  17.055 -0.6744  0.7698 -0.1006
 3370TIP3    H131525   6.706   5.128  16.970  0.8437  0.4927  0.4289
 3370TIP3    H231526   6.668   5.087  17.111  1.5959  0.9358  0.7674
 3371TIP3   OH231527   2.221   1.912  11.916 -0.1524  0.1103 -0.1603
 3371TIP3    H131528   2.313   1.941  11.914  0.3165 -1.2563  0.5190
 3371TIP3    H231529   2.205   1.887  12.007 -1.1850  0.2714 -0.2883
 3372TIP3   OH231530   1.128   6.395  14.130  0.3490  0.4180 -0.0189
 3372TIP3    H131531   1.107   6.302  14.134 -1.8433  0.8502 -0.3538
 3372TIP3    H231532   1.115   6.427  14.220 -0.6522  0.7331 -0.2717
 3373TIP3   OH231533   2.134   4.363   2.315 -0.4601  0.3188 -0.2923
 3373TIP3    H131534   2.191   4.365   2.237 -1.2385 -0.5691 -0.9092
 3373TIP3    H231535   2.100   4.452   2.321  0.5555  0.7216 -0.2382
 3374TIP3   OH231536   1.469   2.358  12.059 -0.6810  0.1990 -0.6308
 3374TIP3    H131537   1.526   2.367  11.983  0.4477 -1.2777 -0.0360
 3374TIP3    H231538   1.385   2.330  12.024 -0.0375 -0.9401 -1.3453
 3375TIP3   OH231539   2.068   2.044   1.391  0.2470  0.1907 -0.1494
 3375TIP3    H131540   2.115   2.018   1.312 -1.0409  0.4724 -1.0447
 3375TIP3    H231541   2.009   2.114   1.362 -0.2520  0.2973  1.0625
 3376TIP3   OH231542   2.059   2.975   5.356 -0.0798 -0.4274 -0.2306
 3376TIP3    H131543   2.108   2.966   5.437 -0.2941 -1.8842 -0.2263
 3376TIP3    H231544   2.071   2.891   5.311 -1.5610 -0.3862 -0.7890
 3377TIP3   OH231545   0.967   3.932  16.183 -0.8376  0.0459  0.6196
 3377TIP3    H131546   1.031   3.861  16.182  1.6711  2.1673 -0.9122
 3377TIP3    H231547   0.882   3.887  16.182  0.5686 -2.8944  0.7818
 3378TIP3   OH231548   3.682   6.502  13.541 -0.9709 -0.0005 -0.5207
 3378TIP3    H131549   3.700   6.429  13.599 -1.3231  0.2272 -0.1210
 3378TIP3    H231550   3.587   6.501  13.529 -0.9652  0.3080 -0.6196
 3379TIP3   OH231551   0.284   1.588  13.556 -0.1078 -0.5468 -0.7530
 3379TIP3    H131552   0.322   1.543  13.480 -2.2347 -1.0421 -1.6134
 3379TIP3    H231553   0.217   1.528  13.588 -0.0751  0.1932  0.7666
 3380TIP3   OH231554   2.484   2.008  11.962  0.2329  0.3909 -0.3964
 3380TIP3    H131555   2.476   2.069  12.035 -1.8507  2.1377 -1.9392
 3380TIP3    H231556   2.555   2.043  11.909  1.8366 -0.9536  0.7963
 3381TIP3   OH231557   6.121   4.670   4.004 -0.0128  0.0960 -0.2397
 3381TIP3    H131558   6.086   4.585   3.977 -2.4618  0.8055  0.4597
 3381TIP3    H231559   6.097   4.679   4.096 -1.0448  2.1037 -0.6444
 3382TIP3   OH231560   5.091   3.026  10.695 -0.4690 -0.0942 -0.2693
 3382TIP3    H131561   5.068   2.972  10.620 -0.5430 -1.5046  0.7204
 3382TIP3    H231562   5.137   2.966  10.754 -2.6567  0.2661  1.9566
 3383TIP3   OH231563   4.357   3.255   4.695  0.0120  0.0819  0.2808
 3383TIP3    H131564   4.403   3.186   4.648 -0.1404 -2.8239  3.9112
 3383TIP3    H231565   4.423   3.323   4.710  0.9572 -0.5093 -1.0014
 3384TIP3   OH231566   1.532   1.453  11.890 -0.0576 -0.2647 -0.1534
 3384TIP3    H131567   1.450   1.500  11.911 -0.3048 -0.3317 -0.9326
 3384TIP3    H231568   1.591   1.522  11.859  0.0158 -0.2826 -0.0513
 3385TIP3   OH231569   6.689   3.646  16.233 -0.3693 -0.3401 -0.7319
 3385TIP3    H131570   6.625   3.628  16.165  0.3545  1.4697 -1.9766
 3385TIP3    H231571   6.759   3.583  16.218 -1.4008 -1.7392  0.0818
 3386TIP3   OH231572   4.594   1.914   1.810  0.1174  0.1718  0.5735
 3386TIP3    H131573   4.561   1.981   1.870 -2.5419 -0.3561 -0.1554
 3386TIP3    H231574   4.575   1.831   1.855  0.5106 -0.1586  0.1323
 3387TIP3   OH231575   3.905   4.764   1.249  0.1280 -0.0037 -0.5840
 3387TIP3    H131576   3.924   4.712   1.170  0.1477  1.8096 -1.8202
 3387TIP3    H231577   3.883   4.851   1.216 -2.3011  0.1927  1.2602
 3388TIP3   OH231578   6.241   3.572   4.889 -0.4228 -0.1793 -0.2242
 3388TIP3    H131579   6.188   3.624   4.950  0.6349  2.6495 -1.5510
 3388TIP3    H231580   6.179   3.511   4.849 -1.7150 -0.0621  1.4920
 3389TIP3   OH231581   1.205   4.306  10.646  0.4518  0.0606  0.0975
 3389TIP3    H131582   1.118   4.267  10.636  1.1011 -1.0312 -1.7517
 3389TIP3    H231583   1.261   4.256  10.587  2.2571  1.0522  0.8818
 3390TIP3   OH231584   1.165   0.068  11.101 -0.1034  0.0280  0.1228
 3390TIP3    H131585   1.178  -0.005  11.040 -0.7378 -1.0226  1.1939
 3390TIP3    H231586   1.078   0.102  11.079  0.6997  1.3331 -1.2180
 3391TIP3   OH231587   2.674   2.901  16.874  0.1202 -0.9067  0.2018
 3391TIP3    H131588   2.660   2.810  16.902 -0.3294 -0.6591  0.7904
 3391TIP3    H231589   2.593   2.946  16.899  0.8778 -0.0390  1.1689
 3392TIP3   OH231590   2.440   3.597  11.674  0.0933  0.4600 -0.0601
 3392TIP3    H131591   2.478   3.621  11.589 -0.6006  1.6037 -0.0770
 3392TIP3    H231592   2.446   3.502  11.677  0.9364  0.4640 -1.0065
 3393TIP3   OH231593   4.356   4.761   9.961  0.0830 -0.0221  0.2313
 3393TIP3    H131594   4.433   4.776  10.017  0.7962  2.3930 -1.2430
 3393TIP3    H231595   4.284   4.753  10.023  1.2423 -0.5372  1.5901
 3394TIP3   OH231596   1.850   3.671   1.188 -0.1696 -0.7334 -0.0485
 3394TIP3    H131597   1.853   3.609   1.261  1.1785 -0.1212  0.4580
 3394TIP3    H231598   1.855   3.615   1.110  1.0848 -1.3020  0.3983
 3395TIP3   OH231599   4.973   0.465  16.476 -0.0932  0.3625  0.0584
 3395TIP3    H131600   4.984   0.557  16.502  1.4011 -0.1858  1.5214
 3395TIP3    H231601   4.925   0.425  16.549 -0.2934 -0.1410 -0.3436
 3396TIP3   OH231602   2.269   3.804  15.247  0.0113  0.3479 -0.0953
 3396TIP3    H131603   2.345   3.747  15.242  0.0486  0.2418  1.3314
 3396TIP3    H231604   2.301   3.884  15.287 -0.5813  0.3757  0.3380
 3397TIP3   OH231605   1.900   4.388  16.341 -0.1949  0.5910 -0.4406
 3397TIP3    H131606   1.857   4.379  16.426  0.7337 -0.0368 -0.0273
 3397TIP3    H231607   1.979   4.438  16.358  1.3918 -1.7669 -0.4021
 3398TIP3   OH231608   1.114   1.126   4.416 -0.3102  0.1645 -0.3394
 3398TIP3    H131609   1.116   1.154   4.507 -0.4405  0.4632 -0.4248
 3398TIP3    H231610   1.199   1.152   4.381 -0.0529 -0.4295 -0.1679
 3399TIP3   OH231611   5.130   0.071   0.451 -0.1491  0.0007 -0.0275
 3399TIP3    H131612   5.110   0.114   0.368 -0.8597  0.5644  0.4273
 3399TIP3    H231613   5.222   0.046   0.443  0.5209  2.3171 -0.0026
 3400TIP3   OH231614   3.269   6.765  16.158  0.0426 -0.2473  0.8961
 3400TIP3    H131615   3.259   6.791  16.250  0.1032  2.2636  0.2547
 3400TIP3    H231616   3.188   6.717  16.138  0.1991 -1.1682  2.3274
 3401TIP3   OH231617   3.315   2.772   0.910 -0.0125  0.0125 -0.0244
 3401TIP3    H131618   3.374   2.817   0.971 -0.7765  0.2933  0.5307
 3401TIP3    H231619   3.373   2.729   0.847  0.7716  0.5580  0.3071
 3402TIP3   OH231620   4.346   0.486  14.527  0.4285 -0.7336 -0.4039
 3402TIP3    H131621   4.422   0.506  14.471 -0.8374 -1.2387 -2.4209
 3402TIP3    H231622   4.311   0.571  14.551  1.2548 -0.5029  0.0327
 3403TIP3   OH231623   6.611   1.915  13.263  0.1618  0.2774 -0.5087
 3403TIP3    H131624   6.596   1.988  13.324 -1.6044 -0.2726 -0.2316
 3403TIP3    H231625   6.634   1.841  13.319 -0.6528 -0.0223 -0.5547
 3404TIP3   OH231626   5.407   5.913   6.011 -0.2760  0.2482  0.5110
 3404TIP3    H131627   5.424   5.994   6.058 -0.1124  1.8996 -2.1567
 3404TIP3    H231628   5.313   5.914   5.992  0.0833  1.0769 -1.5073
 3405TIP3   OH231629   0.251   5.227   5.207  0.2541 -0.1860  0.6452
 3405TIP3    H131630   0.285   5.178   5.132  1.4866 -0.3635  1.2768
 3405TIP3    H231631   0.199   5.298   5.169 -1.2090 -1.7182 -0.2960
 3406TIP3   OH231632   5.272   4.967   2.181  0.4939  0.1105 -0.0477
 3406TIP3    H131633   5.177   4.960   2.184  0.4204  0.9626 -0.2679
 3406TIP3    H231634   5.290   5.061   2.191  1.3455 -0.1355  1.0064
 3407TIP3   OH231635   0.301   1.569  17.027 -0.0794  0.2829 -0.2337
 3407TIP3    H131636   0.289   1.575  16.932  0.1052  1.2272 -0.1992
 3407TIP3    H231637   0.348   1.649  17.051  0.1399 -0.0889  0.6165
 3408TIP3   OH231638   4.519   4.959   2.680  0.0420 -0.2888 -0.5150
 3408TIP3    H131639   4.499   4.919   2.765 -0.4189 -0.6685 -0.8021
 3408TIP3    H231640   4.445   4.936   2.624  0.1652  0.2739 -0.9182
 3409TIP3   OH231641   5.436   0.759  12.576 -0.2942 -1.0784 -0.1266
 3409TIP3    H131642   5.444   0.688  12.512  0.3835 -1.2148  0.0976
 3409TIP3    H231643   5.478   0.724  12.655 -2.6958 -1.6010  0.9927
 3410TIP3   OH231644   5.596   6.773  16.583  1.1191  0.2811 -0.0557
 3410TIP3    H131645   5.566   6.685  16.560 -0.1231  0.7309 -0.1977
 3410TIP3    H231646   5.534   6.832  16.541  1.3316  1.2119  0.8852
 3411TIP3   OH231647   5.889   6.385   0.052  0.2993 -0.5759 -0.7124
 3411TIP3    H131648   5.900   6.290   0.062 -0.9352 -0.7092 -0.3501
 3411TIP3    H231649   5.978   6.419   0.047  0.8223 -1.5970  0.7588
 3412TIP3   OH231650   1.046   0.336  10.503 -1.0918 -0.6871  0.0233
 3412TIP3    H131651   1.134   0.360  10.532 -0.0723 -0.5265 -2.8736
 3412TIP3    H231652   1.003   0.420  10.486 -1.3822 -0.7907  0.2361
 3413TIP3   OH231653   6.166   6.379   1.914 -0.2962 -0.9569 -0.4297
 3413TIP3    H131654   6.081   6.372   1.958  0.5466 -1.7367  1.1714
 3413TIP3    H231655   6.156   6.328   1.834 -1.3965 -0.8659 -0.3597
 3414TIP3   OH231656   4.543   6.405  10.732 -0.5125 -0.1345  0.3734
 3414TIP3    H131657   4.511   6.476  10.676 -0.2711 -1.0116 -0.9044
 3414TIP3    H231658   4.541   6.442  10.820 -0.4394  1.4511 -0.2538
 3415TIP3   OH231659   4.701   5.568   1.176 -0.3612  0.3815 -0.5698
 3415TIP3    H131660   4.722   5.623   1.252 -0.7314  0.3648 -0.4557
 3415TIP3    H231661   4.714   5.626   1.101 -0.0120  0.4038 -0.4946
 3416TIP3   OH231662   0.639   1.949   5.839 -0.1049 -0.8155 -0.2783
 3416TIP3    H131663   0.628   1.973   5.931  2.4046 -1.2208  0.1976
 3416TIP3    H231664   0.571   1.999   5.794 -2.3817 -1.7274  1.8944
 3417TIP3   OH231665   2.917   5.559   4.933 -0.2930 -0.2045  0.3557
 3417TIP3    H131666   2.822   5.564   4.927 -0.3727 -1.8744 -0.3152
 3417TIP3    H231667   2.936   5.469   4.958  1.1191  0.0172  0.2154
 3418TIP3   OH231668   5.243   0.994   0.898 -0.0421  0.0004  0.0575
 3418TIP3    H131669   5.278   1.062   0.840  2.7523 -1.7494 -0.4706
 3418TIP3    H231670   5.236   0.916   0.843 -3.5419 -0.1879  0.5526
 3419TIP3   OH231671   2.333   2.198   4.682  0.2338  0.4557 -0.1994
 3419TIP3    H131672   2.337   2.151   4.765 -0.7623 -1.7122 -1.2917
 3419TIP3    H231673   2.381   2.279   4.698  2.4425 -1.0998  1.6820
 3420TIP3   OH231674   5.668   1.567  11.781  0.3913  0.5038  0.4311
 3420TIP3    H131675   5.650   1.488  11.729  0.5176 -1.4915  3.1939
 3420TIP3    H231676   5.647   1.640  11.723 -1.8798 -1.5671 -1.5377
 3421TIP3   OH231677   3.797   5.185  15.889 -0.7661 -0.0881 -0.3655
 3421TIP3    H131678   3.824   5.252  15.826 -1.0010  0.0745 -0.2925
 3421TIP3    H231679   3.743   5.232  15.952  0.8791  0.1365  0.9630
 3422TIP3   OH231680   3.820   0.657   5.364  0.4838 -0.3787  0.2085
 3422TIP3    H131681   3.779   0.737   5.332  1.9633  0.3164 -0.0328
 3422TIP3    H231682   3.748   0.593   5.368 -0.3144  0.3088 -1.7390
 3423TIP3   OH231683   2.625   4.294   5.823 -0.7660 -0.6639  0.0856
 3423TIP3    H131684   2.638   4.335   5.738 -0.0455 -1.4819 -0.2144
 3423TIP3    H231685   2.700   4.235   5.833  0.3912  1.0180  2.2416
 3424TIP3   OH231686   6.655   2.896  16.129 -0.4975  0.0416  0.5570
 3424TIP3    H131687   6.707   2.959  16.179  0.1862  0.0316 -0.1191
 3424TIP3    H231688   6.635   2.827  16.191 -0.3158  0.4010  1.0233
 3425TIP3   OH231689   3.668   4.749  14.109 -0.4957 -0.1305  0.2836
 3425TIP3    H131690   3.691   4.842  14.107 -2.2673  0.3812  1.2301
 3425TIP3    H231691   3.628   4.732  14.024  0.7870 -0.3083 -0.2927
 3426TIP3   OH231692   3.034   4.380   1.619 -0.3201 -0.1797 -0.1829
 3426TIP3    H131693   2.961   4.329   1.653 -0.9421  0.8973  0.1487
 3426TIP3    H231694   3.092   4.390   1.695 -0.3135 -0.1982 -0.1855
 3427TIP3   OH231695   6.736   4.079   4.375 -0.2444 -0.1458  0.2559
 3427TIP3    H131696   6.744   4.173   4.388 -0.8298  0.1279 -1.1887
 3427TIP3    H231697   6.789   4.040   4.445 -1.1523  1.2083  1.7622
 3428TIP3   OH231698   1.093   3.861  16.755 -0.4494  0.3688  0.0598
 3428TIP3    H131699   1.008   3.882  16.715 -0.1705  1.8521  0.2010
 3428TIP3    H231700   1.140   3.814  16.686 -0.7985  0.9422 -0.5907
 3429TIP3   OH231701   0.351   1.043  12.387  0.0645 -0.0896  0.1650
 3429TIP3    H131702   0.402   0.962  12.391  1.2737  0.6067 -0.6219
 3429TIP3    H231703   0.369   1.086  12.471  2.7494  1.2587 -0.9938
 3430TIP3   OH231704   4.736   1.871  16.076  0.0800 -0.3222 -1.0555
 3430TIP3    H131705   4.732   1.776  16.074  2.2284 -0.5400  0.6112
 3430TIP3    H231706   4.786   1.896  15.998 -2.6458 -0.2597 -2.9145
 3431TIP3   OH231707   0.247   6.742  12.903  0.4139  0.3180  0.4042
 3431TIP3    H131708   0.283   6.825  12.935  1.6130  0.4125 -1.1033
 3431TIP3    H231709   0.188   6.767  12.832 -1.3717  0.0301  1.7188
 3432TIP3   OH231710   0.182   0.876  12.929 -0.3553 -0.0092  0.4135
 3432TIP3    H131711   0.209   0.902  12.841  0.9801 -0.3498  0.7061
 3432TIP3    H231712   0.253   0.905  12.986  0.5771 -2.9654  0.9375
 3433TIP3   OH231713   4.021   4.803  16.130 -0.9149 -0.3891  0.8204
 3433TIP3    H131714   4.080   4.871  16.096  0.6892 -1.8001  0.6150
 3433TIP3    H231715   4.035   4.728  16.071 -2.2408 -1.0701  1.3429
 3434TIP3   OH231716   2.676   3.644  12.967  0.2095  0.0988 -0.3519
 3434TIP3    H131717   2.651   3.715  12.909 -0.8769 -0.6599 -0.8409
 3434TIP3    H231718   2.632   3.567  12.931  0.4840 -0.6122  0.7872
 3435TIP3   OH231719   0.357   3.815   0.696 -0.3116  1.0135 -0.7860
 3435TIP3    H131720   0.389   3.726   0.710  1.0510  1.7600  1.2636
 3435TIP3    H231721   0.281   3.804   0.639 -1.2690 -1.6432  0.7990
 3436TIP3   OH231722   4.254   5.254   1.211  0.0976  0.0025 -0.3633
 3436TIP3    H131723   4.286   5.331   1.258 -0.5614  0.4140 -0.5867
 3436TIP3    H231724   4.208   5.203   1.278  1.2401 -0.6322 -0.0204
 3437TIP3   OH231725   5.229   0.143  14.696 -0.2089 -0.1136 -0.3292
 3437TIP3    H131726   5.274   0.062  14.720 -0.2786 -0.9407 -2.6838
 3437TIP3    H231727   5.262   0.209  14.757  0.9593 -1.5948  0.7037
 3438TIP3   OH231728   1.709   2.761  12.045  0.5374  0.1214  0.2459
 3438TIP3    H131729   1.772   2.710  11.994 -1.0357 -1.1648 -0.5119
 3438TIP3    H231730   1.667   2.818  11.981  0.4987  0.5210  0.6259
 3439TIP3   OH231731   0.440   5.573   1.913 -0.3815  0.0014  0.3985
 3439TIP3    H131732   0.355   5.581   1.870  0.8919  0.4847 -2.2479
 3439TIP3    H231733   0.439   5.640   1.982 -2.4343 -0.6116  1.0148
 3440TIP3   OH231734   1.290   6.367   1.245  0.2011 -0.0166 -0.7116
 3440TIP3    H131735   1.368   6.393   1.294 -0.0009 -0.5079 -0.1062
 3440TIP3    H231736   1.217   6.408   1.291  0.1208  0.7138 -1.4725
 3441TIP3   OH231737   2.112   4.669   0.026  0.0586  0.1980  0.1839
 3441TIP3    H131738   2.170   4.636   0.095  0.5854 -1.2016 -0.8879
 3441TIP3    H231739   2.085   4.756   0.057  1.6426  0.3232  1.3366
 3442TIP3   OH231740   6.505   2.654  13.630  0.1939  0.2329  0.0500
 3442TIP3    H131741   6.559   2.576  13.619 -1.3343 -0.7542 -0.8074
 3442TIP3    H231742   6.552   2.707  13.695  0.8718 -1.7373  1.2257
 3443TIP3   OH231743   3.745   3.230  14.972 -0.0719  0.1818  0.0720
 3443TIP3    H131744   3.664   3.195  15.008 -0.5506  2.0123  0.8484
 3443TIP3    H231745   3.748   3.321  15.001  1.2711  0.7306 -1.6047
 3444TIP3   OH231746   4.643   2.283   5.253  0.3132 -0.0338  0.3590
 3444TIP3    H131747   4.593   2.279   5.172 -0.0128 -0.8699  0.5919
 3444TIP3    H231748   4.717   2.224   5.239  1.2076  1.1033  0.0597
 3445TIP3   OH231749   2.061   0.033   1.374 -0.0616 -0.3631 -0.0133
 3445TIP3    H131750   2.133   0.089   1.405  0.9289 -2.2296  1.2352
 3445TIP3    H231751   2.022  -0.002   1.454 -1.0310 -1.0247 -0.7507
 3446TIP3   OH231752   4.231   5.090  13.648 -0.2776  0.3434  0.1088
 3446TIP3    H131753   4.298   5.042  13.695 -0.0839 -0.2584 -0.7556
 3446TIP3    H231754   4.251   5.075  13.555 -1.8078 -0.1756 -0.1714
 3447TIP3   OH231755   6.601   0.891  15.695  0.0597 -0.2078 -0.4229
 3447TIP3    H131756   6.652   0.921  15.620 -0.6212 -0.1309 -0.8694
 3447TIP3    H231757   6.663   0.890  15.768  0.4898  0.7035 -0.7628
 3448TIP3   OH231758   0.742   2.109   1.265  0.3999  0.6354  0.2100
 3448TIP3    H131759   0.746   2.036   1.204  0.5538  1.9965 -1.4715
 3448TIP3    H231760   0.811   2.091   1.329  3.1100  1.1957 -2.3884
 3449TIP3   OH231761   3.702   0.005   1.034  0.0894  0.1836  0.1937
 3449TIP3    H131762   3.635   0.041   1.093 -0.0548  1.7431 -0.8505
 3449TIP3    H231763   3.658  -0.068   0.990 -0.2434 -0.1194  1.0179
 3450TIP3   OH231764   5.578   1.614  15.328 -0.0463  0.2791 -0.5545
 3450TIP3    H131765   5.662   1.643  15.292  0.4397 -1.2720 -0.7486
 3450TIP3    H231766   5.513   1.670  15.285  0.8878  1.8198 -0.0691
 3451TIP3   OH231767   5.994   2.000   5.651 -0.1681  0.4260  0.7933
 3451TIP3    H131768   6.043   1.923   5.679 -1.7174  0.4436  3.9134
 3451TIP3    H231769   5.991   1.993   5.555 -0.2223 -3.3821  0.9267
 3452TIP3   OH231770   5.232   2.209  14.166  0.0388 -0.4990  0.0563
 3452TIP3    H131771   5.149   2.166  14.187 -0.1321  0.5265  1.6509
 3452TIP3    H231772   5.248   2.187  14.075 -2.0909 -0.5761 -0.3496
 3453TIP3   OH231773   5.210   3.680  12.921 -0.2212  0.7309 -0.7492
 3453TIP3    H131774   5.217   3.749  12.855 -0.1415  1.8777  0.4114
 3453TIP3    H231775   5.299   3.672  12.957 -0.6550  1.5755  0.6013
 3454TIP3   OH231776   4.215   5.267  11.567  0.4110 -0.3536 -0.1836
 3454TIP3    H131777   4.300   5.310  11.581 -0.3057  1.2581 -0.5771
 3454TIP3    H231778   4.167   5.327  11.511 -0.9728 -1.2880 -0.0429
 3455TIP3   OH231779   4.612   4.093  15.673  0.0797 -0.2503  0.7082
 3455TIP3    H131780   4.604   4.019  15.613  1.2395 -0.0038  0.2211
 3455TIP3    H231781   4.534   4.146  15.657  0.1668 -0.4073 -0.2868
 3456TIP3   OH231782   1.352   4.543  16.174 -0.5206  0.2231  0.4022
 3456TIP3    H131783   1.420   4.550  16.108  0.6739 -0.6845  1.4752
 3456TIP3    H231784   1.270   4.561  16.127  0.4705  1.7995 -0.8208
 3457TIP3   OH231785   1.380   3.908   2.220  0.2501  0.0255  0.2681
 3457TIP3    H131786   1.455   3.902   2.161 -1.0732  0.4831 -1.5701
 3457TIP3    H231787   1.418   3.902   2.308  2.1510 -2.3050 -0.6058
 3458TIP3   OH231788   3.378   5.792  13.451  0.2280  0.5892  0.8795
 3458TIP3    H131789   3.294   5.810  13.494  0.1709 -1.0375  1.5298
 3458TIP3    H231790   3.443   5.835  13.506 -0.0617  0.6263  1.1950
 3459TIP3   OH231791   1.179   6.516  16.327  0.0203 -0.1841  0.5266
 3459TIP3    H131792   1.224   6.598  16.307 -0.1724 -0.0398  0.6807
 3459TIP3    H231793   1.168   6.472  16.243 -1.4617  0.7567  0.1924
 3460TIP3   OH231794   6.646   4.320   0.235 -0.0149  0.3917 -0.4808
 3460TIP3    H131795   6.681   4.394   0.284  0.6310  0.2934 -0.7896
 3460TIP3    H231796   6.670   4.244   0.287 -2.5740  0.4825  1.0072
 3461TIP3   OH231797   3.820   1.500   3.654  0.1144  0.0320  0.0833
 3461TIP3    H131798   3.739   1.536   3.616  0.6651  1.9701  0.6578
 3461TIP3    H231799   3.808   1.508   3.748  1.4690  1.5877  0.1670
 3462TIP3   OH231800   5.492   4.869  15.581  0.5282 -0.0834 -0.4632
 3462TIP3    H131801   5.526   4.893  15.494  1.1282 -0.9342 -0.4709
 3462TIP3    H231802   5.570   4.851  15.633  0.1631  0.2966  0.2243
 3463TIP3   OH231803   5.430   6.203   1.822 -0.0497 -0.0602  0.3134
 3463TIP3    H131804   5.516   6.189   1.783 -0.9170 -1.0810 -1.3572
 3463TIP3    H231805   5.430   6.295   1.849  1.2082  0.2311 -0.5888
 3464TIP3   OH231806   1.974   0.898  13.689  0.1902 -0.2732 -0.3818
 3464TIP3    H131807   1.975   0.987  13.724  1.1627 -0.7441  0.8721
 3464TIP3    H231808   1.899   0.857  13.732  0.1973 -0.2790 -0.3746
 3465TIP3   OH231809   3.046   5.653   5.787 -0.0525 -0.1616  0.3289
 3465TIP3    H131810   3.111   5.582   5.784  1.0200  0.8020 -3.3645
 3465TIP3    H231811   2.964   5.611   5.762  0.5288 -0.2508 -1.5862
 3466TIP3   OH231812   4.920   0.774   0.606 -0.1988 -0.1934  0.1954
 3466TIP3    H131813   4.892   0.856   0.565  0.0691  0.2821  0.9369
 3466TIP3    H231814   4.845   0.716   0.595 -1.1045  0.7232  1.2035
 3467TIP3   OH231815   0.000   6.468  15.668 -0.4692  0.8146 -0.2367
 3467TIP3    H131816   0.082   6.440  15.710 -0.1480  2.1926  0.0940
 3467TIP3    H231817  -0.066   6.406  15.700  0.7118 -1.4342 -1.8803
 3468TIP3   OH231818   1.705   5.330   6.394  0.1555 -0.0840 -1.0633
 3468TIP3    H131819   1.649   5.261   6.360 -0.1445  0.3298 -1.4128
 3468TIP3    H231820   1.645   5.391   6.436  0.4453 -0.1751 -0.4942
 3469TIP3   OH231821   3.546   4.757   3.510  0.1201 -0.2676  0.4824
 3469TIP3    H131822   3.605   4.732   3.439 -0.6062  1.1554 -0.6907
 3469TIP3    H231823   3.466   4.706   3.493 -1.5818  2.9157 -2.2587
 3470TIP3   OH231824   1.581   1.603   3.757 -0.4014  0.3807 -0.1300
 3470TIP3    H131825   1.489   1.626   3.768 -0.2207  0.4962  1.5535
 3470TIP3    H231826   1.581   1.509   3.742 -0.7916  0.3344  0.1473
 3471TIP3   OH231827   1.292   2.160   2.452  0.0080 -0.0108  0.1384
 3471TIP3    H131828   1.343   2.087   2.417 -2.7953 -1.5321 -1.1694
 3471TIP3    H231829   1.239   2.190   2.378 -3.7584 -1.1971  2.0606
 3472TIP3   OH231830   6.592   4.340  10.950  0.7566 -0.2172  0.6147
 3472TIP3    H131831   6.603   4.256  10.995  1.8211  0.4661  1.6941
 3472TIP3    H231832   6.606   4.321  10.858  3.0697 -0.8906  1.0605
 3473TIP3   OH231833   2.387   0.568  15.427  0.2926 -0.0521 -0.0711
 3473TIP3    H131834   2.430   0.485  15.404 -2.6154 -1.8534  0.4388
 3473TIP3    H231835   2.369   0.610  15.343  2.2902  0.4114 -0.3180
 3474TIP3   OH231836   4.202   0.852   0.532 -0.1911 -0.3810 -0.0443
 3474TIP3    H131837   4.165   0.929   0.488 -0.5416 -0.6297 -0.1919
 3474TIP3    H231838   4.198   0.874   0.625  1.7524  0.6871 -0.1597
 3475TIP3   OH231839   3.583   1.595   3.553  0.0582 -0.3996 -0.0531
 3475TIP3    H131840   3.555   1.685   3.538 -2.1374 -0.8293  1.1519
 3475TIP3    H231841   3.507   1.542   3.532  0.2479 -1.7268  2.2446
 3476TIP3   OH231842   3.521   3.465   0.801  0.4025 -0.0571  0.2727
 3476TIP3    H131843   3.540   3.478   0.708  0.7976 -0.6565  0.2563
 3476TIP3    H231844   3.604   3.434   0.837 -0.3683 -2.2508  0.3239
 3477TIP3   OH231845   0.540   5.521   3.547  0.7587 -0.2328 -0.4281
 3477TIP3    H131846   0.581   5.484   3.625 -0.3413 -1.2527 -0.2937
 3477TIP3    H231847   0.487   5.594   3.580  0.9827 -0.1034 -0.3510
 3478TIP3   OH231848   4.367   0.002  14.835  0.0703 -0.3761  0.1142
 3478TIP3    H131849   4.385   0.008  14.741 -1.0082  0.3775 -0.0581
 3478TIP3    H231850   4.419   0.071  14.874 -1.5018  1.1004 -0.2657
 3479TIP3   OH231851   1.628   5.035  13.673 -0.5647  0.8339 -0.6044
 3479TIP3    H131852   1.576   5.110  13.643  1.2111  1.7719 -1.5038
 3479TIP3    H231853   1.599   4.962  13.619 -0.8046  1.3959 -1.2483
 3480TIP3   OH231854   4.888   6.031  12.008  0.1356  0.5679  0.2316
 3480TIP3    H131855   4.819   6.089  12.039  1.6457  2.4925  0.1830
 3480TIP3    H231856   4.916   5.983  12.086 -2.1946 -1.3878 -0.0195
 3481TIP3   OH231857   5.785   4.129  10.565 -0.0098  0.1906 -0.0321
 3481TIP3    H131858   5.862   4.120  10.509 -0.2047  1.1575 -0.4721
 3481TIP3    H231859   5.765   4.222  10.564 -0.9945 -0.0030  0.3364
 3482TIP3   OH231860   5.049   2.004   2.544 -0.4808  0.0421  0.5363
 3482TIP3    H131861   5.010   2.046   2.621 -0.7032 -0.7356  0.8500
 3482TIP3    H231862   4.981   1.946   2.510 -0.1369 -0.1565  0.1727
 3483TIP3   OH231863   6.401   1.868   5.853  0.1464 -0.6637  0.5156
 3483TIP3    H131864   6.479   1.813   5.844 -1.1188 -2.2900 -1.4892
 3483TIP3    H231865   6.356   1.833   5.930  1.4670  0.4625  1.8467
 3484TIP3   OH231866   1.283   0.223   5.666 -0.2530  0.1691 -0.6262
 3484TIP3    H131867   1.297   0.288   5.598  0.2435  0.9159  0.1573
 3484TIP3    H231868   1.333   0.256   5.741 -0.0295 -1.0899 -0.1910
 3485TIP3   OH231869   2.463   5.222   3.305  0.2358  0.3936 -0.2993
 3485TIP3    H131870   2.427   5.303   3.268 -1.6067 -0.1682  0.1310
 3485TIP3    H231871   2.438   5.154   3.243  0.4615 -0.0379  0.0790
 3486TIP3   OH231872   0.357   6.678   4.283 -0.1391 -0.1132  0.2126
 3486TIP3    H131873   0.342   6.605   4.344  2.3485 -2.5373 -1.7899
 3486TIP3    H231874   0.429   6.727   4.321  0.3315 -0.6688  0.0617
 3487TIP3   OH231875   4.916   1.280   2.462  0.3549  0.7237 -0.2024
 3487TIP3    H131876   4.921   1.330   2.380  1.1685 -0.5975 -0.9876
 3487TIP3    H231877   4.976   1.206   2.449 -1.2807 -0.8208  0.6824
 3488TIP3   OH231878   5.673   1.931  11.920  0.3663 -0.3345  0.1054
 3488TIP3    H131879   5.603   1.925  11.985  0.3856 -0.3999  0.1206
 3488TIP3    H231880   5.743   1.979  11.964 -1.5578  4.5737 -1.5373
 3489TIP3   OH231881   1.411   0.645  15.747  0.1421  0.1649  0.3709
 3489TIP3    H131882   1.429   0.587  15.821  1.6000  1.1172  0.8008
 3489TIP3    H231883   1.483   0.631  15.686 -0.4970  0.1542 -0.4001
 3490TIP3   OH231884   3.895   0.226   2.941 -0.5118  0.0145 -0.1826
 3490TIP3    H131885   3.882   0.182   2.858  0.3586 -1.5552  0.4816
 3490TIP3    H231886   3.986   0.208   2.965 -0.2150  1.8899  0.2987
 3491TIP3   OH231887   0.069   1.589   3.910  0.2027  0.4741 -0.0562
 3491TIP3    H131888   0.038   1.530   3.841 -1.5338  0.1720  0.9348
 3491TIP3    H231889  -0.000   1.589   3.975  1.8125  0.7229  1.7425
 3492TIP3   OH231890   2.702   5.844   5.485 -0.0428 -0.2268 -0.2720
 3492TIP3    H131891   2.688   5.750   5.490 -1.4021 -0.0137  0.5004
 3492TIP3    H231892   2.703   5.873   5.577 -0.0067  0.5500 -0.5094
 3493TIP3   OH231893   5.641   6.263  15.632 -0.2496 -1.0157  0.0509
 3493TIP3    H131894   5.633   6.168  15.618  0.0599 -0.7040 -2.8962
 3493TIP3    H231895   5.555   6.297  15.606 -0.6093 -0.5025  1.8141
 3494TIP3   OH231896   5.048   2.337   2.498 -0.1755  0.7237 -0.2341
 3494TIP3    H131897   5.014   2.363   2.584  0.3995  0.0111  0.2188
 3494TIP3    H231898   5.142   2.322   2.513 -0.0618  0.6393 -0.9973
 3495TIP3   OH231899   3.632   1.069  13.401  0.2543  0.2867 -1.2198
 3495TIP3    H131900   3.589   1.107  13.478 -0.2637  0.2952 -1.5169
 3495TIP3    H231901   3.700   1.132  13.379 -0.4698  0.9481 -1.5860
 3496TIP3   OH231902   1.885   5.067  15.900 -0.6553 -0.1984 -0.0853
 3496TIP3    H131903   1.838   5.063  15.817  1.2390 -0.7195 -1.1920
 3496TIP3    H231904   1.841   5.003  15.956 -1.2240 -0.6910 -1.0822
 3497TIP3   OH231905   0.321   2.466   5.146 -0.4493  0.4523  0.1525
 3497TIP3    H131906   0.380   2.390   5.144 -0.9328  0.0803 -0.0624
 3497TIP3    H231907   0.255   2.444   5.211  1.3433  2.1719  2.7653
 3498TIP3   OH231908   4.403   3.597  10.519  0.1295  0.4887  0.4990
 3498TIP3    H131909   4.403   3.567  10.609  0.3984 -1.2648 -0.0580
 3498TIP3    H231910   4.314   3.627  10.504  0.2585  1.4567  1.5324
 3499TIP3   OH231911   4.662   5.174  14.425 -0.3780  0.2988  0.2474
 3499TIP3    H131912   4.676   5.158  14.518  1.9703 -0.3546 -0.1589
 3499TIP3    H231913   4.700   5.260  14.409  1.4045 -0.5653 -0.4817
 3500TIP3   OH231914   1.658   6.797  15.979  0.1367  0.3501 -0.4688
 3500TIP3    H131915   1.739   6.849  15.979  0.3704  0.0024  0.2994
 3500TIP3    H231916   1.622   6.808  16.067 -0.9022  0.8706 -0.9518
 3501TIP3   OH231917   2.588   3.437   0.181  0.5848  0.1931 -0.0957
 3501TIP3    H131918   2.577   3.471   0.092 -1.8878 -1.5154 -0.5419
 3501TIP3    H231919   2.573   3.513   0.237  3.1060  1.5205 -1.0538
 3502TIP3   OH231920   3.168   1.700   2.774  0.0249 -0.2179 -0.7092
 3502TIP3    H131921   3.258   1.730   2.764 -0.3081  0.1117 -3.3413
 3502TIP3    H231922   3.165   1.615   2.730 -0.4600 -1.4152  1.4478
 3503TIP3   OH231923   5.386   1.184   5.526  0.2811  0.5326 -0.5192
 3503TIP3    H131924   5.296   1.188   5.496 -0.5952  0.4522  1.9113
 3503TIP3    H231925   5.410   1.275   5.545 -0.5126  0.2812  2.0201
 3504TIP3   OH231926   0.342   1.034  13.122 -0.0490  0.0738  0.4559
 3504TIP3    H131927   0.426   1.078  13.138 -0.5141  1.4694 -0.6386
 3504TIP3    H231928   0.277   1.099  13.146 -0.8133 -0.6888  0.4781
 3505TIP3   OH231929   3.386   2.642  11.184  0.6461 -0.3379  0.2084
 3505TIP3    H131930   3.296   2.640  11.217 -0.3612  0.4415 -2.2614
 3505TIP3    H231931   3.384   2.589  11.105  2.0275  0.7363 -0.5952
 3506TIP3   OH231932   4.921   0.905  14.725  0.0197  0.1898 -0.3821
 3506TIP3    H131933   4.971   0.925  14.804  1.6697  2.1951 -1.8139
 3506TIP3    H231934   4.957   0.964  14.659 -2.0698 -0.6104 -2.3582
 3507TIP3   OH231935   5.473   5.993  14.058 -0.1699  1.2526 -0.4322
 3507TIP3    H131936   5.453   5.940  14.135  1.2351  1.1234 -0.1157
 3507TIP3    H231937   5.389   6.008  14.015 -0.7314 -0.2777  0.0943
 3508TIP3   OH231938   0.329   2.731   5.849  0.2383  0.0412 -0.3980
 3508TIP3    H131939   0.267   2.803   5.839  0.3794  0.0956 -0.9220
 3508TIP3    H231940   0.274   2.653   5.860  0.0585  0.0241 -1.3188
 3509TIP3   OH231941   3.099   1.313   0.570  0.0350  0.1018  0.4848
 3509TIP3    H131942   3.069   1.343   0.656  0.1441 -2.0886  1.3418
 3509TIP3    H231943   3.085   1.219   0.571  1.1891 -0.1445 -1.4609
 3510TIP3   OH231944   2.913   0.225   2.022  0.3049  0.1294  0.2727
 3510TIP3    H131945   2.910   0.129   2.026  0.3119 -0.0165 -1.7995
 3510TIP3    H231946   2.961   0.251   2.101  0.6474 -1.5968  0.6871
 3511TIP3   OH231947   0.003   2.358   3.114  0.2695 -0.0004 -0.1971
 3511TIP3    H131948   0.091   2.377   3.147  0.5142  1.2424 -1.5019
 3511TIP3    H231949   0.013   2.353   3.019 -1.3534  1.9627 -0.5263
 3512TIP3   OH231950   5.495   2.749  15.103 -0.3033 -0.0552 -0.2968
 3512TIP3    H131951   5.457   2.707  15.180 -0.9419  0.2943 -0.4082
 3512TIP3    H231952   5.530   2.832  15.136  2.4101 -1.3236  0.2363
 3513TIP3   OH231953   5.400   4.981  12.066  0.0449 -0.0277 -0.2201
 3513TIP3    H131954   5.415   5.038  11.991 -0.4381 -0.2804 -0.5082
 3513TIP3    H231955   5.374   4.897  12.029 -0.9788  0.0714  0.2327
 3514TIP3   OH231956   4.656   3.644  16.779 -0.3592  0.4599  0.3072
 3514TIP3    H131957   4.664   3.658  16.873  0.3286  0.5682  0.2368
 3514TIP3    H231958   4.576   3.690  16.754 -0.2491  0.8946  0.7463
 3515TIP3   OH231959   2.573   2.217   3.561 -0.2901  0.0639 -0.0690
 3515TIP3    H131960   2.662   2.233   3.591 -0.0716  0.5440 -0.9224
 3515TIP3    H231961   2.557   2.125   3.579 -0.4086  0.4528  2.0607
 3516TIP3   OH231962   2.556   0.350  15.465 -0.6049 -0.0660 -0.6193
 3516TIP3    H131963   2.639   0.321  15.425  1.2941  1.5970  1.8059
 3516TIP3    H231964   2.519   0.270  15.502  0.9855 -0.5679 -0.0069
 3517TIP3   OH231965   2.936   3.375  12.459 -0.2376 -0.4919 -0.6320
 3517TIP3    H131966   3.011   3.332  12.419  0.4559 -0.0394  0.1322
 3517TIP3    H231967   2.969   3.405  12.544 -1.4003 -0.6375 -0.1132
 3518TIP3   OH231968   2.032   5.653   4.899  0.4895 -0.0309 -0.4609
 3518TIP3    H131969   1.972   5.598   4.850 -0.0441 -0.2557  0.4237
 3518TIP3    H231970   1.979   5.727   4.928  0.9326  0.3807 -0.6961
 3519TIP3   OH231971   1.721   3.907   1.077 -0.6453 -0.1248  0.2904
 3519TIP3    H131972   1.785   3.837   1.091 -1.7371 -1.3014 -0.4031
 3519TIP3    H231973   1.701   3.903   0.983 -2.7996 -0.7850  0.7142
 3520TIP3   OH231974   1.158   5.059   3.492  0.2897  0.7119 -0.5481
 3520TIP3    H131975   1.233   5.062   3.551  0.0389 -0.6491 -0.1168
 3520TIP3    H231976   1.091   5.010   3.541 -0.1894  0.2137 -1.6657
 3521TIP3   OH231977   3.449   2.389   1.096 -0.1546 -0.5741 -0.0645
 3521TIP3    H131978   3.445   2.412   1.003  2.9535  0.5138 -0.0364
 3521TIP3    H231979   3.501   2.458   1.135 -1.4931 -0.9473  2.5692
 3522TIP3   OH231980   1.854   2.659  12.743  0.4258  0.3479  0.8509
 3522TIP3    H131981   1.887   2.670  12.654 -0.4716  0.6142  0.5403
 3522TIP3    H231982   1.910   2.590  12.781 -0.3346 -1.0984 -0.5222
 3523TIP3   OH231983   2.999   4.985   5.330 -0.4415  0.0395  0.7963
 3523TIP3    H131984   3.077   4.957   5.378 -0.4485 -0.6158  0.4412
 3523TIP3    H231985   3.002   5.081   5.333 -0.4341  0.0207  2.0799
 3524TIP3   OH231986   0.682   0.398  15.136  0.1000 -0.0393  0.0944
 3524TIP3    H131987   0.662   0.490  15.123  2.7714  0.7108  0.7480
 3524TIP3    H231988   0.707   0.391  15.228  0.3021 -1.3541 -0.0349
 3525TIP3   OH231989   3.022   0.500  11.019 -0.0819  0.1337  0.2803
 3525TIP3    H131990   2.936   0.531  10.990 -2.2463 -2.6487  3.0303
 3525TIP3    H231991   3.017   0.405  11.009  2.8348 -0.1078  0.3265
 3526TIP3   OH231992   4.009   4.818   1.494  0.1081 -0.3715  0.8128
 3526TIP3    H131993   3.992   4.797   1.402  1.1285  2.8150 -0.2153
 3526TIP3    H231994   3.922   4.828   1.532 -0.3618  0.5904 -0.4303
 3527TIP3   OH231995   0.581   1.402  11.113 -0.6910  0.2762  0.1505
 3527TIP3    H131996   0.580   1.481  11.060 -1.4039  0.3324  0.2280
 3527TIP3    H231997   0.643   1.420  11.183  0.9302 -0.1273 -1.1361
 3528TIP3   OH231998   0.766   4.923   3.026  0.2239  0.1813 -0.3477
 3528TIP3    H131999   0.857   4.950   3.036 -0.4648  1.9185  2.4764
 3528TIP3    H232000   0.733   4.915   3.115 -2.0237 -1.9066 -1.2435
 3529TIP3   OH232001   6.540   1.937   0.516  0.2283 -0.3731  0.2549
 3529TIP3    H132002   6.572   2.026   0.533  0.6198 -0.5518  0.4622
 3529TIP3    H232003   6.596   1.881   0.569  1.2629 -0.9106 -1.3295
 3530TIP3   OH232004   6.024   6.135   0.247 -0.2554 -0.2047  0.3689
 3530TIP3    H132005   6.020   6.228   0.270 -0.7240 -0.3550  0.8970
 3530TIP3    H232006   6.111   6.107   0.273 -0.4512 -0.1456  1.0915
 3531TIP3   OH232007   1.517   2.321   3.501 -1.0597  0.2706 -0.0913
 3531TIP3    H132008   1.440   2.269   3.523 -0.8869 -0.1871 -0.5366
 3531TIP3    H232009   1.569   2.321   3.581 -2.4373  2.2826  0.8677
 3532TIP3   OH232010   6.080   3.078  15.630 -0.4489  0.4147 -0.3963
 3532TIP3    H132011   6.071   3.078  15.534  1.8585 -0.9536 -0.6865
 3532TIP3    H232012   6.101   3.168  15.652 -0.0389  0.5479 -1.3044
 3533TIP3   OH232013   3.204   6.212  16.619  0.0458 -0.6566  0.5107
 3533TIP3    H132014   3.232   6.287  16.567  0.2082 -0.7209  0.5048
 3533TIP3    H232015   3.132   6.174  16.569 -1.3241  0.6211  1.4389
 3534TIP3   OH232016   1.167   0.587   5.648  0.4295  0.5386 -0.2516
 3534TIP3    H132017   1.207   0.672   5.668  0.4039  0.6078 -0.4825
 3534TIP3    H232018   1.149   0.548   5.733 -0.0371  0.9895 -0.1348
 3535TIP3   OH232019   5.493   4.599   0.126 -0.2451  0.3960  0.1898
 3535TIP3    H132020   5.455   4.559   0.204 -1.1312  0.6053 -0.1222
 3535TIP3    H232021   5.490   4.530   0.060  0.5216  0.2131  0.3430
 3536TIP3   OH232022   3.018   0.176  15.307 -0.1259 -0.4088 -0.6302
 3536TIP3    H132023   3.046   0.090  15.339  0.8852  0.1260  0.0007
 3536TIP3    H232024   2.976   0.159  15.223  0.1703 -1.5060 -0.5626
 3537TIP3   OH232025   3.930   2.100  13.061 -0.2385 -0.8878 -0.4538
 3537TIP3    H132026   3.943   2.085  13.154  0.5456  1.7479 -0.0528
 3537TIP3    H232027   3.992   2.169  13.038 -2.9806  1.2965 -2.0135
 3538TIP3   OH232028   0.714   1.022  11.974  0.1179 -0.6641  0.2287
 3538TIP3    H132029   0.661   1.050  11.899 -0.6337 -0.1590  0.9401
 3538TIP3    H232030   0.766   1.099  11.996  0.4009 -0.8391  0.1820
 3539TIP3   OH232031   4.035   2.825   5.564 -0.1714 -0.4988  0.6221
 3539TIP3    H132032   3.967   2.766   5.597  0.1381 -0.5357  1.2103
 3539TIP3    H232033   3.991   2.910   5.556 -0.9972 -1.0551 -1.5334
 3540TIP3   OH232034   3.395   0.799   1.488 -0.1694  0.2015 -0.5340
 3540TIP3    H132035   3.433   0.886   1.502 -0.0319  0.3107 -1.4728
 3540TIP3    H232036   3.456   0.739   1.531 -0.9190  0.6387  1.2163
 3541TIP3   OH232037   4.081   1.908  14.602 -0.0282  0.5366 -0.0662
 3541TIP3    H132038   4.080   1.971  14.530 -2.2980  0.3333 -0.2835
 3541TIP3    H232039   4.156   1.935  14.656 -0.1211  2.5999 -0.8652
 3542TIP3   OH232040   4.173   1.191  11.164 -0.2533 -0.2689  0.0481
 3542TIP3    H132041   4.261   1.205  11.130 -0.4229  0.8783  0.0660
 3542TIP3    H232042   4.116   1.243  11.107 -0.5971  1.2521  1.7171
 3543TIP3   OH232043   2.413   0.179  11.711 -0.8291 -0.4514  0.4174
 3543TIP3    H132044   2.346   0.171  11.779 -0.3549 -0.6646  0.8753
 3543TIP3    H232045   2.441   0.089  11.694 -0.1841 -0.3198  0.7297
 3544TIP3   OH232046   5.743   2.339  16.142  0.1127 -0.3965 -0.0541
 3544TIP3    H132047   5.687   2.300  16.209  0.2103 -0.1396  0.1793
 3544TIP3    H232048   5.682   2.380  16.081 -0.0690 -2.0425 -1.0438
 3545TIP3   OH232049   1.397   0.137  11.242 -0.0539 -0.2549  0.6880
 3545TIP3    H132050   1.329   0.075  11.213  0.3900 -0.6391  0.4515
 3545TIP3    H232051   1.415   0.112  11.333  1.8421 -2.0898 -0.1051
 3546TIP3   OH232052   1.285   4.216   0.905 -0.0995 -0.5540  1.3445
 3546TIP3    H132053   1.309   4.226   0.997 -0.6292 -2.7704  1.7997
 3546TIP3    H232054   1.354   4.161   0.869  0.2383  0.5156  0.3261
 3547TIP3   OH232055   6.725   4.305  15.061  0.2855 -0.5791 -0.3719
 3547TIP3    H132056   6.785   4.281  14.990 -0.6620 -1.5425 -0.8731
 3547TIP3    H232057   6.662   4.364  15.021  0.4578 -0.1399 -0.0142
 3548TIP3   OH232058   6.273   2.446   1.339 -0.4077  0.4258  0.1325
 3548TIP3    H132059   6.295   2.444   1.245  1.8789  1.4356  0.5905
 3548TIP3    H232060   6.246   2.356   1.358  2.1450 -0.6517 -0.8678
 3549TIP3   OH232061   2.422   5.127   4.430 -0.5374 -0.0761  0.0802
 3549TIP3    H132062   2.423   5.222   4.422  0.4115 -0.0151  0.7268
 3549TIP3    H232063   2.376   5.096   4.352  2.4800  0.7421 -2.1696
 3550TIP3   OH232064   6.437   0.764   3.275 -0.3352  0.0885  0.4675
 3550TIP3    H132065   6.384   0.834   3.236 -0.0189  0.1836  0.2037
 3550TIP3    H232066   6.492   0.808   3.340  1.5421  0.4949 -1.2974
 3551TIP3   OH232067   6.279   5.989  11.054  0.1425 -0.0058  0.0219
 3551TIP3    H132068   6.315   5.902  11.038 -1.0173 -0.5635  0.4107
 3551TIP3    H232069   6.191   5.974  11.087  0.1655  1.3000  0.7536
 3552TIP3   OH232070   6.240   6.121  15.961 -0.0648 -0.1046 -0.0500
 3552TIP3    H132071   6.147   6.143  15.967 -0.2438 -0.5430 -1.1388
 3552TIP3    H232072   6.280   6.196  15.916 -0.0056 -0.2277 -0.2024
 3553TIP3   OH232073   6.014   1.561   4.983 -0.3462  0.0123  0.6367
 3553TIP3    H132074   5.986   1.589   5.070  0.0907  0.3279  0.6835
 3553TIP3    H232075   6.035   1.468   4.993 -0.1978  0.0730  0.8919
 3554TIP3   OH232076   1.100   5.467  12.202 -0.6895 -0.1319  0.2977
 3554TIP3    H132077   1.192   5.470  12.179 -0.9120 -1.6055 -1.0115
 3554TIP3    H232078   1.054   5.490  12.121 -1.4733 -0.1142  0.7363
 3555TIP3   OH232079   2.981   1.481   0.802  0.2420 -0.1396  0.2090
 3555TIP3    H132080   2.937   1.565   0.787 -1.0947 -0.7250  0.7107
 3555TIP3    H232081   3.071   1.505   0.825 -0.1885  1.1711  0.5970
 3556TIP3   OH232082   0.297   6.142  14.229  0.5509 -0.0786  0.4863
 3556TIP3    H132083   0.355   6.180  14.294  2.1800  0.9777 -1.4937
 3556TIP3    H232084   0.343   6.063  14.199 -0.0408 -0.3850  0.3551
 3557TIP3   OH232085   0.228   2.778  13.601 -0.3457 -0.4751  0.0980
 3557TIP3    H132086   0.210   2.839  13.529 -2.2031 -0.0904  0.8356
 3557TIP3    H232087   0.167   2.705  13.586 -0.2899 -0.6970  0.9174
 3558TIP3   OH232088   3.919   1.576   5.277  0.2468 -0.2955  0.1639
 3558TIP3    H132089   3.873   1.604   5.356  1.6178 -0.0653  0.9032
 3558TIP3    H232090   3.901   1.483   5.270 -1.3573  0.0230 -0.2737
 3559TIP3   OH232091   4.201   1.093   2.796  0.4795 -0.2926 -0.1125
 3559TIP3    H132092   4.201   1.175   2.748  1.5826 -0.5947 -0.6633
 3559TIP3    H232093   4.170   1.028   2.734 -1.1258 -0.2062  0.5437
 3560TIP3   OH232094   2.007   0.241  13.067  0.2777  0.4709 -0.8308
 3560TIP3    H132095   1.935   0.269  13.123  1.5838 -0.6337  1.5693
 3560TIP3    H232096   1.965   0.185  13.001 -1.0817 -0.3672  0.6585
 3561TIP3   OH232097   1.098   5.656   0.801 -0.4085 -0.0595 -0.1076
 3561TIP3    H132098   1.105   5.687   0.711  1.0670 -0.8224 -0.2858
 3561TIP3    H232099   1.054   5.727   0.847 -0.3290  0.7497 -1.2235
 3562TIP3   OH232100   3.199   2.582  16.971 -0.6619  0.4861 -0.3108
 3562TIP3    H132101   3.159   2.598  16.886 -0.5744 -2.9004 -1.1294
 3562TIP3    H232102   3.211   2.487  16.974  2.5141  0.8098  2.0690
 3563TIP3   OH232103   1.136   1.948   3.686 -0.0241  0.5016 -0.5678
 3563TIP3    H132104   1.054   1.930   3.639  0.2281 -0.1951 -0.7619
 3563TIP3    H232105   1.125   1.904   3.771 -0.4988  1.7970  0.0717
 3564TIP3   OH232106   1.457   0.122   4.086 -0.7029  0.2733 -0.1020
 3564TIP3    H132107   1.431   0.214   4.076  0.7224  0.7941  0.6849
 3564TIP3    H232108   1.504   0.119   4.169  2.2266 -0.4452 -1.6569
 3565TIP3   OH232109   3.627   6.375  12.802 -0.2837  0.0744  0.2792
 3565TIP3    H132110   3.604   6.460  12.841 -0.4433  0.2538 -0.1868
 3565TIP3    H232111   3.574   6.312  12.850  2.0701 -0.1992  2.7667
 3566TIP3   OH232112   6.592   4.251   4.036  0.1459  0.3901  0.1167
 3566TIP3    H132113   6.616   4.251   3.943 -2.1930 -1.6004 -0.5737
 3566TIP3    H232114   6.652   4.315   4.075  0.7213  1.8658 -2.8502
 3567TIP3   OH232115   0.197   0.670   0.493 -0.4071  0.1461 -0.2891
 3567TIP3    H132116   0.261   0.710   0.434  0.8353  0.4980  1.2209
 3567TIP3    H232117   0.118   0.723   0.482 -0.6734 -0.6479 -2.6122
 3568TIP3   OH232118   4.578   5.665   5.707  0.4159 -0.1420 -0.4576
 3568TIP3    H132119   4.632   5.648   5.785  0.9123 -1.9535 -1.1545
 3568TIP3    H232120   4.641   5.685   5.638 -0.0208  1.4055 -0.4385
 3569TIP3   OH232121   4.503   6.208   4.529 -0.4349 -0.3342  0.1672
 3569TIP3    H132122   4.588   6.187   4.490 -1.3446  1.8164 -3.4425
 3569TIP3    H232123   4.440   6.195   4.458 -2.4087  2.9501  1.0982
 3570TIP3   OH232124   4.492   4.420  11.594  0.4032  0.2797  0.5901
 3570TIP3    H132125   4.430   4.440  11.665 -3.3480 -0.1513 -2.2465
 3570TIP3    H232126   4.500   4.325  11.596 -0.9722  0.1117 -0.4086
 3571TIP3   OH232127   4.550   0.439  12.537 -0.0657  0.1159  0.4008
 3571TIP3    H132128   4.503   0.520  12.520 -0.0090 -0.4005 -2.6769
 3571TIP3    H232129   4.642   0.462  12.529 -0.0585 -0.2801 -0.8282
 3572TIP3   OH232130   2.091   2.572   0.112 -0.3076 -0.2126 -0.1088
 3572TIP3    H132131   2.040   2.549   0.189  1.1784  0.9664  1.2955
 3572TIP3    H232132   2.030   2.619   0.055 -0.8366  1.1169  1.4905
 3573TIP3   OH232133   3.738   5.763   3.293 -0.0576 -0.0772  0.2955
 3573TIP3    H132134   3.820   5.721   3.320 -0.2948 -0.2117  0.8127
 3573TIP3    H232135   3.683   5.691   3.264  0.2408  0.0761 -0.7025
 3574TIP3   OH232136   0.090   1.177  13.032  0.3491  1.1851 -0.0808
 3574TIP3    H132137   0.069   1.127  13.111  2.4847  0.2817  0.0041
 3574TIP3    H232138   0.071   1.117  12.960 -0.5255  1.6024 -0.2111
 3575TIP3   OH232139   5.836   4.289   5.503  0.0508  0.6631  0.0101
 3575TIP3    H132140   5.825   4.194   5.506  1.3026  0.4654 -1.1308
 3575TIP3    H232141   5.763   4.319   5.448  0.9730  0.0978 -1.5821
 3576TIP3   OH232142   1.606   2.094   2.982 -0.0270 -0.2502 -0.3356
 3576TIP3    H132143   1.608   2.161   3.051  0.0576 -1.4686  0.8803
 3576TIP3    H232144   1.628   2.142   2.902 -0.6628  1.3070  0.3820
 3577TIP3   OH232145   2.660   4.099  15.437 -0.0520 -0.2519  0.4387
 3577TIP3    H132146   2.754   4.083  15.441  0.3307  1.8642  1.7794
 3577TIP3    H232147   2.651   4.172  15.375 -0.9275 -1.0652 -0.4089
 3578TIP3   OH232148   4.602   5.801  11.902 -0.3686 -0.3935  0.4210
 3578TIP3    H132149   4.601   5.894  11.879 -0.3315 -0.6825 -0.7697
 3578TIP3    H232150   4.606   5.801  11.998  3.2885  0.8550  0.4180
 3579TIP3   OH232151   1.009   4.275   1.506 -0.2678  0.0172 -0.3120
 3579TIP3    H132152   1.071   4.305   1.439 -1.2236  0.2963 -1.0861
 3579TIP3    H232153   0.958   4.207   1.463 -1.2793  0.5933 -0.0622
 3580TIP3   OH232154   6.107   1.085   5.144  1.0296 -0.7703 -0.0017
 3580TIP3    H132155   6.117   1.178   5.165  0.8560 -0.8738  0.5437
 3580TIP3    H232156   6.101   1.041   5.229 -0.0887 -1.1520 -0.2594
 3581TIP3   OH232157   0.230   0.596   4.460  1.1156 -0.6128  0.0756
 3581TIP3    H132158   0.235   0.613   4.554  1.1472 -1.5399  0.2523
 3581TIP3    H232159   0.319   0.610   4.428  1.1282 -0.3988  0.2012
 3582TIP3   OH232160   4.955   4.030   2.835  0.2737  0.4105 -0.1692
 3582TIP3    H132161   4.886   4.034   2.901 -0.5809  1.1791 -1.0930
 3582TIP3    H232162   5.034   4.058   2.882  0.0415 -0.6762  0.9519
 3583TIP3   OH232163   6.349   3.662  11.293  0.0337  0.3478  0.2635
 3583TIP3    H132164   6.293   3.603  11.342  0.0309 -0.5591 -0.7831
 3583TIP3    H232165   6.419   3.606  11.259  1.0260  1.2770  0.7238
 3584TIP3   OH232166   4.523   1.358   3.256  1.1559 -0.0682 -0.6242
 3584TIP3    H132167   4.496   1.440   3.216  1.0663  0.2082 -0.0120
 3584TIP3    H232168   4.603   1.333   3.208  0.5964 -0.1806 -1.5135
 3585TIP3   OH232169   1.011   3.107  11.456 -0.4252  0.0464 -0.2712
 3585TIP3    H132170   0.954   3.172  11.497 -0.1922  0.3582 -0.4371
 3585TIP3    H232171   1.049   3.059  11.529 -1.4661 -0.6566 -0.1735
 3586TIP3   OH232172   5.033   0.889  14.343 -0.1737  0.2541  0.4567
 3586TIP3    H132173   5.015   0.959  14.281 -0.3888 -0.1344  0.0716
 3586TIP3    H232174   5.037   0.932  14.428 -2.3404  0.4620  0.5000
 3587TIP3   OH232175   0.401   0.657  13.312  0.6961 -0.1370 -0.3070
 3587TIP3    H132176   0.465   0.683  13.246  1.0454  0.3599  0.2174
 3587TIP3    H232177   0.372   0.740  13.351  0.5007 -0.4210  0.1591
 3588TIP3   OH232178   1.124   1.118   3.220 -0.2113 -0.3441 -0.2633
 3588TIP3    H132179   1.141   1.209   3.195  1.4774 -1.0246 -1.8431
 3588TIP3    H232180   1.030   1.115   3.234 -0.4099  1.5057 -0.8340
 3589TIP3   OH232181   4.752   6.529  11.942 -0.4858 -0.2337 -0.3999
 3589TIP3    H132182   4.689   6.568  12.003 -1.5138  0.9757 -2.1608
 3589TIP3    H232183   4.831   6.583  11.952  0.2604 -1.5451  1.5602
 3590TIP3   OH232184   2.303   3.103   3.711  0.3400  0.1809 -0.5367
 3590TIP3    H132185   2.343   3.031   3.761  1.0352  0.7033 -0.3262
 3590TIP3    H232186   2.354   3.180   3.735  0.8941  0.3960 -2.2840
 3591TIP3   OH232187   0.488   3.889  14.018  0.8121 -0.1618  0.0173
 3591TIP3    H132188   0.411   3.928  13.976  0.5983  0.8954  1.3249
 3591TIP3    H232189   0.490   3.798  13.987 -0.0444  0.2386 -1.2595
 3592TIP3   OH232190   3.147   1.839   6.720  0.0448  0.1286  0.3826
 3592TIP3    H132191   3.157   1.904   6.650  0.7744 -1.9202 -1.5229
 3592TIP3    H232192   3.110   1.762   6.677 -1.7391 -0.4843  2.7541
 3593TIP3   OH232193   3.996   5.038   1.203  0.1210 -0.0127  0.3453
 3593TIP3    H132194   4.084   5.002   1.199  0.3881  0.3498  2.1764
 3593TIP3    H232195   3.986   5.068   1.293 -1.7755  0.2114  0.1083
 3594TIP3   OH232196   4.111   5.022   2.658  0.1141  0.4351  0.1689
 3594TIP3    H132197   4.132   5.002   2.750  0.6295  0.2704  0.0151
 3594TIP3    H232198   4.103   5.117   2.655 -1.0336  0.3780  0.6241
 3595TIP3   OH232199   4.208   2.812  16.068 -0.0980  0.5059 -0.3200
 3595TIP3    H132200   4.121   2.834  16.100  0.6352  1.9255  0.8385
 3595TIP3    H232201   4.237   2.890  16.020  0.3670 -0.1288 -1.1147
 3596TIP3   OH232202   0.242   0.116   0.837 -0.1641 -0.5437  0.2275
 3596TIP3    H132203   0.285   0.155   0.913  1.9126 -0.3053 -1.0035
 3596TIP3    H232204   0.311   0.109   0.771 -1.7719 -1.2301 -1.4686
 3597TIP3   OH232205   5.052   6.464  16.274 -0.1519  0.3067 -0.0288
 3597TIP3    H132206   5.062   6.457  16.179 -0.0130 -2.4246  0.0848
 3597TIP3    H232207   4.958   6.464  16.289 -0.1819 -0.6121 -0.1503
 3598TIP3   OH232208   2.617   0.059  16.106  0.1570  0.8850  0.0556
 3598TIP3    H132209   2.585  -0.028  16.132 -1.5391  1.4171 -0.1521
 3598TIP3    H232210   2.555   0.120  16.146  1.1328  1.9990 -0.0897
 3599TIP3   OH232211   6.682   3.649  13.842  0.4162 -0.0175 -0.9068
 3599TIP3    H132212   6.649   3.573  13.795  0.3975  0.9112 -2.4601
 3599TIP3    H232213   6.686   3.718  13.776  2.4874  0.7601 -0.0452
 3600TIP3   OH232214   5.760   4.369   5.030  0.1979 -0.6138 -0.4327
 3600TIP3    H132215   5.697   4.298   5.034  0.8373 -1.1735 -0.0434
 3600TIP3    H232216   5.729   4.425   4.960 -0.6626 -0.9410 -0.3246
 3601TIP3   OH232217   2.669   0.645   3.223  0.1164 -0.2947 -0.5439
 3601TIP3    H132218   2.650   0.653   3.316  1.4105  1.8083 -0.3935
 3601TIP3    H232219   2.713   0.560   3.214  0.7858 -0.1249  0.9161
 3602TIP3   OH232220   4.958   3.803  14.829 -0.0599  0.1436 -0.1011
 3602TIP3    H132221   5.007   3.867  14.778  0.1656 -0.8069 -1.1064
 3602TIP3    H232222   4.868   3.810  14.797 -0.1485  0.3167  0.1722
 3603TIP3   OH232223   0.159   5.936   4.182  0.1871 -0.3934 -0.6144
 3603TIP3    H132224   0.243   5.909   4.144  1.1078  1.5629 -0.1388
 3603TIP3    H232225   0.136   5.866   4.242  1.9167 -0.6106 -0.1425
 3604TIP3   OH232226   4.298   6.306  15.175 -0.2032  0.3268 -0.1992
 3604TIP3    H132227   4.277   6.212  15.179  0.0180  0.3002  0.5565
 3604TIP3    H232228   4.375   6.311  15.119 -1.1936  0.2432 -1.6022
 3605TIP3   OH232229   2.278   0.584  13.561 -0.4349 -1.0640  0.1710
 3605TIP3    H132230   2.276   0.559  13.654  0.2479  0.5581  0.6506
 3605TIP3    H232231   2.327   0.666  13.559 -0.4646 -1.0507 -1.6364
 3606TIP3   OH232232   1.605   5.846   4.043 -0.4071 -0.1568 -0.3076
 3606TIP3    H132233   1.577   5.831   3.953 -0.3030  0.4336 -0.4445
 3606TIP3    H232234   1.698   5.822   4.043 -0.5249 -0.6074 -0.2428
 3607TIP3   OH232235   1.376   4.262   1.136  0.1621 -0.1645  0.1524
 3607TIP3    H132236   1.471   4.277   1.142  0.4123 -1.4642 -0.3233
 3607TIP3    H232237   1.343   4.281   1.223  0.7370  1.0320  0.1412
 3608TIP3   OH232238   2.544   1.216   1.790  0.0885 -0.2168  0.0801
 3608TIP3    H132239   2.474   1.272   1.756  1.4876  0.4224 -1.8977
 3608TIP3    H232240   2.530   1.132   1.748 -0.0354 -0.3719  0.4283
 3609TIP3   OH232241   0.184   6.768   5.349  0.3498 -0.0318  0.2152
 3609TIP3    H132242   0.230   6.803   5.425 -0.8571  0.0899  0.9118
 3609TIP3    H232243   0.162   6.844   5.296  0.8732 -0.0838 -0.0820
 3610TIP3   OH232244   4.411   3.095   2.784  0.3570  0.5777 -0.0054
 3610TIP3    H132245   4.420   3.166   2.848  0.0134 -0.3738  1.1418
 3610TIP3    H232246   4.337   3.043   2.816 -0.2079  0.4001 -1.5218
 3611TIP3   OH232247   6.195   0.580   2.626 -0.5506  0.2106  0.0599
 3611TIP3    H132248   6.173   0.543   2.712 -0.8418  0.8611  0.2682
 3611TIP3    H232249   6.110   0.605   2.589 -0.3890  0.2815 -0.2628
 3612TIP3   OH232250   6.057   3.548  12.311 -0.5430 -0.2148 -0.0971
 3612TIP3    H132251   5.993   3.594  12.366  1.6236  1.4403  1.2200
 3612TIP3    H232252   6.044   3.585  12.224 -1.1611  0.3718  0.2289
 3613TIP3   OH232253   2.572   4.639   5.017  0.7720 -0.4149  0.3171
 3613TIP3    H132254   2.528   4.559   5.046  1.1034 -0.6742  0.1015
 3613TIP3    H232255   2.568   4.697   5.094 -0.8350 -0.0454  0.0041
 3614TIP3   OH232256   1.139   6.204  11.065 -0.3121  0.5738  0.0675
 3614TIP3    H132257   1.074   6.179  11.000  0.2035  1.1653 -0.7016
 3614TIP3    H232258   1.194   6.269  11.020  1.4465 -0.6599  0.3272
 3615TIP3   OH232259   0.971   5.528  15.312  0.1884  0.2320 -0.7328
 3615TIP3    H132260   0.943   5.619  15.305  0.8512  0.6464  1.3843
 3615TIP3    H232261   1.007   5.520  15.401 -0.1414 -2.1790 -0.7488
 3616TIP3   OH232262   2.317   2.040   4.891  0.4294 -0.2207  0.4821
 3616TIP3    H132263   2.326   1.945   4.905 -0.9895 -0.9188 -2.4339
 3616TIP3    H232264   2.253   2.068   4.955 -1.0548 -1.8251 -0.2220
 3617TIP3   OH232265   5.189   5.351  17.158 -0.0753 -0.2683 -0.8285
 3617TIP3    H132266   5.098   5.355  17.188 -0.0062 -0.3537 -0.6023
 3617TIP3    H232267   5.220   5.442  17.167 -0.0073 -0.3248 -0.4849
 3618TIP3   OH232268   4.182   2.255  16.305  0.1928 -0.1687 -0.6622
 3618TIP3    H132269   4.186   2.347  16.282 -1.8733 -0.1933 -1.2747
 3618TIP3    H232270   4.176   2.209  16.221 -1.0996 -0.6897 -0.3065
 3619TIP3   OH232271   6.172   5.703  15.779  0.0671 -0.0965 -0.3047
 3619TIP3    H132272   6.127   5.665  15.704 -0.1664 -0.4047 -0.0060
 3619TIP3    H232273   6.200   5.790  15.749 -0.4498 -0.0292 -0.5869
 3620TIP3   OH232274   0.707   0.695   5.192  0.4353 -0.0687 -0.2318
 3620TIP3    H132275   0.748   0.772   5.152  0.8857  0.1916  0.7190
 3620TIP3    H232276   0.686   0.721   5.281 -2.9193  0.2100 -0.9720
 3621TIP3   OH232277   5.626   4.309   2.815 -0.5467 -0.5691  0.3764
 3621TIP3    H132278   5.583   4.285   2.733 -0.2405  0.4947 -0.1092
 3621TIP3    H232279   5.635   4.404   2.811  1.8371 -0.7149  0.4225
 3622TIP3   OH232280   4.887   6.233   4.618  0.3501 -0.2194  0.2168
 3622TIP3    H132281   4.940   6.309   4.593  2.0466 -1.1993  0.6561
 3622TIP3    H232282   4.919   6.162   4.563 -0.8034 -0.7590  0.2212
 3623TIP3   OH232283   0.289   5.890  13.068  0.2623 -0.1927 -0.3820
 3623TIP3    H132284   0.349   5.965  13.068 -0.0693  0.1368 -2.5300
 3623TIP3    H232285   0.299   5.851  12.982 -1.3239 -1.2001 -0.1591
 3624TIP3   OH232286   3.895   0.833  16.717 -0.3834  0.2472 -0.9303
 3624TIP3    H132287   3.917   0.926  16.712 -0.8681  0.3317 -1.6204
 3624TIP3    H232288   3.971   0.788  16.680  0.1367  0.3169  0.0130
 3625TIP3   OH232289   5.368   2.904   4.207  0.6650  0.0210  0.1942
 3625TIP3    H132290   5.349   2.911   4.300 -0.2850 -0.5470  0.0504
 3625TIP3    H232291   5.319   2.977   4.167  0.0331 -0.4983  0.0039
 3626TIP3   OH232292   4.322   2.534   2.740  0.0970  0.4763 -0.2942
 3626TIP3    H132293   4.277   2.456   2.707 -0.2203  0.3879  0.3313
 3626TIP3    H232294   4.361   2.573   2.663  0.0975 -0.1997 -0.6463
 3627TIP3   OH232295   4.881   6.553  13.188  0.7372 -0.0533  0.2283
 3627TIP3    H132296   4.789   6.575  13.198  0.1487 -2.2717  0.2980
 3627TIP3    H232297   4.882   6.489  13.117  2.0419 -1.0966  1.1418
 3628TIP3   OH232298   2.834   1.137   1.419  0.0944 -0.6168 -1.1803
 3628TIP3    H132299   2.766   1.204   1.410  0.0006 -0.6319 -0.6462
 3628TIP3    H232300   2.853   1.136   1.513  1.5873  0.1440 -1.4399
 3629TIP3   OH232301   5.052   3.645  14.230  0.4143 -0.3917  0.3622
 3629TIP3    H132302   5.081   3.734  14.209 -0.4259 -0.0974  0.3987
 3629TIP3    H232303   5.017   3.611  14.148 -0.5017 -0.1880  0.6622
 3630TIP3   OH232304   1.031   3.260   4.837 -0.0057 -0.1884 -0.2192
 3630TIP3    H132305   1.075   3.332   4.790  0.5006 -0.8345 -0.7537
 3630TIP3    H232306   0.968   3.226   4.774  0.4663 -0.8666 -0.3379
 3631TIP3   OH232307   6.520   2.464  16.703 -0.0799 -0.9365  0.5308
 3631TIP3    H132308   6.501   2.549  16.744 -0.5365 -1.0541  0.5685
 3631TIP3    H232309   6.613   2.470  16.679 -0.0562 -0.5011  0.7094
 3632TIP3   OH232310   3.715   3.360   4.014  0.1763 -0.9826  0.2367
 3632TIP3    H132311   3.791   3.360   4.073  0.7198 -0.7505 -0.4389
 3632TIP3    H232312   3.746   3.407   3.936 -1.3741  1.2161  0.8486
 3633TIP3   OH232313   5.963   4.647  15.183 -0.0333  0.0747 -0.0409
 3633TIP3    H132314   5.920   4.586  15.124  0.4960  2.1433 -2.8142
 3633TIP3    H232315   5.909   4.726  15.179  0.4096  0.5030  1.7580
 3634TIP3   OH232316   2.347   4.057  14.424 -0.3825 -0.6966 -0.3207
 3634TIP3    H132317   2.257   4.056  14.392 -0.2690  0.1433 -0.7015
 3634TIP3    H232318   2.372   4.149  14.423  0.3895 -0.8903  0.0476
 3635TIP3   OH232319   3.802   0.484  15.558 -0.2882 -0.0376  0.0396
 3635TIP3    H132320   3.776   0.396  15.532 -0.3031  0.0194 -0.1429
 3635TIP3    H232321   3.880   0.503  15.505 -1.5464  0.9050 -1.5917
 3636TIP3   OH232322   0.049   6.235   0.269 -0.2883 -0.0784  0.1847
 3636TIP3    H132323   0.083   6.165   0.325 -0.8973  0.6999  1.5945
 3636TIP3    H232324  -0.044   6.215   0.259  0.1965 -1.4034 -2.4418
 3637TIP3   OH232325   5.082   3.900  16.929 -0.1064  0.0472  0.3879
 3637TIP3    H132326   5.113   3.938  16.847 -0.7252  1.0942  0.6243
 3637TIP3    H232327   5.148   3.834  16.951 -0.6539 -1.3058 -1.6872
 3638TIP3   OH232328   6.339   6.320  10.453  0.5715 -0.4660  0.5873
 3638TIP3    H132329   6.309   6.266  10.381  1.1500 -1.8608  1.3485
 3638TIP3    H232330   6.434   6.305  10.457  0.5357 -0.5194  1.7006
 3639TIP3   OH232331   1.738   1.152   3.140 -0.3050  0.1858  0.7336
 3639TIP3    H132332   1.682   1.132   3.215  0.2028 -0.9163  0.8352
 3639TIP3    H232333   1.677   1.162   3.067 -0.5905 -2.9359  0.4185
 3640TIP3   OH232334   0.014   0.913  16.897  0.1267  0.5415 -1.0007
 3640TIP3    H132335  -0.075   0.899  16.931  0.8974 -1.7513  0.3007
 3640TIP3    H232336   0.064   0.943  16.973  0.6021  1.2870 -1.5937
 3641TIP3   OH232337   3.034   3.011   5.981 -0.1378  0.2849  0.1254
 3641TIP3    H132338   3.094   2.994   5.907  0.0558 -0.1024  0.3669
 3641TIP3    H232339   3.071   3.087   6.025  0.4284 -0.2222  0.5333
 3642TIP3   OH232340   1.355   2.637  14.070 -0.4755 -0.8788 -1.0528
 3642TIP3    H132341   1.290   2.688  14.023 -0.8332 -0.1325  0.1950
 3642TIP3    H232342   1.305   2.568  14.114 -0.6073  0.2376  0.6461
 3643TIP3   OH232343   0.901   5.843   4.864  0.0939  0.1498  0.4181
 3643TIP3    H132344   0.844   5.863   4.789 -0.7812 -0.7442  0.8335
 3643TIP3    H232345   0.841   5.831   4.937  0.8604 -0.2283  0.9962
 3644TIP3   OH232346   4.552   0.805  14.615 -0.1397  0.6906  0.0368
 3644TIP3    H132347   4.539   0.755  14.534  1.0192  2.3361 -1.2139
 3644TIP3    H232348   4.627   0.861  14.598 -0.1719  1.4646  2.1005
 3645TIP3   OH232349   6.644   0.085   2.340 -0.2052 -0.1341  0.2493
 3645TIP3    H132350   6.675   0.171   2.367  1.3371 -0.5646 -0.0485
 3645TIP3    H232351   6.626   0.094   2.246  3.5994 -1.0046 -0.7283
 3646TIP3   OH232352   0.229   0.414   3.308  0.6836 -0.0128 -0.2514
 3646TIP3    H132353   0.311   0.430   3.262  0.5885  2.3322  0.2734
 3646TIP3    H232354   0.235   0.467   3.388 -0.8940 -0.6568  0.3347
 3647TIP3   OH232355   3.174   4.202   2.873 -0.7077  1.0501 -0.1876
 3647TIP3    H132356   3.264   4.205   2.906 -1.2695  0.1249  1.5119
 3647TIP3    H232357   3.181   4.236   2.783  1.6799 -1.0206 -0.8967
 3648TIP3   OH232358   1.658   4.590   1.256  0.1254 -0.4306  0.3202
 3648TIP3    H132359   1.565   4.581   1.279 -0.1553  0.6332 -0.3529
 3648TIP3    H232360   1.678   4.510   1.207 -1.2214  0.5871 -2.0263
 3649TIP3   OH232361   5.576   1.863  14.944 -0.4943  0.6962  0.0499
 3649TIP3    H132362   5.556   1.835  15.034 -1.3291 -0.9809 -0.6084
 3649TIP3    H232363   5.626   1.790  14.907  1.3504  2.1074 -0.3595
 3650TIP3   OH232364   3.012   1.933   4.030 -0.1063 -0.1447 -0.0282
 3650TIP3    H132365   3.014   2.017   4.076  0.5864 -0.5634  0.7326
 3650TIP3    H232366   3.067   1.875   4.084 -2.1229 -1.6363  0.5404
 3651TIP3   OH232367   4.014   0.269  13.079  0.1065  0.1212  0.3044
 3651TIP3    H132368   3.976   0.355  13.060  1.3002  0.6467  0.1547
 3651TIP3    H232369   4.024   0.227  12.994  0.0030  0.0496  0.3274
 3652TIP3   OH232370   5.041   0.153  15.960  0.2136 -0.1658  0.1678
 3652TIP3    H132371   4.988   0.199  15.895 -0.5290 -2.5160 -0.9892
 3652TIP3    H232372   5.083   0.223  16.011 -0.7218  1.7464 -1.5624
 3653TIP3   OH232373   3.584   5.699   0.027 -0.1265 -0.0982 -0.1837
 3653TIP3    H132374   3.547   5.773  -0.021  0.6993  0.8232  0.5481
 3653TIP3    H232375   3.590   5.730   0.118 -1.7195 -1.8067  0.5777
 3654TIP3   OH232376   5.132   6.274  14.821  0.8341  0.2205  0.0231
 3654TIP3    H132377   5.134   6.274  14.726 -0.6162  1.3346 -0.0402
 3654TIP3    H232378   5.124   6.182  14.846 -1.0404  0.0731 -1.0139
 3655TIP3   OH232379   3.961   3.549  13.850  0.3017 -0.0213  0.1207
 3655TIP3    H132380   3.919   3.590  13.774 -2.3472 -1.4256  0.6954
 3655TIP3    H232381   3.986   3.462  13.818  1.1223  0.1487  0.2939
 3656TIP3   OH232382   6.430   5.790   2.266 -0.2093 -0.3905  0.0380
 3656TIP3    H132383   6.430   5.876   2.225 -0.3269 -0.9718 -1.2580
 3656TIP3    H232384   6.517   5.782   2.305 -0.1354  0.2434  0.0076
 3657TIP3   OH232385   6.418   3.523  10.388  0.3228 -0.2603  0.2944
 3657TIP3    H132386   6.362   3.500  10.462  0.3332  0.3529  0.5004
 3657TIP3    H232387   6.503   3.484  10.409  0.0826 -0.8569  0.1690
 3658TIP3   OH232388   2.473   4.854  15.023 -0.0302 -0.0728 -0.1339
 3658TIP3    H132389   2.386   4.872  14.987 -0.3932 -1.6293 -0.1128
 3658TIP3    H232390   2.530   4.853  14.946  0.0557  1.3388 -0.1067
 3659TIP3   OH232391   3.919   4.534  12.993 -0.2999  0.5395 -0.2156
 3659TIP3    H132392   3.955   4.496  12.913 -0.1331  0.5997 -0.1692
 3659TIP3    H232393   3.951   4.624  12.994  1.0005  0.0973  0.7110
 3660TIP3   OH232394   2.512   0.008  14.709  0.2329  0.3653  0.1765
 3660TIP3    H132395   2.464  -0.004  14.791  0.4651  1.4821  0.4932
 3660TIP3    H232396   2.507  -0.077  14.665 -1.9276  0.4228  0.2518
 3661TIP3   OH232397   5.240   2.684   0.963 -0.0538 -0.0675  0.1742
 3661TIP3    H132398   5.171   2.707   0.900  0.1879 -0.4296 -0.2204
 3661TIP3    H232399   5.265   2.595   0.941  0.3327 -0.0486  0.5155
 3662TIP3   OH232400   3.737   3.517  11.464 -0.3790 -0.5071 -0.2604
 3662TIP3    H132401   3.731   3.441  11.407 -1.7336 -0.0737 -0.7253
 3662TIP3    H232402   3.787   3.581  11.413  3.9424 -2.1467  1.4199
 3663TIP3   OH232403   3.356   5.903  15.908 -0.5221 -0.1171  0.2468
 3663TIP3    H132404   3.424   5.891  15.975 -2.1060  0.3744  2.0348
 3663TIP3    H232405   3.294   5.831  15.924 -1.3446  0.4921 -0.1506
 3664TIP3   OH232406   5.346   1.422  12.183  0.1845  0.2977  0.1006
 3664TIP3    H132407   5.378   1.487  12.120 -1.6361 -0.2856 -1.5230
 3664TIP3    H232408   5.374   1.338  12.148 -1.1319 -0.0575 -0.1788
 3665TIP3   OH232409   2.644   5.658   6.574 -0.5848  0.1490 -0.0003
 3665TIP3    H132410   2.685   5.625   6.654 -1.3383 -0.2946  0.2122
 3665TIP3    H232411   2.698   5.623   6.503 -0.7549 -0.6654  0.2656
 3666TIP3   OH232412   2.162   3.040  12.346  0.1461  0.0553 -0.0977
 3666TIP3    H132413   2.166   3.076  12.257  1.7803  1.2263  0.4161
 3666TIP3    H232414   2.213   2.959  12.341  1.1912  0.6892  0.0013
 3667TIP3   OH232415   4.763   2.120  17.177 -0.0033 -0.3755  0.6563
 3667TIP3    H132416   4.833   2.128  17.242 -0.2912 -0.7335  1.0194
 3667TIP3    H232417   4.792   2.174  17.103 -0.5884  1.7264  1.8669
 3668TIP3   OH232418   3.761   4.197   0.853 -0.6439 -0.3680 -0.5338
 3668TIP3    H132419   3.770   4.102   0.839 -0.9340 -0.3387 -0.9407
 3668TIP3    H232420   3.753   4.206   0.948  0.3505 -0.6649 -0.4110
 3669TIP3   OH232421   5.484   1.068  16.379  0.2293 -0.5889 -0.1259
 3669TIP3    H132422   5.523   0.983  16.362 -2.5393 -1.7480 -1.2790
 3669TIP3    H232423   5.503   1.120  16.300 -0.3359 -1.0659 -0.5815
 3670TIP3   OH232424   4.332   1.694   0.028  0.0960 -0.4929  0.2250
 3670TIP3    H132425   4.310   1.684  -0.065 -1.0618 -0.1841  0.4555
 3670TIP3    H232426   4.398   1.626   0.043 -0.3386 -1.1312 -0.6188
 3671TIP3   OH232427   6.170   5.090   3.638 -0.2515 -0.3637 -0.3902
 3671TIP3    H132428   6.256   5.099   3.681 -0.0009 -0.9935 -0.7532
 3671TIP3    H232429   6.131   5.178   3.645  0.2881 -0.1494  0.0510
 3672TIP3   OH232430   6.425   4.055  11.177 -0.1103 -0.3939 -0.1077
 3672TIP3    H132431   6.479   4.071  11.099 -0.5927  0.0791 -0.3448
 3672TIP3    H232432   6.481   4.000  11.233  0.1534 -0.9374 -0.8840
 3673TIP3   OH232433   0.867   5.064   1.931  0.2237  0.3991 -0.0163
 3673TIP3    H132434   0.940   5.014   1.968 -0.3786 -0.2377  0.3367
 3673TIP3    H232435   0.909   5.127   1.872  0.9385 -1.2859 -1.3792
 3674TIP3   OH232436   2.047   2.460  11.930 -0.2185 -0.1101 -0.1486
 3674TIP3    H132437   2.070   2.408  11.853  1.4691  2.5739 -1.6405
 3674TIP3    H232438   2.117   2.443  11.992 -1.1630 -1.6715  0.5463
 3675TIP3   OH232439   6.179   2.864   5.876  0.0990 -0.2032 -0.6509
 3675TIP3    H132440   6.118   2.791   5.873  0.0411 -0.2111  0.4491
 3675TIP3    H232441   6.266   2.824   5.869  0.1935 -0.6170  2.0173
 3676TIP3   OH232442   0.466   3.798  11.577  0.0062  0.0117  0.3597
 3676TIP3    H132443   0.522   3.746  11.634  1.2108  0.1777 -0.6204
 3676TIP3    H232444   0.457   3.744  11.498 -0.9416  0.1472  0.3635
 3677TIP3   OH232445   2.285   5.468   2.588 -0.2640  0.5414 -0.2590
 3677TIP3    H132446   2.224   5.454   2.516 -1.6342 -0.2413  1.0162
 3677TIP3    H232447   2.279   5.562   2.607 -0.8561  0.5204 -0.3304
 3678TIP3   OH232448   0.123   2.570   4.911  0.1986 -0.9390  0.3628
 3678TIP3    H132449   0.191   2.561   4.977 -0.5966  0.5873  1.4601
 3678TIP3    H232450   0.086   2.482   4.903  0.9640 -1.3590  1.2201
 3679TIP3   OH232451   5.273   3.735  15.368 -0.4681 -0.0412  0.0225
 3679TIP3    H132452   5.192   3.785  15.373  0.2716  1.3147 -0.7954
 3679TIP3    H232453   5.257   3.657  15.422 -1.8893  0.7555  0.8120
 3680TIP3   OH232454   5.291   3.622   6.410 -0.3584 -0.4402 -0.4021
 3680TIP3    H132455   5.354   3.680   6.454 -0.5175 -1.0572  0.6856
 3680TIP3    H232456   5.206   3.662   6.429 -0.4194 -0.6316 -0.2746
 3681TIP3   OH232457   6.068   2.893   1.941 -0.1919 -0.0260 -0.0179
 3681TIP3    H132458   5.990   2.838   1.931  0.3038 -0.7514  0.0445
 3681TIP3    H232459   6.121   2.847   2.006  0.1118  0.6701  0.2280
 3682TIP3   OH232460   4.821   5.710   3.053  0.7537 -0.7134 -0.0808
 3682TIP3    H132461   4.850   5.645   3.117 -0.7425 -0.6180  0.7394
 3682TIP3    H232462   4.731   5.730   3.078  0.9058  1.0864 -0.8173
 3683TIP3   OH232463   3.205   0.121   1.993  0.5420 -0.0260 -0.0706
 3683TIP3    H132464   3.113   0.097   1.983  0.3180  0.8957 -0.3706
 3683TIP3    H232465   3.246   0.044   2.031 -0.4327 -0.3181  0.4312
 3684TIP3   OH232466   1.007   5.549   0.010 -0.2816 -0.2625 -0.1886
 3684TIP3    H132467   1.061   5.482   0.053 -0.4478 -0.9904 -1.0910
 3684TIP3    H232468   1.034   5.631   0.052  0.4098 -0.8002  0.4632
 3685TIP3   OH232469   0.122   4.955  15.182 -0.0843  0.2483 -0.2385
 3685TIP3    H132470   0.044   4.964  15.127  2.0884 -0.5396 -3.7522
 3685TIP3    H232471   0.126   4.862  15.203  0.7774 -0.0567 -1.6148
 3686TIP3   OH232472   0.256   0.333   4.387  0.2739 -0.2342  0.5796
 3686TIP3    H132473   0.325   0.301   4.445  0.9235 -0.9670 -0.5694
 3686TIP3    H232474   0.253   0.428   4.404  1.8352 -0.1155  0.3765
 3687TIP3   OH232475   4.238   2.782  12.568  0.0543  0.0415  0.1133
 3687TIP3    H132476   4.230   2.689  12.589 -0.5868  0.2097  0.6741
 3687TIP3    H232477   4.258   2.824  12.652  1.5110  0.2973 -0.3290
 3688TIP3   OH232478   1.007   2.525   0.896  0.2769  0.3205 -0.2135
 3688TIP3    H132479   1.022   2.460   0.964 -0.2426  0.5116  0.0860
 3688TIP3    H232480   1.092   2.570   0.888 -0.2629  1.9145  2.0311
 3689TIP3   OH232481   2.496   6.586   3.428 -0.1790 -0.7321 -0.7563
 3689TIP3    H132482   2.520   6.546   3.345  1.7827 -0.2418 -0.4763
 3689TIP3    H232483   2.569   6.644   3.448 -2.1143  1.7265 -0.3250
 3690TIP3   OH232484   1.999   5.865   4.462 -0.1655  0.3547  0.6607
 3690TIP3    H132485   2.055   5.788   4.453  1.5443  1.6618 -0.7327
 3690TIP3    H232486   1.912   5.830   4.479  0.6790 -1.8434  0.7818
 3691TIP3   OH232487   4.985   0.795  16.245  0.4095 -0.0733 -0.0590
 3691TIP3    H132488   4.953   0.711  16.211  0.3782  0.0073 -0.2300
 3691TIP3    H232489   5.072   0.775  16.278  0.5904 -0.0769 -0.5240
 3692TIP3   OH232490   1.375   2.336   2.126 -0.1103  0.1479  0.2069
 3692TIP3    H132491   1.290   2.292   2.134 -0.9798  1.3320 -1.6863
 3692TIP3    H232492   1.432   2.290   2.187 -2.1624 -0.5479  1.7033
 3693TIP3   OH232493   3.686   6.760  14.503  0.1433  0.3381 -0.0340
 3693TIP3    H132494   3.773   6.761  14.464  0.1323  1.3783 -0.0604
 3693TIP3    H232495   3.691   6.822  14.576 -0.4608  0.1053  0.2172
 3694TIP3   OH232496   5.554   5.450   0.190 -0.1083 -0.4826  0.4623
 3694TIP3    H132497   5.547   5.355   0.188  1.2449 -0.5884 -0.0704
 3694TIP3    H232498   5.645   5.467   0.214  0.2228  0.6561 -1.4374
 3695TIP3   OH232499   3.420   3.484   4.315  0.4674 -0.4843  0.1092
 3695TIP3    H132500   3.425   3.458   4.223  0.2803  2.8237 -0.9474
 3695TIP3    H232501   3.506   3.520   4.335 -0.6705  2.6696 -0.1533
 3696TIP3   OH232502   5.777   1.300  11.944  0.3582  0.1374 -0.7007
 3696TIP3    H132503   5.859   1.335  11.980 -0.9759  1.8720  0.7859
 3696TIP3    H232504   5.720   1.376  11.933 -0.8672 -0.9469 -2.3552
 3697TIP3   OH232505   5.645   0.928  13.968 -0.1482 -0.1834 -0.8385
 3697TIP3    H132506   5.596   0.865  14.021  0.2145 -1.4309 -1.9250
 3697TIP3    H232507   5.722   0.950  14.021 -2.9319  3.8746  2.1121
 3698TIP3   OH232508   4.997   5.920   2.654 -0.4331  0.3787 -0.8110
 3698TIP3    H132509   5.003   5.859   2.581 -0.0469 -0.8816  0.2366
 3698TIP3    H232510   5.069   5.982   2.640  1.1114 -1.2049 -0.3455
 3699TIP3   OH232511   5.331   2.268  15.366 -0.6944 -0.0803  0.1842
 3699TIP3    H132512   5.337   2.173  15.359 -0.5034 -0.1364  0.9768
 3699TIP3    H232513   5.421   2.298  15.349 -0.9673  0.0528 -1.1606
 3700TIP3   OH232514   6.342   2.206  16.416 -0.4526  0.9913  0.0611
 3700TIP3    H132515   6.425   2.242  16.384  0.1317  1.1099  1.5996
 3700TIP3    H232516   6.295   2.179  16.337  2.2595 -1.7985 -0.8080
 3701TIP3   OH232517   0.177   6.373  12.456 -0.1142 -0.1233  0.4492
 3701TIP3    H132518   0.151   6.393  12.366  1.0326 -1.7610 -0.2921
 3701TIP3    H232519   0.094   6.373  12.505 -0.9426 -0.5763 -0.8955
 3702TIP3   OH232520   6.068   6.178  14.706  0.1809 -0.2601 -0.0717
 3702TIP3    H132521   6.065   6.244  14.636  0.8618 -0.9683 -0.7933
 3702TIP3    H232522   6.010   6.108  14.675 -0.8960  0.1808  0.9010
 3703TIP3   OH232523   1.851   5.492  14.952 -0.3687 -0.1994  0.3574
 3703TIP3    H132524   1.939   5.455  14.954  0.4558  1.6577  1.6013
 3703TIP3    H232525   1.865   5.586  14.938 -2.3465 -0.2546 -3.0552
 3704TIP3   OH232526   0.950   2.026   3.125 -0.9438  0.0702 -0.0235
 3704TIP3    H132527   0.973   2.059   3.038  1.2136 -0.7721  0.1527
 3704TIP3    H232528   0.855   2.031   3.128 -0.9974  1.6430 -1.8105
 3705TIP3   OH232529   5.933   5.912  12.171 -0.1069 -0.4277  0.2966
 3705TIP3    H132530   5.938   5.943  12.261 -0.6725  0.4400  0.0483
 3705TIP3    H232531   5.847   5.870  12.164  0.9362 -2.8265  0.8294
 3706TIP3   OH232532   0.686   1.155  15.887 -0.2931  0.2223  0.6205
 3706TIP3    H132533   0.668   1.247  15.870 -2.2931 -0.2838 -0.2561
 3706TIP3    H232534   0.631   1.107  15.826  1.7322 -1.5942  0.0546
 3707TIP3   OH232535   6.389   4.707  12.413 -0.1934  0.4207  0.1322
 3707TIP3    H132536   6.340   4.675  12.337  1.3745 -0.1345 -0.6970
 3707TIP3    H232537   6.462   4.645  12.422  0.1593  1.0055  1.5371
 3708TIP3   OH232538   1.078   5.547  11.101  0.4866  0.2807  0.2499
 3708TIP3    H132539   1.031   5.488  11.161  0.8224  0.6493  0.8844
 3708TIP3    H232540   1.008   5.594  11.055  0.2209 -0.2749  0.0763
 3709TIP3   OH232541   1.984   6.618  11.263 -0.1223  0.1534  0.2742
 3709TIP3    H132542   1.960   6.530  11.293  0.8446 -0.6935 -1.3276
 3709TIP3    H232543   1.955   6.622  11.172 -0.5054  1.6576  0.4328
 3710TIP3   OH232544   5.510   0.952  14.368 -0.4901  1.1855 -0.4657
 3710TIP3    H132545   5.511   0.870  14.417  2.3196  1.7893  0.6313
 3710TIP3    H232546   5.450   1.009  14.417  0.6508  1.0707  1.1225
 3711TIP3   OH232547   5.987   4.460  11.192  0.4337  0.0397 -0.0793
 3711TIP3    H132548   5.899   4.478  11.225 -0.3252 -0.2622 -1.8161
 3711TIP3    H232549   6.023   4.395  11.253 -0.3217  0.5729  0.9563
 3712TIP3   OH232550   1.090   4.493  14.679  0.3738 -0.1807  0.0061
 3712TIP3    H132551   1.049   4.541  14.607 -0.3479 -2.0965 -0.9388
 3712TIP3    H232552   1.182   4.485  14.655  0.5065  0.6850  0.1827
 3713TIP3   OH232553   1.399   0.664   4.112  0.8309 -0.2226  0.0959
 3713TIP3    H132554   1.309   0.695   4.122  0.6059 -1.2347  1.5108
 3713TIP3    H232555   1.404   0.587   4.168  2.5606 -0.2435 -0.0371
 3714TIP3   OH232556   3.116   3.498  12.635  0.1917 -0.2745 -0.8889
 3714TIP3    H132557   3.202   3.458  12.651  0.2829 -0.2204 -1.2377
 3714TIP3    H232558   3.069   3.487  12.718  0.3141 -0.8571 -0.8900
 3715TIP3   OH232559   6.176   6.679   3.185  0.3355 -0.0862  0.3954
 3715TIP3    H132560   6.124   6.627   3.124  0.6683 -2.7443  2.2216
 3715TIP3    H232561   6.266   6.668   3.156  0.3671 -0.1316  0.5094
 3716TIP3   OH232562   2.987   1.058   4.333  0.1745 -0.8437  0.0609
 3716TIP3    H132563   3.000   1.028   4.243  2.3288  0.1102 -0.0119
 3716TIP3    H232564   2.934   1.137   4.325  0.0287 -0.9760 -0.3177
 3717TIP3   OH232565   2.883   2.733  12.445 -0.3917 -0.2194 -0.0160
 3717TIP3    H132566   2.897   2.759  12.354  1.2988 -0.4808  0.1390
 3717TIP3    H232567   2.943   2.788  12.495 -0.9381 -0.4396  0.9066
 3718TIP3   OH232568   0.671   3.089  11.794  0.9644 -0.3451 -0.4478
 3718TIP3    H132569   0.604   3.020  11.791  0.9893 -0.3551 -2.2550
 3718TIP3    H232570   0.743   3.051  11.843  1.1939 -1.8560 -1.8643
 3719TIP3   OH232571   2.914   4.289  13.664  0.0008 -0.1133 -0.1879
 3719TIP3    H132572   2.937   4.285  13.757 -0.9271 -0.7006  0.0213
 3719TIP3    H232573   2.986   4.339  13.625 -1.1360  2.9935  1.3380
 3720TIP3   OH232574   2.157   3.132   2.230 -0.5855 -0.7171  0.4277
 3720TIP3    H132575   2.075   3.123   2.278 -0.6543 -0.8912  0.2755
 3720TIP3    H232576   2.217   3.172   2.294 -0.2001 -2.4530  1.2001
 3721TIP3   OH232577   3.123   2.740   1.524  0.2325  0.1152  0.4633
 3721TIP3    H132578   3.051   2.786   1.567  0.0363  0.8148 -0.5701
 3721TIP3    H232579   3.177   2.810   1.486  1.1902 -0.4226  0.8045
 3722TIP3   OH232580   6.282   4.572   1.354 -0.0112 -0.1965 -0.1595
 3722TIP3    H132581   6.292   4.489   1.308  0.4241 -0.5086  0.4818
 3722TIP3    H232582   6.362   4.621   1.334 -0.5534  0.3357 -1.0593
 3723TIP3   OH232583   3.343   0.237  16.772 -0.2975  0.0870  0.3041
 3723TIP3    H132584   3.323   0.155  16.727  1.0954  0.5190 -1.2147
 3723TIP3    H232585   3.399   0.211  16.845  0.5136 -0.2895 -0.4386
 3724TIP3   OH232586   2.367   4.531  12.034  0.2262 -0.2379  0.5781
 3724TIP3    H132587   2.306   4.580  11.979  0.5065  0.4015  0.8260
 3724TIP3    H232588   2.451   4.542  11.990 -0.1251 -2.8480 -0.9239
 3725TIP3   OH232589   3.087   1.499   4.435  0.8217 -0.2947 -0.1968
 3725TIP3    H132590   3.120   1.436   4.372  1.1323 -1.2776  0.9237
 3725TIP3    H232591   3.165   1.543   4.469  0.5683  1.2084 -1.4562
 3726TIP3   OH232592   4.446   2.728   6.320  0.1985 -0.4854  0.5015
 3726TIP3    H132593   4.484   2.641   6.326 -1.2599 -1.0578  2.8490
 3726TIP3    H232594   4.353   2.713   6.305 -0.0828  0.6446  0.9615
 3727TIP3   OH232595   0.021   0.192   5.934  0.1520  0.0897 -0.4942
 3727TIP3    H132596   0.050   0.247   5.862  0.0992 -0.1977 -0.7395
 3727TIP3    H232597   0.043   0.103   5.907  1.5851  0.0934  0.5372
 3728TIP3   OH232598   4.998   1.363  13.576 -0.3390  0.2810 -0.5036
 3728TIP3    H132599   4.928   1.381  13.513 -1.8033  1.5401  1.3475
 3728TIP3    H232600   4.981   1.424  13.648  4.0470  2.3044 -0.8984
 3729TIP3   OH232601   3.934   4.641   1.017  0.1666  0.0818  0.1478
 3729TIP3    H132602   3.844   4.666   0.997  0.0315  0.1992  0.9016
 3729TIP3    H232603   3.984   4.669   0.940 -0.5883 -0.9374 -0.7519
 3730TIP3   OH232604   3.618   6.581   5.777 -0.1271  0.7172  0.3538
 3730TIP3    H132605   3.598   6.635   5.853 -0.5650  0.6847  0.2637
 3730TIP3    H232606   3.533   6.555   5.742  0.0698  0.5872 -0.0447
 3731TIP3   OH232607   5.181   2.438   0.338 -1.1096 -0.4274  0.2136
 3731TIP3    H132608   5.219   2.352   0.319 -1.0504 -0.6343  1.2118
 3731TIP3    H232609   5.161   2.475   0.252  2.4190  0.1736 -0.5140
 3732TIP3   OH232610   2.988   1.274  11.354 -0.3211  0.3263  0.5645
 3732TIP3    H132611   3.012   1.185  11.380 -1.1066 -0.6987 -1.9184
 3732TIP3    H232612   2.919   1.299  11.415 -0.6624 -1.1062  0.7967
 3733TIP3   OH232613   6.684   5.657  15.447 -0.4869  0.5010  0.1920
 3733TIP3    H132614   6.710   5.748  15.460 -0.8033  0.9898 -2.1762
 3733TIP3    H232615   6.740   5.608  15.508  0.8852  2.1323  0.3318
 3734TIP3   OH232616   1.120   1.746  12.480 -0.0063 -0.0815 -0.4218
 3734TIP3    H132617   1.102   1.673  12.422  1.3831 -0.7257 -0.0759
 3734TIP3    H232618   1.049   1.808  12.463  0.4385 -0.1631 -2.9159
 3735TIP3   OH232619   6.462   5.587   1.354 -0.3298 -0.3149  0.0819
 3735TIP3    H132620   6.413   5.576   1.436 -0.7094  2.7792  0.3909
 3735TIP3    H232621   6.541   5.536   1.366 -0.2724  0.2166  2.5218
 3736TIP3   OH232622   2.081   5.073   0.290  0.2290 -0.2257 -0.4367
 3736TIP3    H132623   2.095   4.981   0.314 -0.5959  0.1621  1.8598
 3736TIP3    H232624   2.169   5.108   0.275  0.6772 -1.0380  0.2015
 3737TIP3   OH232625   1.681   3.490   0.645  0.0750 -0.5240 -0.0714
 3737TIP3    H132626   1.774   3.473   0.633  0.1430  0.3855 -0.9114
 3737TIP3    H232627   1.642   3.403   0.657  0.7795 -1.0714 -1.5025
 3738TIP3   OH232628   1.066   6.770   3.903  0.3054  0.3370 -0.1899
 3738TIP3    H132629   1.002   6.766   3.832 -1.1653 -3.3928  1.1062
 3738TIP3    H232630   1.144   6.808   3.863 -0.9568 -0.0718 -3.3235
 3739TIP3   OH232631   4.590   6.767  15.101 -0.6979 -0.5689 -0.0592
 3739TIP3    H132632   4.509   6.817  15.117 -0.4977 -0.3168  0.1832
 3739TIP3    H232633   4.636   6.817  15.034 -1.3856 -1.4556 -1.2317
 3740TIP3   OH232634   2.676   3.829  15.344  0.3936  0.3598  0.9450
 3740TIP3    H132635   2.695   3.892  15.414 -0.1064  1.7325 -0.1254
 3740TIP3    H232636   2.706   3.871  15.264 -2.0954  0.2765 -0.1196
 3741TIP3   OH232637   1.791   5.155  14.587 -0.2526 -0.0467 -0.2377
 3741TIP3    H132638   1.833   5.241  14.578 -0.7392  0.3503  1.1620
 3741TIP3    H232639   1.757   5.153  14.676 -0.6440 -1.5305 -0.3868
 3742TIP3   OH232640   0.458   3.118   4.428  0.0424 -0.2921  0.1093
 3742TIP3    H132641   0.428   3.133   4.517  0.0519  3.0145 -0.3097
 3742TIP3    H232642   0.377   3.115   4.376  0.1225 -0.2566 -0.0165
 3743TIP3   OH232643   1.861   3.825   0.515 -0.0829  0.6610  0.2409
 3743TIP3    H132644   1.935   3.766   0.525 -0.0967  0.3270 -1.3119
 3743TIP3    H232645   1.897   3.902   0.470 -0.7389  0.2815 -0.9881
 3744TIP3   OH232646   5.487   1.722   0.317  0.7666 -0.1662 -0.6575
 3744TIP3    H132647   5.518   1.675   0.240 -0.5108 -0.0168 -1.2757
 3744TIP3    H232648   5.427   1.788   0.283 -0.9648 -1.0388  0.5435
 3745TIP3   OH232649   4.372   5.839  14.306 -0.4855  0.0856 -0.3768
 3745TIP3    H132650   4.422   5.888  14.371 -0.1275 -0.2774 -0.3711
 3745TIP3    H232651   4.394   5.879  14.222 -1.5877  1.0946 -0.2098
 3746TIP3   OH232652   4.208   4.688  14.214  0.3274 -0.0299 -0.0556
 3746TIP3    H132653   4.223   4.761  14.154 -1.2443 -0.0145 -0.4619
 3746TIP3    H232654   4.190   4.613  14.158 -1.6964  0.1024  0.3347
 3747TIP3   OH232655   0.299   4.489   5.623  0.0762 -0.1498 -0.0828
 3747TIP3    H132656   0.372   4.552   5.615  0.8847 -0.9440  0.7373
 3747TIP3    H232657   0.311   4.429   5.550 -0.2078  0.1475 -0.3803
 3748TIP3   OH232658   3.845   0.052   0.405 -0.2540 -0.1949 -0.7986
 3748TIP3    H132659   3.807   0.023   0.487 -0.0185  1.3283 -0.1100
 3748TIP3    H232660   3.940   0.048   0.420 -0.1831  2.5164 -0.0066
 3749TIP3   OH232661   2.961   5.124   4.297 -0.4443 -0.4124  0.3448
 3749TIP3    H132662   2.869   5.144   4.314  0.0237  1.8653  0.4425
 3749TIP3    H232663   3.009   5.185   4.352  1.1961 -2.7890  1.7281
 3750TIP3   OH232664   4.173   3.143   0.409 -0.2466  0.2470  0.3701
 3750TIP3    H132665   4.090   3.128   0.365 -0.9021  2.9445  0.5397
 3750TIP3    H232666   4.160   3.108   0.497 -0.7145 -0.5404 -0.0059
 3751TIP3   OH232667   0.041   0.541   4.228 -0.3893 -0.3350  0.2028
 3751TIP3    H132668   0.087   0.546   4.313  0.9012 -1.9821 -0.3478
 3751TIP3    H232669   0.061   0.625   4.186  2.0569 -0.8867  0.0759
 3752TIP3   OH232670   2.530   2.925   5.539  0.1889  0.1407 -0.5107
 3752TIP3    H132671   2.605   2.974   5.573  0.7195 -0.3662 -0.9316
 3752TIP3    H232672   2.564   2.880   5.462 -0.6063  0.0662 -0.8250
 3753TIP3   OH232673   1.751   2.870   5.899  0.5942  0.2069 -0.4272
 3753TIP3    H132674   1.824   2.929   5.882  2.9412 -2.2808  0.3343
 3753TIP3    H232675   1.706   2.908   5.974  3.2962  0.0433  1.4004
 3754TIP3   OH232676   1.950   0.855  16.597 -0.0589 -0.2578 -0.2205
 3754TIP3    H132677   2.023   0.796  16.614 -1.4058 -1.8216  0.3593
 3754TIP3    H232678   1.963   0.883  16.507  0.0215 -2.4196 -0.9513
 3755TIP3   OH232679   6.750   0.564  11.657 -0.2084  0.0730 -0.1238
 3755TIP3    H132680   6.761   0.516  11.739  1.6798 -1.4163 -1.1342
 3755TIP3    H232681   6.749   0.656  11.682  1.7219 -0.2722  1.5072
 3756TIP3   OH232682   4.590   5.184  16.007 -0.2023  0.4770  0.0499
 3756TIP3    H132683   4.604   5.112  15.946 -0.5509  0.0592  0.4571
 3756TIP3    H232684   4.574   5.141  16.091 -3.1316  0.8968 -0.1856
 3757TIP3   OH232685   5.629   5.645  11.195 -0.1840 -0.2093 -0.0157
 3757TIP3    H132686   5.715   5.680  11.173 -0.4751 -0.5249 -1.7740
 3757TIP3    H232687   5.638   5.550  11.185 -0.6670 -0.2650  0.0451
 3758TIP3   OH232688   1.246   3.207   5.004 -0.3481  0.0548  0.0739
 3758TIP3    H132689   1.153   3.221   4.986 -0.5306 -1.1510  0.0144
 3758TIP3    H232690   1.268   3.129   4.954  0.1848 -0.8705  1.7082
 3759TIP3   OH232691   3.435   2.215  13.757 -0.4419  0.3290 -0.2032
 3759TIP3    H132692   3.353   2.236  13.802 -0.8644 -0.6392 -0.4818
 3759TIP3    H232693   3.494   2.287  13.779 -0.6510 -0.0586  1.7956
 3760TIP3   OH232694   1.566   0.673  17.171 -0.1428  0.0983 -0.1768
 3760TIP3    H132695   1.654   0.665  17.134 -0.5600 -1.3290 -0.9508
 3760TIP3    H232696   1.578   0.655  17.264  0.4372  0.3339 -0.2012
 3761TIP3   OH232697   1.446   5.288  11.089  0.3083  0.1623 -0.4235
 3761TIP3    H132698   1.410   5.356  11.032 -0.3082 -0.4099 -0.7268
 3761TIP3    H232699   1.441   5.208  11.036 -1.6446 -0.6733  0.9377
 3762TIP3   OH232700   6.174   1.732   3.080 -0.0075  0.0778 -0.0651
 3762TIP3    H132701   6.251   1.694   3.123  1.0244 -0.7409 -2.4805
 3762TIP3    H232702   6.105   1.668   3.095 -0.2814  0.7691  2.0324
 3763TIP3   OH232703   6.482   5.150  12.462 -0.0916 -0.1647  0.3832
 3763TIP3    H132704   6.441   5.214  12.404  0.3695  0.0954  0.3360
 3763TIP3    H232705   6.572   5.182  12.473  0.6503 -1.6490 -0.9259
 3764TIP3   OH232706   2.166   1.657   0.178  0.7698 -0.6937  0.2248
 3764TIP3    H132707   2.246   1.635   0.225  0.8951 -0.5529  0.0836
 3764TIP3    H232708   2.166   1.598   0.102  0.6036 -0.8749  0.3681
 3765TIP3   OH232709   1.009   6.328   2.982 -0.0754  0.2371 -0.2568
 3765TIP3    H132710   0.925   6.368   3.005 -1.0980 -1.4608 -0.8427
 3765TIP3    H232711   1.050   6.308   3.065 -0.0350  1.4709  0.0402
 3766TIP3   OH232712   3.250   3.910  11.376 -0.2072  0.4914 -0.1424
 3766TIP3    H132713   3.233   3.921  11.470  1.0705  1.3584  0.0161
 3766TIP3    H232714   3.237   3.998  11.340 -0.0436  0.2993 -0.6663
 3767TIP3   OH232715   2.856   2.155  12.417 -0.3440 -0.4270  0.9947
 3767TIP3    H132716   2.914   2.150  12.494  0.1368  0.3904  0.7021
 3767TIP3    H232717   2.768   2.150  12.453 -0.1912  1.7191  1.8047
 3768TIP3   OH232718   0.253   3.980  13.552  0.2296  0.2779  0.3851
 3768TIP3    H132719   0.188   4.007  13.487 -1.4833 -1.9410  1.0531
 3768TIP3    H232720   0.248   4.048  13.620 -0.9493  0.4699  0.1277
 3769TIP3   OH232721   3.379   4.734   5.095 -0.2779  0.2284 -0.2293
 3769TIP3    H132722   3.380   4.795   5.022  2.4762 -1.9823 -2.2840
 3769TIP3    H232723   3.287   4.708   5.104 -0.7213  0.6591 -2.8444
 3770TIP3   OH232724   2.700   0.349  11.153  0.0753  0.5847  0.0115
 3770TIP3    H132725   2.725   0.273  11.206 -0.5479  0.3134 -0.0760
 3770TIP3    H232726   2.635   0.396  11.206 -1.8417 -0.6062 -1.1605
 3771TIP3   OH232727   2.611   2.795  16.107  0.5267  0.2796  0.0035
 3771TIP3    H132728   2.592   2.845  16.028  1.4457 -0.0923 -0.4710
 3771TIP3    H232729   2.567   2.711  16.093 -2.7420  1.5491  1.6733
 3772TIP3   OH232730   4.545   3.873   3.184  0.3599  0.2636  0.5070
 3772TIP3    H132731   4.457   3.901   3.158  0.3738  0.3329  0.5340
 3772TIP3    H232732   4.578   3.825   3.109 -0.0354 -0.5133  0.8161
 3773TIP3   OH232733   4.277   0.322   5.721 -0.4767 -0.0297 -0.2418
 3773TIP3    H132734   4.216   0.264   5.675 -0.5351 -0.4530  0.3472
 3773TIP3    H232735   4.234   0.408   5.720  0.4846  0.5063 -2.8186
 3774TIP3   OH232736   3.082   0.438  13.679  0.3712 -0.0941 -0.6414
 3774TIP3    H132737   3.111   0.456  13.590  1.5639  1.0804 -0.0486
 3774TIP3    H232738   3.132   0.361  13.706 -0.7216 -1.0669 -1.2979
 3775TIP3   OH232739   6.626   5.445  11.653  0.2518 -1.0575  0.0587
 3775TIP3    H132740   6.605   5.402  11.736  0.6912 -0.6086  0.4095
 3775TIP3    H232741   6.705   5.495  11.672 -0.9789  0.9991  0.0593
 3776TIP3   OH232742   4.854   6.327   4.158 -0.2246  0.0057  0.0421
 3776TIP3    H132743   4.825   6.360   4.243 -1.7669 -0.7788 -0.1509
 3776TIP3    H232744   4.784   6.269   4.129  1.0367 -1.0531 -1.0203
 3777TIP3   OH232745   5.799   0.919   5.287 -0.0062 -0.3189 -0.0009
 3777TIP3    H132746   5.891   0.942   5.300  0.0806 -0.7084  0.0646
 3777TIP3    H232747   5.752   0.978   5.346  0.3910 -2.1745  2.3227
 3778TIP3   OH232748   2.779   1.568  15.930  0.1196 -0.1213 -0.1617
 3778TIP3    H132749   2.739   1.481  15.922  2.1836 -1.0441 -1.4946
 3778TIP3    H232750   2.817   1.570  16.017  0.3965 -0.7396 -0.2637
 3779TIP3   OH232751   0.562   6.382   3.443  0.4716 -0.2788 -0.2861
 3779TIP3    H132752   0.615   6.458   3.464  0.4750 -0.6047  0.9544
 3779TIP3    H232753   0.569   6.325   3.520  0.7216 -1.6744 -1.2956
 3780TIP3   OH232754   2.198   4.727  16.919 -0.0645  0.3836  0.2784
 3780TIP3    H132755   2.292   4.713  16.905  0.6701  2.9624  1.9809
 3780TIP3    H232756   2.172   4.657  16.980  1.3798  1.0269  1.7108
 3781TIP3   OH232757   2.852   2.932  14.447  0.2832  0.2711  0.7580
 3781TIP3    H132758   2.833   2.926  14.541  2.8345 -1.4007  1.2886
 3781TIP3    H232759   2.809   2.855  14.409 -2.8973  2.2662  0.0025
 3782TIP3   OH232760   2.203   1.075   3.061 -0.1091 -0.3280  0.0755
 3782TIP3    H132761   2.255   1.114   2.991  0.8446 -0.6580  0.5850
 3782TIP3    H232762   2.267   1.042   3.124 -0.8794  2.6355  2.6433
 3783TIP3   OH232763   0.121   0.661  16.746 -0.0334 -0.2624  0.3516
 3783TIP3    H132764   0.096   0.612  16.824 -1.4668 -0.3694 -0.1444
 3783TIP3    H232765   0.097   0.751  16.765  0.4551 -0.1334  0.3729
 3784TIP3   OH232766   0.868   5.799  16.003  0.1011  0.2309  0.1521
 3784TIP3    H132767   0.942   5.739  16.012  0.7673  1.1407  0.9431
 3784TIP3    H232768   0.793   5.751  16.039  0.5229 -0.3010  0.3337
 3785TIP3   OH232769   3.292   2.554  12.947 -0.2865 -0.6470 -0.2255
 3785TIP3    H132770   3.263   2.592  13.030  0.9022  1.2495 -0.6188
 3785TIP3    H232771   3.346   2.480  12.972 -2.2322 -1.8733  0.5851
 3786TIP3   OH232772   3.047   4.829  15.676  0.2350  0.5095  0.5013
 3786TIP3    H132773   3.093   4.802  15.755  1.7480  0.9350 -0.1880
 3786TIP3    H232774   3.043   4.924  15.682 -1.5348  0.4353  1.0392
 3787TIP3   OH232775   5.597   3.065  15.087 -0.4785  0.3388 -0.2227
 3787TIP3    H132776   5.619   3.116  15.009  1.1413  0.5881  0.3516
 3787TIP3    H232777   5.663   2.995  15.089 -0.4347  0.3890  0.9524
 3788TIP3   OH232778   3.154   4.860  14.390  0.1072  0.1742  0.1457
 3788TIP3    H132779   3.061   4.837  14.400  0.5204 -1.8180 -0.0612
 3788TIP3    H232780   3.193   4.836  14.474  0.7309 -0.7955 -0.3982
 3789TIP3   OH232781   3.435   2.461   0.830 -0.1222  0.2886  0.4363
 3789TIP3    H132782   3.413   2.408   0.754  1.4951  0.7708 -0.4035
 3789TIP3    H232783   3.430   2.551   0.799 -0.3477  0.5344  1.1659
 3790TIP3   OH232784   3.529   2.698  16.213 -0.2355 -0.0538  0.4336
 3790TIP3    H132785   3.435   2.708  16.197 -0.1670 -0.2398 -0.0913
 3790TIP3    H232786   3.545   2.604  16.203  0.3800  0.2268 -1.5826
 3791TIP3   OH232787   5.009   5.691   4.188 -0.9476  0.3611 -0.1220
 3791TIP3    H132788   5.103   5.707   4.186 -1.0084  0.7169 -1.7364
 3791TIP3    H232789   5.001   5.596   4.192 -0.5250  0.3464  0.4709
 3792TIP3   OH232790   3.973   2.203  13.746  0.5685 -0.2290  0.1265
 3792TIP3    H132791   3.955   2.293  13.774  2.5250  0.1087  0.3944
 3792TIP3    H232792   3.918   2.149  13.803  0.3235  0.7241  0.8225
 3793TIP3   OH232793   4.179   3.213  12.248  0.8664  0.5812 -0.4846
 3793TIP3    H132794   4.229   3.286  12.286 -0.1628  1.9803 -1.6949
 3793TIP3    H232795   4.159   3.241  12.159 -0.8411 -0.5327 -0.5060
 3794TIP3   OH232796   0.265   5.104  10.535  0.0384  0.2512  0.2681
 3794TIP3    H132797   0.315   5.041  10.587 -0.3366 -0.4453 -0.2047
 3794TIP3    H232798   0.303   5.098  10.447 -0.2263  0.4359  0.1389
 3795TIP3   OH232799   4.207   5.655   2.976 -0.0104  0.5090  0.4297
 3795TIP3    H132800   4.239   5.724   3.033  2.6872 -0.1216 -0.1767
 3795TIP3    H232801   4.243   5.574   3.014 -1.4908 -0.3879  0.0364
 3796TIP3   OH232802   6.160   4.376  13.004  0.2602 -0.1670  0.4551
 3796TIP3    H132803   6.229   4.349  12.944 -0.3152 -0.0936 -0.2412
 3796TIP3    H232804   6.144   4.468  12.983 -0.9313 -0.5128 -0.2768
 3797TIP3   OH232805   5.326   0.846  13.518  0.5614 -0.5051 -0.0821
 3797TIP3    H132806   5.247   0.884  13.557  1.3710 -0.1950  1.3609
 3797TIP3    H232807   5.398   0.885  13.569  1.5931 -1.3488 -0.8648
 3798TIP3   OH232808   1.648   2.096  11.333  0.3759  0.2458 -0.7571
 3798TIP3    H132809   1.570   2.077  11.280 -0.2271 -0.1132  0.2117
 3798TIP3    H232810   1.613   2.112  11.421  1.3893  0.2389 -0.3383
 3799TIP3   OH232811   4.952   4.295   5.488 -0.7459  0.0303  0.1006
 3799TIP3    H132812   4.906   4.365   5.441 -1.5732  0.6369  1.7328
 3799TIP3    H232813   5.035   4.285   5.441 -0.4808  2.3286 -0.0269
 3800TIP3   OH232814   3.136   2.027  11.913 -0.0765 -0.4291  0.4172
 3800TIP3    H132815   3.102   1.939  11.896 -1.8207  0.1815  0.5761
 3800TIP3    H232816   3.058   2.083  11.914  0.8156  0.8532  2.1178
 3801TIP3   OH232817   4.901   4.593  11.838 -0.6396 -0.3226  0.5893
 3801TIP3    H132818   4.909   4.683  11.805  0.6570  0.2275  2.3070
 3801TIP3    H232819   4.808   4.585  11.861 -0.8517  0.4232  0.0543
 3802TIP3   OH232820   1.256   3.637   5.824 -0.2967 -0.5223  0.6304
 3802TIP3    H132821   1.174   3.657   5.870 -1.0208  1.3645 -1.3147
 3802TIP3    H232822   1.228   3.599   5.741  0.6464  1.3849 -0.6510
 3803TIP3   OH232823   1.798   0.631  16.522 -0.0598  0.2085  0.1926
 3803TIP3    H132824   1.787   0.649  16.429  2.1532  1.4449  0.0792
 3803TIP3    H232825   1.791   0.717  16.564  0.1625 -0.1649  1.0214
 3804TIP3   OH232826   4.484   1.238   0.960  0.3208 -0.5501 -0.6197
 3804TIP3    H132827   4.554   1.272   1.017 -0.2498  0.1464 -0.3148
 3804TIP3    H232828   4.507   1.146   0.945  0.7653 -0.6010  0.3119
 3805TIP3   OH232829   0.088   3.933   4.572 -0.5107  0.0597  0.0336
 3805TIP3    H132830   0.173   3.904   4.539  0.0357 -1.3450  2.4767
 3805TIP3    H232831   0.109   3.989   4.647 -1.7035 -0.8959  1.1264
 3806TIP3   OH232832   0.869   3.943  12.987 -0.1476 -0.3056  0.7930
 3806TIP3    H132833   0.858   4.019  12.929  1.0363 -1.2743 -0.7979
 3806TIP3    H232834   0.904   3.980  13.068  1.1790  0.8119 -0.2298
 3807TIP3   OH232835   3.369   3.485   4.857 -0.5902 -0.1784  0.2364
 3807TIP3    H132836   3.337   3.512   4.771  1.2194  0.1978 -0.3575
 3807TIP3    H232837   3.440   3.546   4.877  0.7529 -1.8332  0.8010
 3808TIP3   OH232838   2.798   5.737  17.022  0.1101  0.4164  0.1048
 3808TIP3    H132839   2.804   5.829  16.998 -1.6950  0.9871  1.6366
 3808TIP3    H232840   2.774   5.692  16.941  2.0373  1.0814 -0.9054
 3809TIP3   OH232841   5.716   6.119   1.319  0.0748  0.4775 -0.4308
 3809TIP3    H132842   5.805   6.125   1.353  0.7002 -0.5724 -1.7938
 3809TIP3    H232843   5.687   6.210   1.312  0.5299  0.7887  1.2443
 3810TIP3   OH232844   3.332   3.147   4.130  0.4204  0.2496  0.5839
 3810TIP3    H132845   3.297   3.123   4.216  0.2894  1.2304  0.8179
 3810TIP3    H232846   3.292   3.085   4.069 -1.4343  1.0684  0.8932
 3811TIP3   OH232847   4.085   5.085   2.397  0.2657 -0.0815  0.8037
 3811TIP3    H132848   4.108   5.172   2.429  2.1902 -0.3229  0.1800
 3811TIP3    H232849   4.036   5.045   2.469  0.9887  0.8503  1.8419
 3812TIP3   OH232850   5.827   6.069   5.303 -0.7599  0.0370  0.2103
 3812TIP3    H132851   5.765   6.049   5.373 -0.0247 -0.2274  0.7943
 3812TIP3    H232852   5.800   6.012   5.231 -0.4529 -0.9778  0.8774
 3813TIP3   OH232853   0.351   5.916   4.963  0.2547  0.8058  0.4079
 3813TIP3    H132854   0.284   5.848   4.970  0.0905  1.0114  0.8518
 3813TIP3    H232855   0.301   5.998   4.957  0.4635  1.1372  2.5598
 3814TIP3   OH232856   3.991   1.305  15.800  0.6386 -0.1048 -0.1644
 3814TIP3    H132857   4.045   1.239  15.757  0.0367 -1.6326  1.3572
 3814TIP3    H232858   3.906   1.297  15.758  0.1416 -1.3785  1.0103
 3815TIP3   OH232859   3.384   1.577  13.073 -0.2281  0.6701  0.3718
 3815TIP3    H132860   3.343   1.521  13.139  2.5486  0.0114  1.6877
 3815TIP3    H232861   3.419   1.516  13.008  1.3034  0.9143  0.9150
 3816TIP3   OH232862   1.552   4.526  15.932 -0.2213 -0.2336  0.2908
 3816TIP3    H132863   1.636   4.481  15.918  0.7110  1.4140  0.2745
 3816TIP3    H232864   1.493   4.489  15.866  0.3766 -1.6494  0.5049
 3817TIP3   OH232865   1.247   3.489   4.276 -0.1103  0.0281 -0.3064
 3817TIP3    H132866   1.164   3.530   4.255 -0.2756 -0.3164 -0.3394
 3817TIP3    H232867   1.289   3.476   4.190 -0.0823  0.0757 -0.3004
 3818TIP3   OH232868   4.328   1.640   1.293  0.5431 -0.0932  0.2119
 3818TIP3    H132869   4.359   1.646   1.202 -2.6411  0.1075 -0.9918
 3818TIP3    H232870   4.328   1.731   1.324 -1.6912  0.3647 -0.9196
 3819TIP3   OH232871   3.367   5.424   3.951  0.5165 -0.3573  0.5075
 3819TIP3    H132872   3.386   5.358   3.884  0.2170  0.8830 -0.8632
 3819TIP3    H232873   3.305   5.484   3.909 -0.2497  0.0647  2.1650
 3820TIP3   OH232874   1.294   6.537  12.190  0.6928  0.3200  0.0281
 3820TIP3    H132875   1.199   6.534  12.179  0.7804 -1.2229 -0.5996
 3820TIP3    H232876   1.327   6.557  12.102  0.9719 -0.2251  0.0042
 3821TIP3   OH232877   4.117   1.434  12.345 -0.2896  0.0786  0.1537
 3821TIP3    H132878   4.070   1.431  12.429 -0.5658 -0.0881 -0.0072
 3821TIP3    H232879   4.164   1.351  12.341 -1.8306 -0.7776 -0.7542
 3822TIP3   OH232880   3.902   2.404   5.351  0.1353 -0.4872 -0.3522
 3822TIP3    H132881   3.901   2.394   5.446  0.2797  0.1611 -0.2829
 3822TIP3    H232882   3.956   2.482   5.335  0.4597 -0.8284 -0.9839
 3823TIP3   OH232883   4.092   3.414  12.040 -0.0067  0.0767  0.1192
 3823TIP3    H132884   4.167   3.381  11.991 -0.7496 -1.3751 -0.0996
 3823TIP3    H232885   4.018   3.406  11.979 -0.6390 -0.0941  0.8898
 3824TIP3   OH232886   3.890   6.460  12.796 -0.2003 -0.1113 -0.0151
 3824TIP3    H132887   3.923   6.407  12.724 -1.2215  0.3802 -0.8883
 3824TIP3    H232888   3.801   6.428  12.811 -0.5441  0.8085 -0.0182
 3825TIP3   OH232889   4.341   5.136  10.900 -0.6209  0.0229 -0.4754
 3825TIP3    H132890   4.319   5.121  10.992 -1.0095 -2.5537 -0.9172
 3825TIP3    H232891   4.430   5.171  10.903 -0.0546 -1.3664  0.8856
 3826TIP3   OH232892   5.596   4.805   0.476  0.0993 -0.2414  0.2592
 3826TIP3    H132893   5.684   4.817   0.439 -0.1488  0.7491 -0.0335
 3826TIP3    H232894   5.588   4.711   0.486  1.2100 -0.3518  0.3108
 3827TIP3   OH232895   1.176   1.285   5.741  0.2017 -0.3001 -0.4651
 3827TIP3    H132896   1.232   1.208   5.742 -2.0361 -2.0567 -0.3024
 3827TIP3    H232897   1.142   1.291   5.830  1.0177  1.4673 -0.2334
 3828TIP3   OH232898   2.098   5.579  16.497  0.2251  0.1434  0.0573
 3828TIP3    H132899   2.027   5.614  16.443  1.2439  2.2128 -0.0628
 3828TIP3    H232900   2.069   5.491  16.521 -2.7265  1.1659  0.6782
 3829TIP3   OH232901   0.033   4.106  14.570 -0.4297 -0.5003  0.3404
 3829TIP3    H132902  -0.049   4.156  14.572 -0.2773 -0.0760 -1.6149
 3829TIP3    H232903   0.010   4.025  14.526  0.2462 -0.2550 -0.4860
 3830TIP3   OH232904   0.735   5.084   3.566  0.2402  0.7834  0.4603
 3830TIP3    H132905   0.792   5.135   3.623  1.2757  0.6184 -0.3917
 3830TIP3    H232906   0.793   5.017   3.529 -0.3851  0.9576 -0.8621
 3831TIP3   OH232907   3.620   2.505   2.736 -0.1422 -0.1457 -0.2602
 3831TIP3    H132908   3.678   2.548   2.674 -0.5045 -0.6971 -1.0133
 3831TIP3    H232909   3.537   2.553   2.728 -0.0212  0.1520  0.2385
 3832TIP3   OH232910   0.577   3.545   3.652  0.5268  0.3409 -0.4123
 3832TIP3    H132911   0.504   3.547   3.714  0.1521  0.6371 -0.8525
 3832TIP3    H232912   0.547   3.485   3.583  1.3137 -0.7204  0.1400
 3833TIP3   OH232913   2.521   0.410  15.825 -0.0085 -0.0355  0.4233
 3833TIP3    H132914   2.566   0.328  15.844 -0.7556 -1.3282 -2.7675
 3833TIP3    H232915   2.488   0.399  15.736 -2.5222  2.7008  0.8789
 3834TIP3   OH232916   3.770   1.270   2.321 -0.3915 -0.4571  0.6254
 3834TIP3    H132917   3.847   1.220   2.293  1.0558  1.4166  1.0916
 3834TIP3    H232918   3.704   1.203   2.340  1.2785 -2.1589  0.7308
 3835TIP3   OH232919   5.947   6.179  12.679 -0.1608 -0.1182 -0.8007
 3835TIP3    H132920   6.023   6.151  12.730  1.0900 -0.4786 -2.7271
 3835TIP3    H232921   5.985   6.218  12.600 -1.9916 -0.0973 -1.7230
 3836TIP3   OH232922   3.467   5.370   5.835 -0.1360  0.7078 -0.0032
 3836TIP3    H132923   3.424   5.448   5.799 -1.5397  0.3100  0.7337
 3836TIP3    H232924   3.453   5.377   5.929  1.7447  0.7164  0.3001
 3837TIP3   OH232925   3.129   0.089  15.660  0.0639 -0.4440 -0.5595
 3837TIP3    H132926   3.214   0.047  15.671  0.3004 -0.6921 -2.8549
 3837TIP3    H232927   3.073   0.048  15.726  1.5125 -0.8133  0.4866
 3838TIP3   OH232928   4.720   4.109  12.535 -0.4521  0.1666 -0.3296
 3838TIP3    H132929   4.800   4.111  12.587 -0.4454 -1.9346 -0.1693
 3838TIP3    H232930   4.649   4.100  12.599 -0.7217  0.7831 -0.5348
 3839TIP3   OH232931   0.710   4.353   1.464 -0.4773  0.1354  0.5273
 3839TIP3    H132932   0.731   4.338   1.556 -0.9229 -1.9406  0.3351
 3839TIP3    H232933   0.634   4.411   1.466 -3.5785 -3.5646  1.7479
 3840TIP3   OH232934   3.816   1.923   4.181  0.7980  0.0977  0.5375
 3840TIP3    H132935   3.798   1.881   4.265  0.3380  0.9680  0.8873
 3840TIP3    H232936   3.755   1.882   4.120 -0.3480  0.9260  1.0895
 3841TIP3   OH232937   6.696   0.674  16.233  0.5148 -0.2674 -0.3707
 3841TIP3    H132938   6.696   0.580  16.252  4.5229 -0.2920  0.1889
 3841TIP3    H232939   6.708   0.680  16.138 -0.4647 -0.2615 -0.5077
 3842TIP3   OH232940   3.920   4.495   5.915 -0.0059  0.3242  0.1222
 3842TIP3    H132941   3.948   4.515   6.004  0.7313 -3.7333  1.0036
 3842TIP3    H232942   4.002   4.493   5.865 -0.0254 -0.4583  0.1098
 3843TIP3   OH232943   5.432   5.285  14.983 -0.0349  0.3284  0.0156
 3843TIP3    H132944   5.378   5.207  14.986 -0.3769  0.4084 -2.1429
 3843TIP3    H232945   5.441   5.312  15.074 -1.7674 -0.9468  0.6197
 3844TIP3   OH232946   6.719   6.053  11.672 -0.0919 -0.6927  0.2266
 3844TIP3    H132947   6.762   6.137  11.660 -0.7864 -0.1552  1.3564
 3844TIP3    H232948   6.781   6.002  11.726 -1.0716  0.2973  2.3756
 3845TIP3   OH232949   5.852   4.566  14.938  0.5669 -0.8949 -1.0215
 3845TIP3    H132950   5.828   4.630  14.872  0.1920 -1.0006 -0.9936
 3845TIP3    H232951   5.927   4.520  14.901  1.2964  0.0372 -0.7315
 3846TIP3   OH232952   2.172   2.414  16.458 -0.0926 -0.2201  0.4506
 3846TIP3    H132953   2.183   2.367  16.375  0.2786 -3.2797  2.0796
 3846TIP3    H232954   2.241   2.481  16.457  1.6322 -1.8912 -0.6575
 3847TIP3   OH232955   0.647   6.155  12.073 -0.2956 -0.1541 -0.2568
 3847TIP3    H132956   0.648   6.061  12.057  2.6264 -0.6391  1.9664
 3847TIP3    H232957   0.580   6.167  12.140  0.1998 -0.8702  0.3816
 3848TIP3   OH232958   3.887   4.440  16.142  0.4358 -0.8653 -0.4331
 3848TIP3    H132959   3.972   4.467  16.107  0.4263 -0.0830  0.1345
 3848TIP3    H232960   3.907   4.397  16.225  0.0989  2.4341  1.5248
 3849TIP3   OH232961   2.368   3.840   0.614 -0.0621  0.0049  0.0539
 3849TIP3    H132962   2.305   3.811   0.548  0.3029  1.9135 -1.2240
 3849TIP3    H232963   2.446   3.862   0.564  0.0407  2.0533  1.0144
 3850TIP3   OH232964   2.150   3.915   3.203 -0.1300 -0.4050 -0.2564
 3850TIP3    H132965   2.243   3.939   3.206 -0.0461 -0.8115  0.4774
 3850TIP3    H232966   2.148   3.838   3.147  0.2900 -1.7467  1.5014
 3851TIP3   OH232967   3.146   5.742  15.897  0.1671 -0.5732  0.0425
 3851TIP3    H132968   3.071   5.795  15.923  0.1595 -0.4710 -0.1822
 3851TIP3    H232969   3.109   5.670  15.846 -0.0046 -1.7977  1.7979
 3852TIP3   OH232970   5.169   4.069  11.267  0.3515  0.1985 -0.2376
 3852TIP3    H132971   5.112   4.035  11.337  1.6024 -2.9914 -0.6209
 3852TIP3    H232972   5.122   4.048  11.186  1.0492 -0.4858 -0.4765
 3853TIP3   OH232973   5.706   3.859  12.358  0.1742  0.1875  0.0072
 3853TIP3    H132974   5.671   3.913  12.287  1.7472  1.5564  0.2114
 3853TIP3    H232975   5.630   3.843  12.415 -0.5788  1.2747 -0.6349
 3854TIP3   OH232976   5.809   5.927  13.293 -0.7067  0.4239  0.2737
 3854TIP3    H132977   5.890   5.909  13.341 -0.8872 -1.0135  0.0834
 3854TIP3    H232978   5.771   5.841  13.278 -1.3182  0.9434 -1.3093
 3855TIP3   OH232979   0.244   5.697  16.438 -0.0487  0.7075  0.0725
 3855TIP3    H132980   0.178   5.649  16.387  0.3582 -0.0042  0.1947
 3855TIP3    H232981   0.328   5.661  16.409  0.3159  1.8342 -0.3180
 3856TIP3   OH232982   0.023   1.265  14.909  0.3316 -0.1456  0.4608
 3856TIP3    H132983  -0.045   1.329  14.887 -0.8009 -1.2799  0.5925
 3856TIP3    H232984  -0.012   1.217  14.984  2.1189  0.5085  1.8149
 3857TIP3   OH232985   0.067   3.219  12.207 -0.6192 -0.1135  0.2556
 3857TIP3    H132986  -0.026   3.208  12.187 -0.4187 -1.9599  0.2349
 3857TIP3    H232987   0.113   3.180  12.133  0.1654 -0.0632  0.7086
 3858TIP3   OH232988   1.046   1.398   4.933 -0.2793 -0.1725  0.2283
 3858TIP3    H132989   0.968   1.348   4.959  0.4507 -1.9216 -0.8314
 3858TIP3    H232990   1.110   1.379   5.001 -0.3716  0.3196  0.4622
 3859TIP3   OH232991   3.302   1.867  15.689 -0.4798  0.3656 -0.3424
 3859TIP3    H132992   3.207   1.879  15.696 -0.4049  2.2449 -1.6773
 3859TIP3    H232993   3.318   1.868  15.595  1.0693  2.3562 -0.1155
 3860TIP3   OH232994   1.290   2.074   0.779 -0.0945  0.1550  0.0847
 3860TIP3    H132995   1.322   2.092   0.868  0.0841 -0.1313  0.0768
 3860TIP3    H232996   1.206   2.121   0.775 -0.2838 -0.1321  0.5275
 3861TIP3   OH232997   2.438   2.651  12.776  0.4012 -0.3986  0.5465
 3861TIP3    H132998   2.373   2.594  12.817  0.3600 -0.9536 -0.2712
 3861TIP3    H232999   2.414   2.740  12.804 -0.2599 -0.6691  0.8481
 3862TIP3   OH233000   0.991   1.946  11.181 -0.5759 -0.3882 -0.5665
 3862TIP3    H133001   1.081   1.963  11.151 -0.3975 -0.0449  0.1404
 3862TIP3    H233002   0.999   1.940  11.276 -0.9837 -2.3228 -0.6225
 3863TIP3   OH233003   3.700   5.226  12.530  0.2638  0.5659 -0.0437
 3863TIP3    H133004   3.623   5.171  12.544  0.3400 -0.0458 -1.8378
 3863TIP3    H233005   3.764   5.194  12.593 -0.0003 -0.8138 -0.4397
 3864TIP3   OH233006   2.034   5.197   2.128  0.2535 -0.0163  0.3806
 3864TIP3    H133007   2.098   5.210   2.198  0.2130  0.9062  0.2597
 3864TIP3    H233008   1.964   5.259   2.148  0.5519  0.7422 -0.8342
 3865TIP3   OH233009   5.064   5.565  16.640 -0.2238 -0.0323 -0.2211
 3865TIP3    H133010   5.005   5.553  16.715  0.6068  2.6317  0.9648
 3865TIP3    H233011   5.149   5.585  16.680  0.8232 -0.8068 -1.9181
 3866TIP3   OH233012   6.496   2.602  13.352  0.1614  0.4531 -0.1596
 3866TIP3    H133013   6.579   2.577  13.310 -0.6492 -0.7141 -1.1315
 3866TIP3    H233014   6.520   2.624  13.442  1.2210 -2.1886  0.2704
 3867TIP3   OH233015   3.528   0.417   1.003 -0.1919  0.0543  0.3783
 3867TIP3    H133016   3.587   0.415   1.078  0.8143 -0.6102 -0.4059
 3867TIP3    H233017   3.456   0.474   1.031  0.8345  0.9360  1.3391
 3868TIP3   OH233018   1.386   5.880  14.533  0.4156  0.4849  0.5257
 3868TIP3    H133019   1.349   5.967  14.520 -2.3636 -0.8403 -1.4720
 3868TIP3    H233020   1.449   5.870  14.461  1.6615  1.2332  1.4800
 3869TIP3   OH233021   5.695   4.144  14.144 -0.3108  0.3042  0.3732
 3869TIP3    H133022   5.693   4.239  14.149  2.8643  0.4183  2.8301
 3869TIP3    H233023   5.643   4.114  14.218  0.4710  0.2532  0.9208
 3870TIP3   OH233024   4.600   0.811   5.156 -0.3585 -0.2635 -0.5903
 3870TIP3    H133025   4.684   0.798   5.199 -0.2353 -0.2424 -0.8228
 3870TIP3    H233026   4.562   0.723   5.148 -1.5567 -0.0617  1.8859
 3871TIP3   OH233027   2.707   2.586   1.714  0.4458 -0.1118 -0.1567
 3871TIP3    H133028   2.668   2.585   1.626 -0.0169 -0.0963  0.0415
 3871TIP3    H233029   2.632   2.599   1.772  0.3536 -2.7103  0.4402
 3872TIP3   OH233030   2.471   6.447   0.099 -0.1604  0.5889 -0.0208
 3872TIP3    H133031   2.439   6.418   0.185 -0.9462 -3.2854 -1.3929
 3872TIP3    H233032   2.565   6.431   0.103 -0.1855  0.4756  0.1590
 3873TIP3   OH233033   4.681   4.778  16.008 -0.2995  0.0376 -0.3605
 3873TIP3    H133034   4.675   4.850  15.945  1.2045  0.0095 -0.5787
 3873TIP3    H233035   4.732   4.815  16.080 -1.5235 -0.1062  0.6154
 3874TIP3   OH233036   4.657   6.119   4.189 -0.1946  0.0219  0.0132
 3874TIP3    H133037   4.682   6.078   4.272 -1.3924  0.8027  0.8047
 3874TIP3    H233038   4.643   6.046   4.129  4.4724 -0.5384 -0.8007
 3875TIP3   OH233039   3.733   3.228   5.395 -0.1966 -0.1233  0.6874
 3875TIP3    H133040   3.650   3.188   5.368 -0.0544 -0.1363  0.2635
 3875TIP3    H233041   3.718   3.255   5.486 -0.7781  0.1938  0.5028
 3876TIP3   OH233042   1.469   0.738   6.405 -0.2118  0.4627 -0.3125
 3876TIP3    H133043   1.500   0.807   6.347 -0.3820  0.8943  0.1031
 3876TIP3    H233044   1.507   0.759   6.490 -2.7907  1.8498  0.5815
 3877TIP3   OH233045   6.181   3.168   2.300  0.1255 -0.0634 -0.3172
 3877TIP3    H133046   6.153   3.259   2.307  0.6398  0.1309 -0.7686
 3877TIP3    H233047   6.138   3.124   2.374  0.3866  0.6719  0.2778
 3878TIP3   OH233048   0.599   2.406   0.683 -0.2696 -0.2951 -0.1837
 3878TIP3    H133049   0.690   2.427   0.662 -0.2142  2.9602  2.5035
 3878TIP3    H233050   0.548   2.468   0.632 -0.7430  0.0514  0.6884
 3879TIP3   OH233051   2.141   3.013   0.228  0.3179  0.1158 -0.9520
 3879TIP3    H133052   2.160   3.100   0.264 -0.8184 -0.5766  1.5448
 3879TIP3    H233053   2.226   2.980   0.199  0.9905  1.4794 -0.6332
 3880TIP3   OH233054   5.448   1.710  13.664  0.3703 -0.0746 -0.4056
 3880TIP3    H133055   5.381   1.670  13.720 -1.3872  0.6936 -1.8301
 3880TIP3    H233056   5.528   1.705  13.715 -0.7723 -1.0145  1.4198
 3881TIP3   OH233057   0.524   0.025   1.733  0.2837  0.1640 -0.2365
 3881TIP3    H133058   0.572  -0.042   1.781  0.0372  0.2061  0.0724
 3881TIP3    H233059   0.506  -0.015   1.648  0.8878  0.1586 -0.3710
 3882TIP3   OH233060   4.967   6.447  16.646  0.1210 -0.3902 -0.5427
 3882TIP3    H133061   4.977   6.354  16.666 -3.8134 -0.6690  1.1824
 3882TIP3    H233062   4.917   6.449  16.565  2.1013  0.3665 -1.8021
 3883TIP3   OH233063   4.373   1.100  14.644 -0.2254  0.1572  0.4690
 3883TIP3    H133064   4.380   1.039  14.571  2.4119  0.4479  0.3636
 3883TIP3    H233065   4.452   1.084  14.696 -0.3260  2.2738  1.3869
 3884TIP3   OH233066   5.712   4.043   4.882 -0.0001 -0.2060 -0.5567
 3884TIP3    H133067   5.654   3.995   4.941 -0.3944 -0.3514 -1.0575
 3884TIP3    H233068   5.685   4.016   4.795  0.8691 -0.3253 -0.7973
 3885TIP3   OH233069   2.661   1.637   1.360 -0.4081 -0.2635  0.3598
 3885TIP3    H133070   2.744   1.591   1.368  1.1293  2.1212 -0.8457
 3885TIP3    H233071   2.617   1.596   1.285  0.2865 -0.6448  0.1575
 3886TIP3   OH233072   1.661   1.938  13.630 -0.1506  0.4238 -0.2485
 3886TIP3    H133073   1.658   1.872  13.561 -0.0674 -1.3024  1.3134
 3886TIP3    H233074   1.751   1.934  13.662 -0.4168  0.5528  0.5366
 3887TIP3   OH233075   1.857   0.061  12.869 -0.5136 -0.5140  0.0843
 3887TIP3    H133076   1.792   0.023  12.929 -0.1374  0.7642  1.3791
 3887TIP3    H233077   1.923  -0.008  12.859 -0.8215 -0.9287  0.7756
 3888TIP3   OH233078   5.363   6.287  15.253  0.0625  0.1052  0.5643
 3888TIP3    H133079   5.325   6.274  15.166 -1.7374 -0.2962  1.3666
 3888TIP3    H233080   5.314   6.361  15.290  2.3331  1.7919  0.4414
 3889TIP3   OH233081   2.551   6.009  16.949 -0.4699  0.3433 -0.2217
 3889TIP3    H133082   2.642   6.009  16.919 -0.1884  0.1031  0.6037
 3889TIP3    H233083   2.514   5.929  16.911 -0.2922  0.3517 -0.4154
 3890TIP3   OH233084   0.620   1.860  11.963  0.2567  0.5976 -0.0442
 3890TIP3    H133085   0.571   1.942  11.952 -0.7235  0.8353  4.3099
 3890TIP3    H233086   0.553   1.792  11.965  0.7717  0.0696 -0.4760
 3891TIP3   OH233087   3.468   2.429   4.169 -0.3914  0.0041  0.1720
 3891TIP3    H133088   3.477   2.441   4.074 -0.7295 -4.0175 -0.5788
 3891TIP3    H233089   3.378   2.454   4.188 -0.4343  0.5108 -0.6578
 3892TIP3   OH233090   4.942   2.189  14.757  0.1398  0.1566 -0.0230
 3892TIP3    H133091   5.015   2.204  14.817 -0.6148 -0.3992  1.0773
 3892TIP3    H233092   4.865   2.186  14.814 -0.6392 -0.1008 -1.0630
 3893TIP3   OH233093   5.808   0.898  16.735  0.0789 -0.0249  0.5689
 3893TIP3    H133094   5.858   0.831  16.782  0.0540 -0.7033 -0.3429
 3893TIP3    H233095   5.860   0.917  16.658  0.3662  1.4547  1.1020
 3894TIP3   OH233096   5.298   1.786  14.745  0.7242  0.2699 -0.3797
 3894TIP3    H133097   5.360   1.823  14.682 -0.3292 -0.3399 -1.8465
 3894TIP3    H233098   5.225   1.848  14.746  0.4564 -0.0444 -0.2381
 3895TIP3   OH233099   3.459   5.345  12.456  0.1397 -0.3431  0.2507
 3895TIP3    H133100   3.421   5.299  12.530 -0.1326  0.7787  0.8307
 3895TIP3    H233101   3.552   5.323  12.459  0.5957  1.4965  2.3772
 3896TIP3   OH233102   5.825   6.036   0.058 -0.4496 -0.1187  0.4489
 3896TIP3    H133103   5.886   6.040   0.132 -0.5252  0.6003  0.4760
 3896TIP3    H233104   5.827   5.944   0.031  0.6506 -0.1077  0.4457
 3897TIP3   OH233105   1.383   5.315  16.985  0.1566 -0.2714  0.3064
 3897TIP3    H133106   1.461   5.371  16.981  0.0552 -0.1312  0.3097
 3897TIP3    H233107   1.414   5.234  17.027  0.4534 -0.4710 -0.2759
 3898TIP3   OH233108   4.753   3.073   3.555  0.1574  0.2469  0.5762
 3898TIP3    H133109   4.709   3.096   3.637 -1.5510 -1.7978  0.3085
 3898TIP3    H233110   4.836   3.035   3.582  0.7339  1.8319  1.1995
 3899TIP3   OH233111   4.688   0.631   5.950  0.5105 -0.5151 -0.9308
 3899TIP3    H133112   4.600   0.612   5.916 -0.1730 -0.7731  0.8742
 3899TIP3    H233113   4.743   0.637   5.872 -1.5059  1.8600 -2.3112
 3900TIP3   OH233114   0.860   6.300   5.328  0.2821 -0.1165 -0.5298
 3900TIP3    H133115   0.857   6.394   5.348  0.1899 -0.0441 -0.8847
 3900TIP3    H233116   0.883   6.259   5.412  2.6370  0.3934 -0.8484
 3901TIP3   OH233117   0.569   3.785   3.497  0.1113  0.6112  0.5063
 3901TIP3    H133118   0.503   3.723   3.529  1.0115 -1.0711 -0.7367
 3901TIP3    H233119   0.653   3.746   3.521  0.7037  1.7820  0.4171
 3902TIP3   OH233120   2.577   0.009  12.662 -0.4313  0.0351  0.7020
 3902TIP3    H133121   2.514   0.024  12.732 -0.1161  0.2290  0.9491
 3902TIP3    H233122   2.553  -0.076  12.626  0.0116 -0.5359  1.7099
 3903TIP3   OH233123   6.213   2.230  14.971 -0.5450  0.3350  0.2550
 3903TIP3    H133124   6.246   2.202  15.056  2.0650 -0.5608 -0.9465
 3903TIP3    H233125   6.284   2.283  14.934 -1.8867  1.2615 -1.1042
 3904TIP3   OH233126   6.739   0.012   3.033 -0.5344  0.2688 -0.1387
 3904TIP3    H133127   6.797   0.081   3.000  0.3189  0.5009  1.7464
 3904TIP3    H233128   6.672   0.003   2.965  1.3237  0.4338 -2.0859
 3905TIP3   OH233129   4.404   2.070  16.381  0.5170 -0.3785 -0.0110
 3905TIP3    H133130   4.325   2.097  16.336 -0.1084 -1.2430  0.5389
 3905TIP3    H233131   4.400   2.114  16.466  2.1564  2.0125 -1.0432
 3906TIP3   OH233132   0.627   6.033   1.773  0.1107  0.1378 -0.5193
 3906TIP3    H133133   0.534   6.027   1.752  0.1394 -0.3163 -0.5429
 3906TIP3    H233134   0.636   5.984   1.855  0.2264  0.7283 -0.1750
 3907TIP3   OH233135   0.123   4.349   2.188 -0.0484  0.0487  0.8585
 3907TIP3    H133136   0.180   4.404   2.135  0.4974  0.1474  1.5292
 3907TIP3    H233137   0.155   4.362   2.278 -1.6039  0.6951  1.3426
 3908TIP3   OH233138   5.826   3.681  16.008  0.1475  0.1325  0.3018
 3908TIP3    H133139   5.907   3.723  16.036  0.8467 -0.6310 -0.5219
 3908TIP3    H233140   5.843   3.587  16.017 -0.8924 -0.0286  0.7562
 3909TIP3   OH233141   5.803   5.820  11.879 -0.1269  0.3096  0.2020
 3909TIP3    H133142   5.727   5.768  11.904 -1.7238  2.6470  0.5075
 3909TIP3    H233143   5.848   5.767  11.813 -0.7630 -2.0797  1.5494
 3910TIP3   OH233144   3.073   5.097   2.006  0.0353 -0.8790  0.0072
 3910TIP3    H133145   3.062   5.081   1.913 -0.3784  1.2000 -0.3481
 3910TIP3    H233146   2.985   5.087   2.043  0.1737 -1.5532  0.1833
 3911TIP3   OH233147   5.000   1.391   2.708  0.2674  0.4751 -0.5637
 3911TIP3    H133148   4.952   1.398   2.626 -0.4466  0.6474 -0.1386
 3911TIP3    H233149   5.090   1.372   2.682  0.2037  1.2782 -1.4099
 3912TIP3   OH233150   0.655   6.516   4.710  0.1970 -0.1914  0.5594
 3912TIP3    H133151   0.591   6.498   4.641 -0.2165  2.2009  0.2641
 3912TIP3    H233152   0.606   6.511   4.791  0.0047  0.0089  0.4551
 3913TIP3   OH233153   5.587   5.815  16.085 -0.4428 -0.1158 -0.0965
 3913TIP3    H133154   5.658   5.764  16.048 -1.0998 -1.2439  0.1691
 3913TIP3    H233155   5.516   5.753  16.098 -1.4894  0.9739 -0.3398
 3914TIP3   OH233156   6.056   5.433  13.078  0.1553 -0.0856 -0.5258
 3914TIP3    H133157   6.093   5.369  13.017  0.4121  0.1801 -0.6497
 3914TIP3    H233158   5.973   5.460  13.037 -0.9612 -1.7911  0.4608
 3915TIP3   OH233159   0.277   1.625  16.769 -0.0926  0.0401  0.3165
 3915TIP3    H133160   0.312   1.712  16.746 -0.2464 -0.2234 -0.9943
 3915TIP3    H233161   0.334   1.564  16.723 -0.4741 -0.5260  0.5864
 3916TIP3   OH233162   2.146   3.562   2.067  0.0060  0.1935  0.0294
 3916TIP3    H133163   2.173   3.472   2.085  0.2873  0.4845  1.1022
 3916TIP3    H233164   2.068   3.553   2.012 -0.0339 -0.7060  0.2248
 3917TIP3   OH233165   3.169   2.541  16.688  0.5336 -0.1159 -0.0575
 3917TIP3    H133166   3.180   2.636  16.689  1.1159 -0.1853  0.3907
 3917TIP3    H233167   3.115   2.524  16.611 -1.2644  0.7447  0.9702
 3918TIP3   OH233168   2.562   0.888  16.263 -0.2590 -0.7686 -0.6125
 3918TIP3    H133169   2.534   0.805  16.301  0.7543 -0.3716  1.0991
 3918TIP3    H233170   2.658   0.882  16.259  0.1083  1.2929  2.1461
 3919TIP3   OH233171   5.556   5.140   4.688  0.5431 -0.1548  0.6267
 3919TIP3    H133172   5.493   5.095   4.632 -0.8734  1.8049  0.5483
 3919TIP3    H233173   5.641   5.103   4.663 -0.3595 -1.4150 -0.7090
 3920TIP3   OH233174   2.254   6.585  15.729 -0.1136 -0.1982 -0.2963
 3920TIP3    H133175   2.160   6.590  15.745 -0.1209 -1.6216  0.2560
 3920TIP3    H233176   2.277   6.493  15.748  1.3098  0.0283 -0.7940
 3921TIP3   OH233177   6.643   2.339   4.223  0.1796 -0.0800 -0.5378
 3921TIP3    H133178   6.690   2.397   4.283  1.4735 -3.3869  1.9251
 3921TIP3    H233179   6.552   2.344   4.251  0.1025  1.3467 -0.9523
 3922TIP3   OH233180   4.121   0.906   0.969  0.0980  0.2936 -0.2489
 3922TIP3    H133181   4.136   0.830   1.025 -2.3703 -1.0856 -1.2965
 3922TIP3    H233182   4.201   0.914   0.916  0.9385 -0.6885  0.8343
 3923TIP3   OH233183   3.398   6.757  15.726 -0.5906 -0.4260  0.4252
 3923TIP3    H133184   3.377   6.807  15.805 -2.0717  1.5498 -1.1173
 3923TIP3    H233185   3.490   6.776  15.709 -0.9007  1.1605  0.3571
 3924TIP3   OH233186   2.090   1.297   6.001 -0.4993  0.8344  0.0584
 3924TIP3    H133187   2.031   1.334   6.067  1.6979 -0.5256  3.0089
 3924TIP3    H233188   2.064   1.206   5.994 -0.8493  1.0055 -1.2388
 3925TIP3   OH233189   6.096   6.319  12.511  0.3168  0.2167  0.0721
 3925TIP3    H133190   6.159   6.298  12.442 -0.2981 -0.1159 -0.4050
 3925TIP3    H233191   6.084   6.414  12.505  1.4605  0.4242  0.7849
 3926TIP3   OH233192   0.384   5.097  14.736  0.0532  0.0532  0.2289
 3926TIP3    H133193   0.327   5.164  14.775  2.0567  1.2914  1.2474
 3926TIP3    H233194   0.362   5.017  14.783 -0.9730  0.4513  0.4553
 3927TIP3   OH233195   6.225   3.713  15.636 -0.3809 -0.8059 -0.4542
 3927TIP3    H133196   6.196   3.716  15.726 -0.3763 -2.7470 -0.3510
 3927TIP3    H233197   6.156   3.666  15.589  0.0601 -0.6630 -1.2711
 3928TIP3   OH233198   0.849   0.931   0.447  0.2719 -0.9908  0.0986
 3928TIP3    H133199   0.776   0.949   0.506  2.6432  3.0982  2.2506
 3928TIP3    H233200   0.896   0.858   0.488 -1.2774 -2.1703 -0.1230
 3929TIP3   OH233201   6.537   3.959   6.347  0.1360 -0.1803 -0.0618
 3929TIP3    H133202   6.566   3.901   6.277 -0.4507 -0.5249 -0.0259
 3929TIP3    H233203   6.453   3.924   6.374 -0.0081  0.4129  0.2852
 3930TIP3   OH233204   1.773   0.896  11.792 -0.2648 -0.4808 -1.2683
 3930TIP3    H133205   1.695   0.881  11.845 -0.3221 -1.5953 -1.6385
 3930TIP3    H233206   1.751   0.972  11.739 -0.5141  0.1498 -0.2884
 3931TIP3   OH233207   0.703   1.259   0.347  0.8670  0.2397 -0.8642
 3931TIP3    H133208   0.734   1.268   0.437 -0.3483 -0.6865 -0.3159
 3931TIP3    H233209   0.732   1.339   0.304  1.9432  0.4607  0.1982
 3932TIP3   OH233210   6.274   2.757  13.561  0.0831 -0.4162 -0.5917
 3932TIP3    H133211   6.352   2.702  13.565 -0.5549 -1.3676 -0.9116
 3932TIP3    H233212   6.240   2.757  13.650  0.9973  0.8512 -0.2133
 3933TIP3   OH233213   1.705   3.739  15.006 -0.3433 -0.4057 -0.1764
 3933TIP3    H133214   1.693   3.685  15.084  0.9438  1.8051  1.6763
 3933TIP3    H233215   1.765   3.689  14.951  1.2967 -0.7018  1.7552
 3934TIP3   OH233216   5.324   2.838  14.885 -0.4920 -0.0763 -0.3863
 3934TIP3    H133217   5.338   2.806  14.974 -2.7648 -1.0884 -0.3151
 3934TIP3    H233218   5.276   2.767  14.842  0.7752  0.2830 -2.5175
 3935TIP3   OH233219   5.675   3.156  12.204 -0.3018 -0.6494 -0.4452
 3935TIP3    H133220   5.673   3.061  12.210  0.9902 -0.6804 -0.2593
 3935TIP3    H233221   5.661   3.186  12.294  0.4565 -0.7008 -0.3030
 3936TIP3   OH233222   4.166   6.233   1.309 -0.1391 -0.1409  0.0530
 3936TIP3    H133223   4.189   6.315   1.265 -1.1493  0.8457  1.2937
 3936TIP3    H233224   4.070   6.232   1.310 -0.1370 -0.6051  1.3813
 3937TIP3   OH233225   1.706   5.564  13.712  0.1679  0.6534  0.1293
 3937TIP3    H133226   1.769   5.636  13.703  1.1654 -0.0709  1.0955
 3937TIP3    H233227   1.759   5.490  13.740 -0.4574 -1.0761 -2.8038
 3938TIP3   OH233228   4.952   4.608   2.280 -0.1207 -0.3200  0.1745
 3938TIP3    H133229   4.992   4.667   2.343  0.4872 -0.2971 -0.2266
 3938TIP3    H233230   4.889   4.558   2.331 -0.4373  0.4662  0.5818
 3939TIP3   OH233231   1.458   0.709  12.881 -0.2796 -0.0976 -0.2699
 3939TIP3    H133232   1.413   0.630  12.912  0.4065 -0.9358 -1.3164
 3939TIP3    H233233   1.503   0.681  12.801  2.0549  0.6945  0.6734
 3940TIP3   OH233234   5.164   4.841   3.598 -0.2118  0.0445  0.2022
 3940TIP3    H133235   5.117   4.769   3.641  0.4261  0.6105  1.9281
 3940TIP3    H233236   5.113   4.919   3.621 -0.7886  0.2123 -1.4950
 3941TIP3   OH233237   5.955   4.180   3.248  0.0914  0.5109  0.7155
 3941TIP3    H133238   5.921   4.092   3.263  1.2571  0.0694  0.8627
 3941TIP3    H233239   6.044   4.166   3.215 -0.0803  1.6113 -0.3007
 3942TIP3   OH233240   4.997   2.233  17.042  0.0582 -0.4656  0.2083
 3942TIP3    H133241   4.965   2.321  17.020  1.1886 -0.2046 -0.5022
 3942TIP3    H233242   5.050   2.208  16.967  1.8429 -0.6918  1.4870
 3943TIP3   OH233243   6.386   0.068  12.080 -0.0844 -0.1772 -0.5981
 3943TIP3    H133244   6.411   0.160  12.092 -1.2256 -0.1182  2.0410
 3943TIP3    H233245   6.292   0.072  12.064 -0.3989 -0.9027  0.9004
 3944TIP3   OH233246   6.385   2.536   1.092 -0.0133  0.1908 -0.6432
 3944TIP3    H133247   6.480   2.536   1.106 -0.0194 -0.2558 -0.5754
 3944TIP3    H233248   6.373   2.496   1.006 -0.2033 -1.0128 -0.0860
 3945TIP3   OH233249   5.211   4.247  11.863 -0.2511 -0.2097  0.5336
 3945TIP3    H133250   5.295   4.292  11.872  0.2912 -1.5083  2.7898
 3945TIP3    H233251   5.228   4.177  11.800  0.0557  0.1562  0.2033
 3946TIP3   OH233252   1.820   0.281   4.201 -0.0010  0.3421  0.5667
 3946TIP3    H133253   1.914   0.289   4.186  0.0617  0.6288  1.0936
 3946TIP3    H233254   1.788   0.371   4.201 -0.3789  0.2113 -0.2342
 3947TIP3   OH233255   3.509   4.607   4.016  0.2122  0.5220 -0.6803
 3947TIP3    H133256   3.557   4.690   4.020 -0.1795  0.7010  0.3690
 3947TIP3    H233257   3.472   4.606   3.927 -1.2050  2.2804 -0.1763
 3948TIP3   OH233258   2.965   5.007  11.059 -0.3800 -0.0709  0.4373
 3948TIP3    H133259   2.905   5.017  10.985  1.8734 -0.2674 -1.5548
 3948TIP3    H233260   3.051   4.994  11.018  0.8791 -0.8625  3.1181
 3949TIP3   OH233261   4.838   5.609  12.093  0.1984 -0.4122  0.2614
 3949TIP3    H133262   4.810   5.611  12.001  1.1346 -1.0181 -0.0548
 3949TIP3    H233263   4.928   5.640  12.091  0.1108 -0.0785  1.0378
 3950TIP3   OH233264   5.724   4.793   2.847 -1.1556 -0.1043 -0.6067
 3950TIP3    H133265   5.772   4.869   2.813 -0.5606  1.2087  2.7712
 3950TIP3    H233266   5.632   4.822   2.849 -0.9634  0.4854  0.4365
 3951TIP3   OH233267   1.634   3.613   2.113 -0.2419  0.0838  0.2904
 3951TIP3    H133268   1.702   3.586   2.175 -0.8360  2.3316  2.0579
 3951TIP3    H233269   1.555   3.569   2.144 -0.5196  1.1354  1.1342
 3952TIP3   OH233270   6.229   1.639   0.327 -0.0444  0.1774  0.3485
 3952TIP3    H133271   6.312   1.592   0.339  0.1299  0.7390  1.4719
 3952TIP3    H233272   6.162   1.577   0.355 -0.2980 -1.2421 -2.9371
 3953TIP3   OH233273   6.039   4.111   2.923 -1.1577  0.1068  0.1791
 3953TIP3    H133274   6.078   4.039   2.973 -0.4065 -0.5938 -1.3678
 3953TIP3    H233275   5.944   4.094   2.927 -1.0627 -0.3113  0.7899
 3954TIP3   OH233276   2.796   5.550   4.191  0.9968 -0.4416 -0.5751
 3954TIP3    H133277   2.818   5.643   4.198  0.6722 -0.1601 -2.6217
 3954TIP3    H233278   2.728   5.537   4.258  1.9021  0.4791  0.5667
 3955TIP3   OH233279   0.430   6.012  16.966 -0.1330 -0.1333  0.0835
 3955TIP3    H133280   0.444   5.925  16.929 -0.4500 -0.3914  0.5662
 3955TIP3    H233281   0.335   6.025  16.962 -0.1212  0.0433  0.3431
 3956TIP3   OH233282   6.353   1.306   6.004 -0.5682  0.2055 -0.1421
 3956TIP3    H133283   6.297   1.352   6.067  1.5476  0.2711  1.8271
 3956TIP3    H233284   6.412   1.255   6.058  0.6260 -0.6424 -2.1588
 3957TIP3   OH233285   3.856   1.171   2.628  0.8432  0.2236 -0.0704
 3957TIP3    H133286   3.905   1.213   2.699  1.2009  0.8078 -0.6538
 3957TIP3    H233287   3.793   1.238   2.601 -0.4376 -0.5799  0.8011
 3958TIP3   OH233288   1.960   6.649  12.227 -0.1277 -0.1723 -0.3054
 3958TIP3    H133289   1.916   6.620  12.307 -0.5967  2.1433  0.3468
 3958TIP3    H233290   2.049   6.614  12.235 -0.6974 -1.5533  0.2855
 3959TIP3   OH233291   0.206   5.321  14.705 -0.2427  0.0998 -0.4143
 3959TIP3    H133292   0.116   5.295  14.690 -0.6837  0.0996  1.8952
 3959TIP3    H233293   0.200   5.397  14.763  1.2161  1.1283 -1.5295
 3960TIP3   OH233294   3.128   5.310   3.373 -0.0627 -0.2494 -0.1897
 3960TIP3    H133295   3.135   5.331   3.280 -1.0779 -0.2729 -0.2845
 3960TIP3    H233296   3.071   5.378   3.409  0.6955  0.0272  0.5140
 3961TIP3   OH233297   1.522   6.691  11.773 -0.0181 -0.2671  0.0797
 3961TIP3    H133298   1.485   6.603  11.763  0.9089 -0.6968  0.2868
 3961TIP3    H233299   1.601   6.689  11.719  0.6890  0.0256  1.0967
 3962TIP3   OH233300   3.728   4.003  15.018 -0.0362  0.3709 -0.3474
 3962TIP3    H133301   3.656   3.941  15.016 -0.2477  0.6135 -2.0569
 3962TIP3    H233302   3.799   3.959  14.971 -0.2810  1.4634 -1.8349
 3963TIP3   OH233303   3.501   2.029  13.366  0.0755  0.2877  0.2710
 3963TIP3    H133304   3.495   2.121  13.340  0.0714 -0.0003 -0.8029
 3963TIP3    H233305   3.571   1.993  13.311  0.4772 -0.2198  1.0992
 3964TIP3   OH233306   0.401   3.299   4.016 -0.0832  0.1247  0.2807
 3964TIP3    H133307   0.353   3.341   4.087 -1.5285  0.4981 -0.8758
 3964TIP3    H233308   0.392   3.205   4.035  1.3210  0.2273  1.6851
 3965TIP3   OH233309   6.462   5.950  16.025  0.3189  0.7781 -0.4605
 3965TIP3    H133310   6.392   6.011  16.004  0.2547  1.8057  2.3175
 3965TIP3    H233311   6.534   5.974  15.967 -1.0123  0.8046 -2.1790
 3966TIP3   OH233312   2.984   3.033  13.093  0.0235  0.3690 -0.0465
 3966TIP3    H133313   2.997   2.980  13.015  2.7355  0.6370  0.1293
 3966TIP3    H233314   2.996   2.973  13.166  0.1999  0.6346  0.1478
 3967TIP3   OH233315   3.905   3.759  13.637  0.8419  0.1648 -0.2849
 3967TIP3    H133316   3.830   3.786  13.585 -0.4779 -0.0438  1.4311
 3967TIP3    H233317   3.973   3.739  13.572  0.0073  1.9779 -1.8177
 3968TIP3   OH233318   3.863   1.435  14.761  0.8276 -0.5361  0.3057
 3968TIP3    H133319   3.869   1.525  14.728  0.3370 -0.9689 -1.0312
 3968TIP3    H233320   3.882   1.443  14.855  1.8388  0.8101  0.0304
 3969TIP3   OH233321   4.675   6.676  14.695  0.2328  0.1429 -0.5052
 3969TIP3    H133322   4.616   6.727  14.640  0.5946  0.4939 -0.5715
 3969TIP3    H233323   4.724   6.741  14.744  1.6484 -0.0886 -1.5595
 3970TIP3   OH233324   0.310   4.658   4.352  0.2473  0.1583 -0.1898
 3970TIP3    H133325   0.370   4.685   4.421 -0.2889 -1.8739  1.1613
 3970TIP3    H233326   0.347   4.696   4.272  0.5777  3.0498  1.2199
 3971TIP3   OH233327   0.408   6.361  14.590 -0.2056  0.0688 -0.2323
 3971TIP3    H133328   0.457   6.288  14.551 -0.7154 -0.2056 -0.3727
 3971TIP3    H233329   0.452   6.378  14.673  0.7840  0.5440 -0.8431
 3972TIP3   OH233330   6.164   6.358   0.489 -0.1749  0.1652 -0.3774
 3972TIP3    H133331   6.084   6.348   0.436 -1.0401 -0.4824  1.0012
 3972TIP3    H233332   6.169   6.452   0.507  0.4877  0.5049 -2.0825
 3973TIP3   OH233333   6.467   2.909  13.424  0.1124  0.6640 -0.3305
 3973TIP3    H133334   6.400   2.897  13.491 -0.2415  0.2390 -0.7589
 3973TIP3    H233335   6.422   2.895  13.341  0.8504 -0.2577 -0.6035
 3974TIP3   OH233336   6.158   5.003   2.536  0.0204 -0.2390 -0.2382
 3974TIP3    H133337   6.128   4.912   2.527  0.3737 -0.4925  0.9167
 3974TIP3    H233338   6.239   4.996   2.585 -0.2356  0.7449  0.3424
 3975TIP3   OH233339   1.284   4.089  15.046 -0.0888  0.2809 -0.6153
 3975TIP3    H133340   1.274   4.060  14.955  0.7273 -0.5143 -0.4591
 3975TIP3    H233341   1.303   4.183  15.040  0.9005  0.0394 -1.3112
 3976TIP3   OH233342   1.665   2.642   5.774 -0.1735  0.5470 -0.1357
 3976TIP3    H133343   1.727   2.585   5.820 -0.4684 -0.9553 -1.5019
 3976TIP3    H233344   1.673   2.726   5.818  1.9828  0.0838  0.4842
 3977TIP3   OH233345   4.290   5.033  11.132 -0.3709 -0.1752  0.0256
 3977TIP3    H133346   4.210   5.044  11.182  0.2878 -0.2370  1.1179
 3977TIP3    H233347   4.317   4.943  11.148  1.3518  0.5904  1.9265
 3978TIP3   OH233348   4.260   5.891   4.182 -0.2358 -0.5822 -0.1658
 3978TIP3    H133349   4.322   5.943   4.130 -0.6312 -0.3713 -0.4321
 3978TIP3    H233350   4.178   5.940   4.177 -0.4399 -0.8929  0.1329
 3979TIP3   OH233351   3.978   6.689   3.969  0.3914  0.1337  0.1635
 3979TIP3    H133352   4.042   6.677   3.899 -1.3652 -0.3430 -1.4361
 3979TIP3    H233353   3.974   6.603   4.012 -1.4470 -0.8667 -1.8243
 3980TIP3   OH233354   1.185   0.937   5.289  0.0885  0.9680 -0.3982
 3980TIP3    H133355   1.130   0.975   5.220 -0.0634  0.5092 -0.5325
 3980TIP3    H233356   1.263   0.907   5.242 -0.1446  0.3858 -0.4216
 3981TIP3   OH233357   1.325   0.763  11.883 -0.1539  0.5683  0.1558
 3981TIP3    H133358   1.258   0.735  11.945 -0.2632  0.4143 -0.0322
 3981TIP3    H233359   1.345   0.685  11.832  0.7772  0.3976  0.7609
 3982TIP3   OH233360   6.396   0.299  12.535  0.0330  0.3780 -0.0598
 3982TIP3    H133361   6.419   0.206  12.538 -0.8936  0.1714  1.1675
 3982TIP3    H233362   6.312   0.305  12.581  0.5134  1.9494  0.6711
 3983TIP3   OH233363   1.393   2.913  12.866  0.5350  0.1102 -0.6620
 3983TIP3    H133364   1.358   2.866  12.942 -0.1622  2.7549  0.8108
 3983TIP3    H233365   1.398   3.004  12.896  1.8280  0.9894 -3.2929
 3984TIP3   OH233366   4.178   2.282  12.287  0.6761  0.3908  0.4041
 3984TIP3    H133367   4.116   2.292  12.215  0.6903 -0.0788  0.3280
 3984TIP3    H233368   4.209   2.192  12.281  1.9507  0.8416 -0.0290
 3985TIP3   OH233369   2.139   0.653   1.911 -0.0656  0.3175 -0.2378
 3985TIP3    H133370   2.114   0.613   1.828  0.2485 -0.9900  0.2687
 3985TIP3    H233371   2.116   0.745   1.901 -0.6076  0.0675 -1.5393
 3986TIP3   OH233372   4.549   3.578  15.589 -0.3899  0.2357 -0.3117
 3986TIP3    H133373   4.467   3.558  15.543  0.4562 -2.5825 -0.8178
 3986TIP3    H233374   4.617   3.541  15.532  1.4065  3.2435 -0.3538
 3987TIP3   OH233375   2.205   2.128   3.638  0.2889  0.0040  0.3525
 3987TIP3    H133376   2.205   2.097   3.547 -2.5114 -1.4613  0.7145
 3987TIP3    H233377   2.233   2.052   3.689 -3.3220 -1.0848  0.9944
 3988TIP3   OH233378   0.391   3.035   1.319  0.1082 -0.1934  0.3522
 3988TIP3    H133379   0.469   2.979   1.319 -0.7041 -1.3428  0.3379
 3988TIP3    H233380   0.317   2.975   1.320 -0.7988  0.8833  0.5699
 3989TIP3   OH233381   1.719   2.680   0.329 -0.1878  0.3368  0.4609
 3989TIP3    H133382   1.651   2.746   0.316 -0.0788  0.1152 -1.7039
 3989TIP3    H233383   1.801   2.725   0.310 -0.0319 -0.1788 -0.1186
 3990TIP3   OH233384   3.730   5.752   1.082  0.1756 -0.0983 -0.1662
 3990TIP3    H133385   3.740   5.837   1.039 -0.0815  0.0943  0.1596
 3990TIP3    H233386   3.685   5.698   1.018 -0.4501  0.2685 -0.0362
 3991TIP3   OH233387   2.343   3.378  14.259 -0.4924  0.2024  0.1234
 3991TIP3    H133388   2.408   3.387  14.189 -1.0345 -0.1459 -0.4387
 3991TIP3    H233389   2.371   3.300  14.307  0.6731  1.2269  1.1726
 3992TIP3   OH233390   6.755   6.707  11.775  0.3613 -0.0700 -0.3392
 3992TIP3    H133391   6.759   6.728  11.682  1.6521 -1.1209 -0.5409
 3992TIP3    H233392   6.663   6.722  11.798  0.5686  2.9943 -1.0766
 3993TIP3   OH233393   2.197   3.883  13.126 -0.3194  0.6288  0.4373
 3993TIP3    H133394   2.186   3.913  13.216 -0.2963 -1.3012  1.1517
 3993TIP3    H233395   2.110   3.892  13.087 -0.7104  0.0845  1.1476
 3994TIP3   OH233396   3.065   6.662  12.534 -0.5949 -0.4112 -0.3899
 3994TIP3    H133397   2.983   6.699  12.501  0.3359  1.2285 -0.9328
 3994TIP3    H233398   3.082   6.710  12.615  0.0476 -0.4379 -0.5046
 3995TIP3   OH233399   5.074   2.623  10.847  0.2258 -0.2321 -0.5755
 3995TIP3    H133400   5.053   2.712  10.875  1.0460 -0.6852  1.7147
 3995TIP3    H233401   4.991   2.575  10.853  0.1765 -0.0718  0.2188
 3996TIP3   OH233402   5.934   2.654  14.683 -0.0024  0.0082  0.1845
 3996TIP3    H133403   5.915   2.622  14.595  1.4855 -0.1061 -0.1314
 3996TIP3    H233404   5.974   2.579  14.727  0.5607  0.4758  0.4800
 3997TIP3   OH233405   2.885   0.798  13.827 -0.1274 -0.0615 -0.0023
 3997TIP3    H133406   2.854   0.761  13.744 -1.2110 -0.2283  0.4563
 3997TIP3    H233407   2.944   0.732  13.862 -2.0515 -1.4383  0.8155
 3998TIP3   OH233408   0.914   2.339   2.521  0.2758 -0.2404 -0.2432
 3998TIP3    H133409   0.988   2.330   2.461 -1.4165 -1.3044 -2.3197
 3998TIP3    H233410   0.867   2.415   2.488 -0.2049 -0.3029  0.2974
 3999TIP3   OH233411   6.529   3.315   6.781  0.2926 -0.0278 -0.0106
 3999TIP3    H133412   6.552   3.402   6.748 -1.3235  0.3644 -0.1943
 3999TIP3    H233413   6.573   3.254   6.722 -0.3383  0.6784 -1.2463
 4000TIP3   OH233414   6.738   3.546   3.224  0.0645  0.6495 -0.1104
 4000TIP3    H133415   6.799   3.535   3.296  1.3882  0.7527 -1.1682
 4000TIP3    H233416   6.751   3.468   3.169 -0.9366  0.5562 -0.2344
 4001TIP3   OH233417   4.657   4.174  14.909 -0.3863  0.3367  0.0735
 4001TIP3    H133418   4.743   4.160  14.947 -0.5630 -1.1168 -0.0377
 4001TIP3    H233419   4.595   4.158  14.981 -0.5943  0.8393  0.0140
 4002TIP3   OH233420   4.055   2.342  12.892  0.4733 -0.3233 -0.0148
 4002TIP3    H133421   4.046   2.269  12.830 -1.9185 -0.5154  0.4639
 4002TIP3    H233422   4.086   2.301  12.972 -0.9949 -0.8952  0.2954
 4003TIP3   OH233423   0.434   6.103  14.938  0.4315 -0.8855  0.1772
 4003TIP3    H133424   0.366   6.074  14.999  0.3775  1.0471  1.1043
 4003TIP3    H233425   0.495   6.153  14.992 -0.7446  2.8116 -1.5516
 4004TIP3   OH233426   5.365   0.043  11.027  0.1571  0.0705 -0.0560
 4004TIP3    H133427   5.397  -0.029  10.974 -1.1678 -1.1404  0.7217
 4004TIP3    H233428   5.391   0.122  10.979  2.0260 -0.8795 -0.7037
 4005TIP3   OH233429   5.039   3.822   0.711  0.2522 -0.9862 -0.1106
 4005TIP3    H133430   5.019   3.743   0.662  1.0105 -0.8774 -0.5928
 4005TIP3    H233431   5.016   3.894   0.652  0.9292 -0.8550 -0.2196
 4006TIP3   OH233432   1.296   2.691  13.595  1.0826 -0.0105 -0.5385
 4006TIP3    H133433   1.258   2.756  13.535  0.0267 -0.0518  0.0600
 4006TIP3    H233434   1.390   2.698  13.580  0.9029  0.6547 -1.5098
 4007TIP3   OH233435   5.420   2.360  10.659  0.4977 -0.1018 -0.3352
 4007TIP3    H133436   5.367   2.416  10.602 -1.1125 -1.5686 -0.3605
 4007TIP3    H233437   5.390   2.271  10.640  3.1525 -1.0637 -0.5013
 4008TIP3   OH233438   6.446   4.781   4.999  0.3382  0.0860 -0.2036
 4008TIP3    H133439   6.363   4.773   5.045  0.0446  1.2186 -0.4932
 4008TIP3    H233440   6.434   4.857   4.942  1.0984 -0.5660 -1.2669
 4009TIP3   OH233441   0.159   0.886   5.645 -0.1067  0.0539 -1.0273
 4009TIP3    H133442   0.204   0.969   5.631  1.1893 -0.6198 -0.9300
 4009TIP3    H233443   0.190   0.856   5.731 -0.1842 -0.7758 -1.2865
 4010TIP3   OH233444   5.465   6.678   4.839  0.2841 -0.2143 -0.1690
 4010TIP3    H133445   5.403   6.728   4.892  2.7162  0.6479  2.0827
 4010TIP3    H233446   5.541   6.736   4.830  1.6291 -2.0000 -0.9543
 4011TIP3   OH233447   2.226   3.310   6.523 -0.6213  0.1965 -0.5198
 4011TIP3    H133448   2.262   3.266   6.446 -2.2636 -2.3384  0.0525
 4011TIP3    H233449   2.217   3.240   6.588  1.4965  2.3406  2.3760
 4012TIP3   OH233450   4.619   2.110  11.912 -0.2308 -0.2116 -0.7372
 4012TIP3    H133451   4.663   2.183  11.956  1.1291 -0.8162 -1.0756
 4012TIP3    H233452   4.586   2.147  11.830 -1.1359  0.4515 -0.0946
 4013TIP3   OH233453   5.110   2.255  13.295 -0.6913  0.4547  0.3450
 4013TIP3    H133454   5.113   2.313  13.370 -1.4406  0.1340  0.6398
 4013TIP3    H233455   5.020   2.221  13.295  0.0408 -1.6563  0.9313
 4014TIP3   OH233456   6.392   4.423   0.194  0.7558  0.5958 -0.0283
 4014TIP3    H133457   6.393   4.413   0.099  0.8983  3.0390 -0.3364
 4014TIP3    H233458   6.471   4.377   0.223  1.7725  1.4388 -1.3269
 4015TIP3   OH233459   4.514   5.049  11.301  0.4342 -0.0244  0.2393
 4015TIP3    H133460   4.513   5.020  11.392 -0.5940 -1.6478 -0.2392
 4015TIP3    H233461   4.422   5.047  11.274  0.6745  0.8229 -0.7237
 4016TIP3   OH233462   0.500   2.930  12.487 -0.5364 -0.3441  0.0319
 4016TIP3    H133463   0.546   3.013  12.485 -1.5450  0.2483  0.3973
 4016TIP3    H233464   0.409   2.953  12.467 -0.4121 -1.6929 -2.6067
 4017TIP3   OH233465   4.809   5.368  12.277  0.0003 -0.0595  0.9269
 4017TIP3    H133466   4.870   5.305  12.239 -0.3875  0.0461  0.0928
 4017TIP3    H233467   4.822   5.448  12.226 -0.1227  0.2663  1.4045
 4018TIP3   OH233468   2.669   0.020   1.529  0.1418  0.3080 -0.4219
 4018TIP3    H133469   2.721   0.009   1.609 -0.5931 -0.8864 -0.0966
 4018TIP3    H233470   2.724   0.076   1.473  0.3947  1.7153  1.1450
 4019TIP3   OH233471   5.949   1.089   5.874 -0.0022  0.0069  0.1892
 4019TIP3    H133472   5.930   1.017   5.934 -0.2561 -0.8442 -0.8710
 4019TIP3    H233473   6.035   1.068   5.837 -0.3239 -0.0548 -0.5423
 4020TIP3   OH233474   6.140   4.346   2.196 -0.6610 -0.0290 -0.0781
 4020TIP3    H133475   6.148   4.347   2.101 -2.8735 -0.5907 -0.3133
 4020TIP3    H233476   6.225   4.314   2.226  0.2131  0.5144 -1.8265
 4021TIP3   OH233477   0.342   2.038  15.369  0.1161  0.1906 -0.1918
 4021TIP3    H133478   0.340   2.108  15.434 -1.6962 -0.4451  0.5105
 4021TIP3    H233479   0.325   2.082  15.286 -4.0877  0.4125  0.5610
 4022TIP3   OH233480   0.805   6.482   2.341 -0.1277 -0.1116  0.3765
 4022TIP3    H133481   0.742   6.552   2.359  0.6474  0.5818  0.4878
 4022TIP3    H233482   0.888   6.528   2.327  0.4500 -1.0246  0.7030
 4023TIP3   OH233483   1.435   1.485   1.180 -0.1075  0.4881  0.0107
 4023TIP3    H133484   1.346   1.488   1.216  0.2965 -0.8052  1.2418
 4023TIP3    H233485   1.445   1.567   1.133 -1.9263  0.6951 -0.0841
 4024TIP3   OH233486   5.783   2.804   6.016 -0.0734 -0.1319 -0.0117
 4024TIP3    H133487   5.739   2.763   6.090 -0.3000  1.1823  0.5995
 4024TIP3    H233488   5.846   2.738   5.987 -1.5170 -1.5384 -0.0879
 4025TIP3   OH233489   6.071   0.647  14.031  0.0570 -0.4624  0.0613
 4025TIP3    H133490   5.983   0.675  14.006 -0.1237 -0.8097  0.2870
 4025TIP3    H233491   6.098   0.588  13.961 -0.5361 -1.6066  0.7528
 4026TIP3   OH233492   1.275   1.638   2.184  0.1960 -0.0107  0.1730
 4026TIP3    H133493   1.275   1.579   2.259  0.7698  0.1799  0.3214
 4026TIP3    H233494   1.358   1.623   2.140  0.7732  1.3558  0.7422
 4027TIP3   OH233495   0.511   5.454  14.126  0.1002  0.2527 -0.1850
 4027TIP3    H133496   0.483   5.490  14.042  0.9276 -0.2272 -0.6783
 4027TIP3    H233497   0.437   5.468  14.185 -0.4793  0.5990 -0.9930
 4028TIP3   OH233498   6.309   2.332  14.081  0.7517 -0.1446  0.3104
 4028TIP3    H133499   6.305   2.264  14.148  0.3230 -0.2425  0.1940
 4028TIP3    H233500   6.311   2.284  13.998 -1.7119 -0.0502  0.1194
 4029TIP3   OH233501   1.234   4.582  10.630 -0.0130  0.5872 -0.9636
 4029TIP3    H133502   1.320   4.591  10.671 -0.3204 -0.9142  0.1011
 4029TIP3    H233503   1.209   4.491  10.645 -2.3493  1.2839 -0.1035
 4030TIP3   OH233504   4.403   0.516   2.261 -0.3353  0.3583 -0.0568
 4030TIP3    H133505   4.358   0.600   2.272 -0.7862 -0.0045  0.9540
 4030TIP3    H233506   4.333   0.451   2.258  0.0833 -0.3724  2.9573
 4031TIP3   OH233507   2.220   0.144  13.987 -0.1067  0.6770 -0.0359
 4031TIP3    H133508   2.300   0.095  14.006  0.1601  1.2874  0.4443
 4031TIP3    H233509   2.157   0.077  13.960  0.2904  0.0892  0.4696
 4032TIP3   OH233510   3.203   0.420  15.338 -0.1490 -0.2813 -0.3736
 4032TIP3    H133511   3.124   0.415  15.285 -0.1792  0.1767 -0.3771
 4032TIP3    H233512   3.182   0.369  15.416 -0.1229 -0.9092 -0.7743
 4033TIP3   OH233513   5.828   4.952  11.606 -0.0316 -0.7382 -0.0904
 4033TIP3    H133514   5.779   4.870  11.609 -0.7285 -0.4138 -1.7283
 4033TIP3    H233515   5.817   4.984  11.516 -0.2519  1.4421  0.6563
 4034TIP3   OH233516   3.572   2.209  10.860  0.1482 -0.3610 -0.0767
 4034TIP3    H133517   3.503   2.164  10.812  0.0397  1.6126 -1.9396
 4034TIP3    H233518   3.624   2.253  10.792  2.1332 -0.2663  1.3917
 4035TIP3   OH233519   5.235   4.814  16.177 -0.0584 -0.3982 -0.0966
 4035TIP3    H133520   5.310   4.756  16.165  1.1162  0.8235  0.9073
 4035TIP3    H233521   5.200   4.790  16.263  0.8549  0.7719  0.6346
 4036TIP3   OH233522   0.802   5.553  14.071  0.3044 -0.4759 -0.2065
 4036TIP3    H133523   0.810   5.645  14.048  1.2380 -0.5005 -0.0230
 4036TIP3    H233524   0.711   5.543  14.100 -0.0030  0.2203 -0.9051
 4037TIP3   OH233525   1.426   1.166  13.038  0.4818 -0.3115 -0.3579
 4037TIP3    H133526   1.446   1.092  13.094 -0.1855 -0.2109  0.0222
 4037TIP3    H233527   1.415   1.129  12.950 -1.4649 -0.9221  0.0953
 4038TIP3   OH233528   1.430   6.239  17.036  0.3526 -0.0827 -0.3706
 4038TIP3    H133529   1.525   6.250  17.034  0.4467 -0.8443 -0.3705
 4038TIP3    H233530   1.413   6.199  17.121  0.1954 -1.3038 -0.9537
 4039TIP3   OH233531   1.340   4.571  15.216 -0.3203  0.3731 -0.2270
 4039TIP3    H133532   1.399   4.645  15.231  0.5117  0.3619 -2.8367
 4039TIP3    H233533   1.252   4.606  15.232  0.2304  1.0615  1.4455
 4040TIP3   OH233534   0.778   4.182  11.175  0.3284 -0.1897  0.1796
 4040TIP3    H133535   0.836   4.130  11.120  1.4380  0.4490  0.7155
 4040TIP3    H233536   0.801   4.273  11.155  1.0340  0.0503  1.9606
 4041TIP3   OH233537   4.796   3.562  10.951  0.1074  0.6578 -0.5030
 4041TIP3    H133538   4.820   3.505  11.024  0.3862  0.8604 -0.4310
 4041TIP3    H233539   4.851   3.640  10.963  0.7108  0.3857 -1.3450
 4042TIP3   OH233540   4.789   0.790  15.394  0.0616  0.3013 -0.3159
 4042TIP3    H133541   4.694   0.785  15.384 -0.2228 -1.0654  2.2604
 4042TIP3    H233542   4.823   0.734  15.324 -0.8830  1.6503 -1.9589
 4043TIP3   OH233543   3.367   4.204  13.745  0.5701 -0.5015  0.2899
 4043TIP3    H133544   3.409   4.165  13.821  1.1832 -0.0668  0.1850
 4043TIP3    H233545   3.311   4.273  13.781  0.2613 -0.8074  0.3991
 4044TIP3   OH233546   0.441   2.523   1.526 -0.0120  0.5654  0.3857
 4044TIP3    H133547   0.388   2.547   1.601 -1.8757 -0.5131 -0.5115
 4044TIP3    H233548   0.406   2.439   1.497  0.8566  0.7867 -1.4816
 4045TIP3   OH233549   6.498   0.157  11.333  0.2059  0.3146  0.2421
 4045TIP3    H133550   6.569   0.110  11.289  1.6865  2.1822  0.5085
 4045TIP3    H233551   6.543   0.220  11.389 -1.6771  0.4417  1.7038
 4046TIP3   OH233552   0.267   0.255  11.040 -0.0167 -0.4606 -0.5838
 4046TIP3    H133553   0.272   0.351  11.046 -0.2044 -0.4121 -1.1713
 4046TIP3    H233554   0.177   0.234  11.067  0.7661 -0.7068  2.1989
 4047TIP3   OH233555   4.981   5.755   0.427 -0.1457  0.4856  0.5576
 4047TIP3    H133556   5.053   5.790   0.480  1.5790 -1.5575 -0.3093
 4047TIP3    H233557   4.983   5.661   0.443 -1.6215  0.1988 -0.7468
 4048TIP3   OH233558   3.285   2.289   3.881  0.2985  0.3392 -0.2926
 4048TIP3    H133559   3.213   2.236   3.847  0.6513  0.3853 -1.1316
 4048TIP3    H233560   3.357   2.227   3.892 -0.0184  0.1778  1.0975
 4049TIP3   OH233561   5.205   5.882  16.136  0.3285  0.2952 -0.3881
 4049TIP3    H133562   5.175   5.959  16.185  0.2170  0.8369 -1.2797
 4049TIP3    H233563   5.138   5.868  16.069  0.2192 -0.7455 -0.0744
 4050TIP3   OH233564   5.399   5.695  13.695 -0.7092  0.7430  0.0520
 4050TIP3    H133565   5.377   5.606  13.670 -0.3664  0.8743 -0.7577
 4050TIP3    H233566   5.348   5.711  13.775 -1.0780 -0.0327 -0.0191
 4051TIP3   OH233567   0.936   4.913  11.842 -0.0815  0.4566  0.0414
 4051TIP3    H133568   0.937   4.912  11.938  2.7540  0.5426  0.0927
 4051TIP3    H233569   0.961   5.002  11.819  2.8172 -0.4333 -0.6504
 4052TIP3   OH233570   5.018   1.181   3.216 -0.6621  0.1211  0.5735
 4052TIP3    H133571   4.958   1.255   3.231  0.0031  0.6893  0.4902
 4052TIP3    H233572   5.049   1.193   3.126 -0.6700 -0.3478  0.5093
 4053TIP3   OH233573   5.622   0.381   0.622  0.3492  0.8116 -0.0745
 4053TIP3    H133574   5.597   0.289   0.608  0.5323  0.3816  2.1012
 4053TIP3    H233575   5.539   0.429   0.616  0.0098  0.2882  0.2980
 4054TIP3   OH233576   4.546   2.875   2.588 -0.7049  0.2739  0.1963
 4054TIP3    H133577   4.527   2.940   2.521  1.5483 -0.7236 -1.5282
 4054TIP3    H233578   4.609   2.919   2.646  1.2680 -0.4368 -1.2940
 4055TIP3   OH233579   3.289   0.682  11.906 -0.2051 -0.4631 -0.4125
 4055TIP3    H133580   3.265   0.761  11.857 -1.2200 -0.3864  0.1784
 4055TIP3    H233581   3.235   0.686  11.985  0.1381 -1.4735 -0.1173
 4056TIP3   OH233582   1.758   4.790  13.424  0.2392 -0.0348  0.4597
 4056TIP3    H133583   1.816   4.723  13.462  1.1488 -0.7139 -1.9268
 4056TIP3    H233584   1.671   4.752  13.430  0.5789 -0.8428  0.4163
 4057TIP3   OH233585   5.703   1.040  13.062  0.3847 -0.1886  0.2840
 4057TIP3    H133586   5.743   1.081  12.986  1.6241  2.9071  2.3973
 4057TIP3    H233587   5.609   1.041  13.044  0.7311 -1.5100 -1.9903
 4058TIP3   OH233588   0.557   4.558  13.680 -0.3145  0.9093  0.4207
 4058TIP3    H133589   0.501   4.634  13.664 -1.4789  0.0896  0.5513
 4058TIP3    H233590   0.579   4.564  13.774  0.7307  1.8110  0.1499
 4059TIP3   OH233591   1.334   0.632   0.226  0.7968  0.0740  0.0672
 4059TIP3    H133592   1.253   0.657   0.270  0.5977 -0.8727  0.2519
 4059TIP3    H233593   1.316   0.546   0.189  1.7333 -0.1694  0.1454
 4060TIP3   OH233594   5.152   0.311   2.703  0.1161 -0.5147 -0.4605
 4060TIP3    H133595   5.109   0.275   2.780 -0.8560  1.0095 -0.2526
 4060TIP3    H233596   5.085   0.365   2.661  1.5227  1.2040 -0.6168
 4061TIP3   OH233597   3.218   0.883  15.701  0.1364  0.3822  0.2764
 4061TIP3    H133598   3.296   0.869  15.647  0.5695 -0.7001  1.1247
 4061TIP3    H233599   3.151   0.913  15.641  0.2065 -2.0498 -1.1432
 4062TIP3   OH233600   5.949   2.378   6.212 -0.1780  0.2416 -0.3284
 4062TIP3    H133601   6.033   2.347   6.245 -0.7954 -1.4408 -0.2329
 4062TIP3    H233602   5.933   2.459   6.259  1.0977  0.2698  0.0991
 4063TIP3   OH233603   2.591   3.059  13.569 -0.1286  0.3848 -0.1670
 4063TIP3    H133604   2.650   3.065  13.644  1.0062 -2.4575 -0.7208
 4063TIP3    H233605   2.518   3.006  13.600  0.0338 -0.2582 -0.8396
 4064TIP3   OH233606   5.576   2.295   3.383 -0.3237  0.4013  0.0288
 4064TIP3    H133607   5.532   2.267   3.303  0.4556  1.0638 -0.6511
 4064TIP3    H233608   5.542   2.382   3.400 -0.7720  0.1118  0.6423
 4065TIP3   OH233609   5.878   6.130  15.188 -0.2328 -0.0510  0.0036
 4065TIP3    H133610   5.955   6.161  15.141 -1.0478 -0.9701 -2.0374
 4065TIP3    H233611   5.826   6.208  15.205 -0.4087  0.2006 -1.5923
 4066TIP3   OH233612   3.506   4.120  13.967  0.1640  0.1139  0.1220
 4066TIP3    H133613   3.594   4.153  13.986  1.1792 -1.9373 -0.6415
 4066TIP3    H233614   3.499   4.039  14.017 -1.4689  0.4129  0.4489
 4067TIP3   OH233615   5.864   2.380   1.144 -0.1270  0.1699 -0.2800
 4067TIP3    H133616   5.954   2.358   1.118 -0.1922  0.1374 -0.4799
 4067TIP3    H233617   5.864   2.371   1.240 -0.0598 -0.3566 -0.3233
 4068TIP3   OH233618   3.861   2.975  14.925 -0.1049 -0.0303  0.4025
 4068TIP3    H133619   3.859   2.927  15.008  0.9905  0.6259  0.8411
 4068TIP3    H233620   3.857   3.067  14.951  0.4040  0.1845 -0.2587
 4069TIP3   OH233621   3.301   4.428   0.795 -0.6190 -0.0292  0.2322
 4069TIP3    H133622   3.358   4.354   0.776  0.4989  1.1606 -1.3397
 4069TIP3    H233623   3.335   4.465   0.875 -1.0964 -1.0901  0.9520
 4070TIP3   OH233624   0.302   5.076  11.227 -0.5105  0.6347  1.0674
 4070TIP3    H133625   0.316   5.026  11.307  3.2249 -0.3339 -0.0330
 4070TIP3    H233626   0.354   5.032  11.160 -1.7111  2.6880 -1.4179
 4071TIP3   OH233627   6.157   5.906   4.353 -0.0279 -0.0454 -0.4734
 4071TIP3    H133628   6.113   5.845   4.412  2.0199 -0.8595  0.3150
 4071TIP3    H233629   6.145   5.870   4.266 -2.3892  0.7264 -0.5331
 4072TIP3   OH233630   3.194   5.722   2.786 -0.0812  0.2896  0.9888
 4072TIP3    H133631   3.114   5.773   2.799 -1.1471 -0.6789 -1.3566
 4072TIP3    H233632   3.182   5.646   2.842 -1.9208 -0.9626 -0.9519
 4073TIP3   OH233633   3.933   5.907  13.524  0.6528 -0.0755 -0.1011
 4073TIP3    H133634   3.858   5.850  13.511  2.0731 -1.6057 -2.2955
 4073TIP3    H233635   3.913   5.987  13.476  0.1154 -0.1325  0.0289
 4074TIP3   OH233636   3.741   5.422  14.940  0.1119  0.6488  0.0390
 4074TIP3    H133637   3.782   5.468  14.867 -1.1678  0.5163 -0.8087
 4074TIP3    H233638   3.709   5.340  14.902  0.6634 -0.0800  1.0899
 4075TIP3   OH233639   2.802   2.726   1.299 -0.2238 -0.3080 -0.2440
 4075TIP3    H133640   2.727   2.774   1.265  0.3844  0.0649 -1.0788
 4075TIP3    H233641   2.876   2.784   1.285  0.0611 -0.1084  1.7749
 4076TIP3   OH233642   5.990   4.788  11.914  0.3089  0.3978  0.3982
 4076TIP3    H133643   6.080   4.821  11.921 -0.5311  2.9735  0.1867
 4076TIP3    H233644   5.999   4.702  11.873  2.6734  0.5191  0.5298
 4077TIP3   OH233645   3.350   1.841  11.693 -0.1816  0.1988  0.0031
 4077TIP3    H133646   3.392   1.892  11.623  0.9938 -0.4363  0.2154
 4077TIP3    H233647   3.265   1.816  11.657  1.4846 -2.6137 -2.4457
 4078TIP3   OH233648   5.114   6.661  14.681 -0.6082  0.1347  0.1091
 4078TIP3    H133649   5.051   6.702  14.740 -0.1146  0.2764  0.5410
 4078TIP3    H233650   5.172   6.610  14.738  1.0851  1.8282 -0.0111
 4079TIP3   OH233651   5.556   1.683   6.146 -0.4866  0.6189 -0.1196
 4079TIP3    H133652   5.594   1.616   6.202 -1.2491 -0.2061 -0.5756
 4079TIP3    H233653   5.561   1.763   6.199 -0.2787  0.0574  0.7376
 4080TIP3   OH233654   3.812   5.389  12.830 -0.0816 -0.7740  0.3733
 4080TIP3    H133655   3.846   5.301  12.813 -0.7748 -0.9844  0.0371
 4080TIP3    H233656   3.861   5.419  12.907 -0.0336 -1.5612  0.6612
 4081TIP3   OH233657   4.438   5.930  15.844  0.3064  0.0112  0.4307
 4081TIP3    H133658   4.469   5.981  15.918 -0.1765  0.2660  0.4636
 4081TIP3    H233659   4.512   5.926  15.784  0.8011 -0.4436  1.0514
 4082TIP3   OH233660   0.254   5.912  16.232 -0.3247  0.3487  0.1868
 4082TIP3    H133661   0.267   5.834  16.286  0.7176 -0.0353 -0.6054
 4082TIP3    H233662   0.160   5.912  16.214 -0.3847 -0.5637  0.4273
 4083TIP3   OH233663   4.191   1.052   2.489 -0.4585  0.1834 -0.7336
 4083TIP3    H133664   4.196   0.992   2.414 -0.9868  0.8710 -1.3301
 4083TIP3    H233665   4.119   1.111   2.468 -0.5622  0.4398  0.2876
 4084TIP3   OH233666   0.957   1.203  16.909 -0.5077 -0.9663 -0.2959
 4084TIP3    H133667   0.864   1.214  16.930 -0.4913  1.0952 -1.1073
 4084TIP3    H233668   0.981   1.120  16.951 -2.3658 -0.8788  1.0877
 4085TIP3   OH233669   3.069   3.559   0.810  0.1439 -0.3985 -0.5946
 4085TIP3    H133670   3.027   3.644   0.790 -0.0189 -0.5109 -0.7404
 4085TIP3    H233671   3.162   3.575   0.798  0.0166 -0.6351 -2.1927
 4086TIP3   OH233672   5.985   0.395   3.303  0.7934  0.5379 -0.0041
 4086TIP3    H133673   6.064   0.406   3.356  3.0719  0.3910 -3.1024
 4086TIP3    H233674   5.967   0.301   3.305  1.2175  0.4563  0.0640
 4087TIP3   OH233675   0.890   1.160   1.588  0.0488 -0.1822 -0.5008
 4087TIP3    H133676   0.799   1.140   1.611 -0.2665  2.2464  0.6446
 4087TIP3    H233677   0.886   1.245   1.544  1.7043 -0.4028 -1.1759
 4088TIP3   OH233678   6.655   0.504   0.015 -0.2977 -0.2817 -0.3930
 4088TIP3    H133679   6.597   0.574   0.046 -0.8354  0.5396 -3.0478
 4088TIP3    H233680   6.733   0.513   0.069 -1.0913  1.1306  0.6186
 4089TIP3   OH233681   1.973   5.539  17.077 -0.0562  0.2874  0.3812
 4089TIP3    H133682   1.928   5.511  17.157  0.5564  1.2673  1.0966
 4089TIP3    H233683   2.064   5.512  17.091  0.4316  2.0520  0.8392
 4090TIP3   OH233684   4.684   1.200   4.121 -0.1258 -0.1010 -0.2693
 4090TIP3    H133685   4.717   1.266   4.061 -0.9078  1.2316  0.6908
 4090TIP3    H233686   4.682   1.244   4.206 -1.5199 -1.0593  0.2421
 4091TIP3   OH233687   3.150   0.820   6.243  0.4922 -0.0830 -0.2430
 4091TIP3    H133688   3.073   0.806   6.297 -1.6606  1.8467 -2.5686
 4091TIP3    H233689   3.217   0.851   6.304 -0.6069 -1.5072  1.7982
 4092TIP3   OH233690   4.094   0.484   4.057 -0.5172 -0.4877  0.0604
 4092TIP3    H133691   4.113   0.406   4.004  0.4748 -0.1911 -0.0372
 4092TIP3    H233692   4.151   0.475   4.133  3.1226  2.2692 -1.9813
 4093TIP3   OH233693   5.276   4.852   1.312 -0.4254 -0.0323 -0.5811
 4093TIP3    H133694   5.338   4.910   1.355  0.6463 -0.9704 -0.8235
 4093TIP3    H233695   5.300   4.855   1.219 -0.7005 -0.4492 -0.6694
 4094TIP3   OH233696   1.094   1.824   3.936  1.0867 -0.1046 -0.1826
 4094TIP3    H133697   1.012   1.777   3.954  0.9128  0.2258 -0.1037
 4094TIP3    H233698   1.140   1.826   4.020  0.7235  0.5731  0.0093
 4095TIP3   OH233699   1.711   1.432   4.706  0.5103  0.2666 -0.0363
 4095TIP3    H133700   1.640   1.418   4.769 -0.2203 -0.0655 -0.8896
 4095TIP3    H233701   1.730   1.344   4.672  1.4133  0.3411  0.2632
 4096TIP3   OH233702   4.221   2.770   3.212  0.1168  0.4922  0.3462
 4096TIP3    H133703   4.223   2.744   3.120 -0.6461  2.0511 -0.1465
 4096TIP3    H233704   4.287   2.715   3.254  1.2631  0.5284 -1.3299
 4097TIP3   OH233705   5.744   2.935  13.374 -0.0958 -0.1639  0.0668
 4097TIP3    H133706   5.780   2.916  13.288  1.6789  2.2460  0.1850
 4097TIP3    H233707   5.649   2.939  13.361  0.2117  1.3964 -2.0613
 4098TIP3   OH233708   5.052   6.351  12.981 -0.2150 -0.2819  0.0462
 4098TIP3    H133709   5.103   6.274  13.007 -0.4058 -0.1501  0.8660
 4098TIP3    H233710   4.962   6.330  13.008 -0.8962 -1.0517 -2.5346
 4099TIP3   OH233711   4.824   5.539   4.899 -0.5192  0.6768  0.2424
 4099TIP3    H133712   4.813   5.446   4.876  0.2111  0.4147  0.9087
 4099TIP3    H233713   4.790   5.545   4.989 -0.5999  1.0634  0.1852
 4100TIP3   OH233714   1.436   3.318  11.565 -0.6972  0.7548  0.4935
 4100TIP3    H133715   1.347   3.353  11.560 -0.9040  0.0540 -1.8263
 4100TIP3    H233716   1.424   3.223  11.572 -0.1030  0.7230  1.2864
 4101TIP3   OH233717   5.361   2.772  14.506  0.7040  0.1462 -0.3472
 4101TIP3    H133718   5.343   2.853  14.553  0.1463 -0.5663  0.6866
 4101TIP3    H233719   5.456   2.773  14.492  1.0956 -0.1900  1.8950
 4102TIP3   OH233720   5.777   4.249   6.376 -0.2862  0.2182 -0.0057
 4102TIP3    H133721   5.820   4.215   6.297  0.2799 -0.6432  0.6451
 4102TIP3    H233722   5.806   4.190   6.445 -2.3967 -0.3084  0.5078
 4103TIP3   OH233723   6.630   5.639   0.959 -0.3711  0.9363 -0.3715
 4103TIP3    H133724   6.628   5.703   0.887  2.3029  0.6934 -0.7477
 4103TIP3    H233725   6.713   5.655   1.003  0.0463 -1.7614 -0.0213
 4104TIP3   OH233726   2.771   6.561   3.179  0.2725  0.4856  0.2222
 4104TIP3    H133727   2.864   6.587   3.177  0.3886  0.1963  1.3085
 4104TIP3    H233728   2.759   6.523   3.266 -0.6818 -0.1976 -0.2008
 4105TIP3   OH233729   0.500   4.319  15.379  0.1751  0.1646  0.9327
 4105TIP3    H133730   0.463   4.329  15.291 -1.8069  2.2950  1.8926
 4105TIP3    H233731   0.471   4.233  15.407 -2.4885  0.9386  0.8510
 4106TIP3   OH233732   4.645   6.133   1.689  0.1241 -0.4943  0.4230
 4106TIP3    H133733   4.663   6.042   1.666  3.3287  0.2633 -0.6575
 4106TIP3    H233734   4.579   6.161   1.625 -0.5212 -1.8758  0.4442
 4107TIP3   OH233735   0.309   3.646  15.939  0.5100  0.1871  0.1640
 4107TIP3    H133736   0.259   3.595  15.875  1.1095  0.2800 -0.3848
 4107TIP3    H233737   0.245   3.668  16.007  0.2561 -1.3202  0.4379
 4108TIP3   OH233738   0.891   1.099   2.208  0.2496 -0.3342  0.2357
 4108TIP3    H133739   0.914   1.192   2.208  0.2083 -0.3216  1.2281
 4108TIP3    H233740   0.968   1.056   2.172 -0.5954  0.2630 -2.5480
 4109TIP3   OH233741   0.013   1.468   1.810  0.0745  0.0986  0.1715
 4109TIP3    H133742   0.062   1.474   1.892 -0.3693  1.1883  0.3705
 4109TIP3    H233743  -0.059   1.530   1.820 -0.4347 -0.3239 -0.7414
 4110TIP3   OH233744   3.635   0.075   4.381  0.1576 -0.8282 -0.1051
 4110TIP3    H133745   3.632   0.134   4.306  0.6537  0.7638  1.0761
 4110TIP3    H233746   3.705   0.013   4.360  1.8720  1.0009 -0.0111
 4111TIP3   OH233747   4.462   1.686  13.864 -0.2500 -0.2050  0.8293
 4111TIP3    H133748   4.376   1.648  13.883  0.0027 -2.3204 -1.6962
 4111TIP3    H233749   4.443   1.771  13.825 -1.3087 -1.0101 -0.4991
 4112TIP3   OH233750   6.661   1.722  14.516 -0.0856 -0.3077  0.5438
 4112TIP3    H133751   6.578   1.768  14.518  0.7641  1.3131 -0.1403
 4112TIP3    H233752   6.720   1.775  14.569  1.4881  0.6346 -1.9604
 4113TIP3   OH233753   0.846   4.404   5.236 -0.4033 -0.4386  0.1770
 4113TIP3    H133754   0.895   4.324   5.218  0.6222  0.0152  0.8405
 4113TIP3    H233755   0.798   4.385   5.317 -0.7094 -0.6064 -0.0391
 4114TIP3   OH233756   1.504   4.974   3.376 -0.3120 -0.9433  0.0968
 4114TIP3    H133757   1.577   5.017   3.331 -0.7030 -0.9362 -0.5431
 4114TIP3    H233758   1.436   5.042   3.381 -0.7892 -1.3594 -0.5705
 4115TIP3   OH233759   5.534   0.736   3.785 -0.3577  0.3436 -0.2845
 4115TIP3    H133760   5.561   0.814   3.834  0.1583 -1.2885  2.1811
 4115TIP3    H233761   5.604   0.673   3.800 -1.7677 -1.3168 -0.3869
 4116TIP3   OH233762   3.633   4.600   0.509  0.2965 -0.3351  0.7702
 4116TIP3    H133763   3.705   4.620   0.570  2.1506 -1.6990 -0.8140
 4116TIP3    H233764   3.641   4.506   0.494 -0.3140 -0.0986 -1.2952
 4117TIP3   OH233765   3.499   5.285   5.347 -0.0480  0.6432 -0.4520
 4117TIP3    H133766   3.451   5.242   5.276  0.9581  0.3846 -1.0048
 4117TIP3    H233767   3.511   5.375   5.318  0.3349  0.5461 -0.6070
 4118TIP3   OH233768   6.119   1.209  11.454  0.5058 -0.0775  0.4571
 4118TIP3    H133769   6.127   1.192  11.360  0.1834 -1.0914  0.5958
 4118TIP3    H233770   6.026   1.227  11.468  0.5316 -0.0467  0.5911
 4119TIP3   OH233771   6.137   0.714  11.673 -0.0087  0.0399 -0.5913
 4119TIP3    H133772   6.176   0.725  11.760  0.3842  0.4098 -0.8097
 4119TIP3    H233773   6.044   0.731  11.686 -0.0052 -0.2483 -0.1762
 4120TIP3   OH233774   0.686   0.276   4.017  0.4859 -0.0102  0.3787
 4120TIP3    H133775   0.766   0.229   4.038 -0.1733 -1.1820  0.3152
 4120TIP3    H233776   0.636   0.278   4.100  1.1224  1.8818  0.7805
 4121TIP3   OH233777   5.053   5.398   3.433  0.1863 -0.1874 -0.3581
 4121TIP3    H133778   5.080   5.307   3.449  0.8335  0.0783  0.1433
 4121TIP3    H233779   5.126   5.450   3.467 -0.3433  0.5308 -0.3014
 4122TIP3   OH233780   6.114   6.337  11.349  0.4501 -0.4438  0.2629
 4122TIP3    H133781   6.206   6.334  11.324  0.9250 -1.0118  1.9641
 4122TIP3    H233782   6.087   6.245  11.355 -1.1033 -0.3645 -2.9831
 4123TIP3   OH233783   3.041   5.934  12.302  0.1028 -0.0244  0.2444
 4123TIP3    H133784   3.082   5.865  12.354 -0.7951 -0.3856  0.5048
 4123TIP3    H233785   3.113   5.989  12.274  0.6491  0.0215  1.6528
 4124TIP3   OH233786   4.490   5.597   2.565 -0.0113 -0.3898  0.2024
 4124TIP3    H133787   4.505   5.554   2.481 -1.0348  1.2446 -0.8864
 4124TIP3    H233788   4.577   5.626   2.593  0.4068 -1.4215 -0.0201
 4125TIP3   OH233789   5.226   4.385  14.781  0.3431  0.0162 -0.3324
 4125TIP3    H133790   5.170   4.311  14.804  0.3881 -0.1958 -0.8829
 4125TIP3    H233791   5.295   4.346  14.726 -0.2453  0.6286 -1.5600
 4126TIP3   OH233792   2.829   0.173   4.265  0.4140  0.3740  0.1568
 4126TIP3    H133793   2.906   0.201   4.216 -0.1234  0.9543 -0.3714
 4126TIP3    H233794   2.765   0.149   4.198 -0.8295  2.4980  0.5039
 4127TIP3   OH233795   1.706   6.502   6.207  0.1403 -0.1899  0.5832
 4127TIP3    H133796   1.614   6.479   6.215 -0.2192  1.2844  0.9847
 4127TIP3    H233797   1.752   6.444   6.268 -0.1384 -2.7835 -1.4778
 4128TIP3   OH233798   4.938   6.431   0.735  0.2052 -0.1351  0.1237
 4128TIP3    H133799   5.021   6.388   0.754 -0.2403 -1.0838 -0.0199
 4128TIP3    H233800   4.960   6.498   0.670  1.3150  1.4884  2.0459
 4129TIP3   OH233801   6.364   5.348  12.301  0.2374 -0.1990 -1.0056
 4129TIP3    H133802   6.351   5.430  12.347 -0.6656 -0.3306 -1.0066
 4129TIP3    H233803   6.329   5.364  12.213 -2.3373 -1.3131 -0.2804
 4130TIP3   OH233804   2.332   3.941  16.816 -0.0621  0.0155 -0.0149
 4130TIP3    H133805   2.427   3.930  16.820  0.4257  3.5796  1.4743
 4130TIP3    H233806   2.311   3.941  16.722  1.6397  0.7301 -0.4149
 4131TIP3   OH233807   4.591   1.705  15.181  0.5723 -0.7734  0.4321
 4131TIP3    H133808   4.594   1.609  15.181  1.7287 -0.7511  1.2095
 4131TIP3    H233809   4.683   1.732  15.187  0.3906  0.4047 -1.2297
 4132TIP3   OH233810   0.166   0.376   6.121  0.1098 -0.6076 -0.0680
 4132TIP3    H133811   0.112   0.455   6.122 -0.4567 -0.9416 -1.5860
 4132TIP3    H233812   0.118   0.314   6.066 -0.0236 -2.4672  2.0093
 4133TIP3   OH233813   0.172   1.868  10.535 -0.7191 -0.4652  0.3185
 4133TIP3    H133814   0.139   1.797  10.479 -0.0788  1.0018 -2.0825
 4133TIP3    H233815   0.262   1.842  10.555 -0.4505 -0.3098 -0.6421
 4134TIP3   OH233816   0.096   6.492  12.232  0.4762  0.3265  0.1173
 4134TIP3    H133817   0.176   6.520  12.186 -0.3764 -0.5799 -2.0576
 4134TIP3    H233818   0.028   6.495  12.164 -1.5352  1.7548  2.0566
 4135TIP3   OH233819   1.835   6.703  11.009 -0.2594 -0.0775 -0.4612
 4135TIP3    H133820   1.805   6.626  10.960 -1.4664 -0.5800  0.9573
 4135TIP3    H233821   1.755   6.740  11.045  0.5175  0.6109  0.6157
 4136TIP3   OH233822   5.905   3.104   0.856  0.0088 -1.0464 -0.1323
 4136TIP3    H133823   5.878   3.097   0.948 -0.3182  1.0880 -0.0226
 4136TIP3    H233824   5.838   3.157   0.815  3.4266  4.1817  0.0667
 4137TIP3   OH233825   1.866   5.217   5.347 -0.0376  0.1369  0.0406
 4137TIP3    H133826   1.916   5.237   5.268  0.5396 -1.0834  0.0609
 4137TIP3    H233827   1.805   5.290   5.357 -1.7218 -0.7316 -2.8059
 4138TIP3   OH233828   2.521   0.721   0.193  0.2231  0.6124 -0.0544
 4138TIP3    H133829   2.562   0.807   0.196 -1.6612  1.5935 -0.9019
 4138TIP3    H233830   2.508   0.704   0.099 -1.7349  0.5978  0.1835
 4139TIP3   OH233831   4.032   1.896  15.397 -0.1587  0.1373 -0.3094
 4139TIP3    H133832   4.075   1.951  15.464  0.7499  0.4098 -1.0927
 4139TIP3    H233833   4.089   1.820  15.390 -0.8182 -0.3861 -0.0344
 4140TIP3   OH233834   2.747   2.057  16.327  0.2738  0.1256  0.1962
 4140TIP3    H133835   2.692   1.983  16.353  2.8643 -2.0820 -0.1143
 4140TIP3    H233836   2.743   2.117  16.402 -2.7910  0.3335 -0.0005
 4141TIP3   OH233837   3.735   4.803  14.897  0.0433 -0.1480 -0.0267
 4141TIP3    H133838   3.662   4.865  14.892  1.6147  1.9301  1.2713
 4141TIP3    H233839   3.761   4.802  14.989  2.2306 -0.0636 -0.5768
 4142TIP3   OH233840   2.248   5.175   4.187  0.1980  0.1712 -0.2356
 4142TIP3    H133841   2.195   5.252   4.164 -1.8702 -0.8602  0.7257
 4142TIP3    H233842   2.337   5.198   4.162 -0.7063  1.9691 -2.1277
 4143TIP3   OH233843   0.818   5.238   0.363 -0.3210 -0.9181 -0.0322
 4143TIP3    H133844   0.795   5.300   0.294 -1.6338 -1.0017  0.2931
 4143TIP3    H233845   0.913   5.244   0.370 -0.4881  2.5261  1.3437
 4144TIP3   OH233846   5.247   2.672   0.451  0.2189 -0.0710  0.0478
 4144TIP3    H133847   5.277   2.638   0.535  0.8457  0.6599  0.1332
 4144TIP3    H233848   5.221   2.594   0.401 -0.8439 -0.4488  1.1619
 4145TIP3   OH233849   0.458   6.249  11.770  0.0991  0.5103  0.0523
 4145TIP3    H133850   0.430   6.298  11.692 -0.2477  2.2330  1.2063
 4145TIP3    H233851   0.553   6.265  11.775  0.5212 -1.2612 -1.0766
 4146TIP3   OH233852   3.449   6.520   3.393 -0.6538 -0.4384 -0.0837
 4146TIP3    H133853   3.394   6.451   3.357 -0.6930  0.6437 -2.2369
 4146TIP3    H233854   3.494   6.558   3.318  0.5058  0.9059  1.2118
 4147TIP3   OH233855   0.892   1.195  12.143  0.1650 -0.1286 -0.6588
 4147TIP3    H133856   0.832   1.210  12.217  1.0481  0.3154 -0.0233
 4147TIP3    H233857   0.979   1.215  12.177  0.5203  0.8702 -2.0549
 4148TIP3   OH233858   1.041   0.945  17.030 -0.2586  0.1401 -0.2412
 4148TIP3    H133859   1.081   0.913  16.949  0.2322  1.1408 -0.4058
 4148TIP3    H233860   1.081   0.891  17.099  0.5695  0.4012 -0.5084
 4149TIP3   OH233861   4.830   0.267   2.198  0.1406  0.2993  0.0231
 4149TIP3    H133862   4.740   0.294   2.181 -0.5608 -2.1935 -0.7514
 4149TIP3    H233863   4.880   0.298   2.122 -0.5709 -0.3001 -0.7089
 4150TIP3   OH233864   4.356   0.765   1.074  0.3574 -0.0375  0.5070
 4150TIP3    H133865   4.385   0.826   1.142 -1.2603  1.3554  0.0423
 4150TIP3    H233866   4.321   0.690   1.121  2.2263 -0.5784  1.1033
 4151TIP3   OH233867   0.442   1.777   2.264 -0.1469  0.0180  0.4873
 4151TIP3    H133868   0.430   1.685   2.289 -0.2170  0.2003  1.1612
 4151TIP3    H233869   0.531   1.797   2.293 -0.2020  0.2131  0.5213
 4152TIP3   OH233870   2.192   4.437   4.787 -0.0029  0.4322  0.3746
 4152TIP3    H133871   2.252   4.409   4.855  0.8778 -0.2923 -0.6774
 4152TIP3    H233872   2.229   4.519   4.754  0.0262  0.3475  0.1963
 4153TIP3   OH233873   2.002   3.885   1.328 -0.1632 -0.4941 -0.0661
 4153TIP3    H133874   1.944   3.948   1.371  0.3066  1.0882 -1.6414
 4153TIP3    H233875   1.949   3.845   1.260  0.2581  0.1328 -0.7735
 4154TIP3   OH233876   1.880   4.575  16.581  0.1960  0.0334 -0.1189
 4154TIP3    H133877   1.827   4.654  16.576 -1.2060 -0.8713  0.0290
 4154TIP3    H233878   1.965   4.605  16.612 -0.7702  1.2711  1.4391
 4155TIP3   OH233879   5.304   0.985  12.662 -0.0556 -0.0521 -0.3525
 4155TIP3    H133880   5.319   0.905  12.613  1.1117 -0.1614  0.1594
 4155TIP3    H233881   5.377   1.042  12.639  0.8096 -0.2845  1.5624
 4156TIP3   OH233882   5.918   2.655   4.636  0.0335 -0.0987 -0.2176
 4156TIP3    H133883   5.941   2.636   4.728 -0.3388 -2.2612 -0.5119
 4156TIP3    H233884   5.824   2.637   4.631  0.2687 -1.1833 -1.2491
 4157TIP3   OH233885   5.521   0.930   4.211  0.0185 -0.0377  0.1114
 4157TIP3    H133886   5.448   0.876   4.180 -0.0577  0.7058 -1.0398
 4157TIP3    H233887   5.514   0.927   4.306 -0.6118 -1.1897  0.0503
 4158TIP3   OH233888   4.061   2.794  15.364 -0.2770 -0.2495  0.0093
 4158TIP3    H133889   4.060   2.739  15.286 -1.4381  1.7142 -1.4527
 4158TIP3    H233890   3.977   2.778  15.406 -1.0293  1.0333 -0.9402
 4159TIP3   OH233891   2.604   6.575  14.982 -0.4810  0.1115 -0.2168
 4159TIP3    H133892   2.562   6.531  15.056  0.0601 -0.4642 -0.2421
 4159TIP3    H233893   2.641   6.655  15.020 -1.6642  0.6808 -0.2178
 4160TIP3   OH233894   0.491   6.131  13.079  0.3525 -0.4263 -0.3725
 4160TIP3    H133895   0.468   6.223  13.094  0.9683  0.0730 -2.2900
 4160TIP3    H233896   0.581   6.133  13.048 -0.5036 -1.3732 -3.1800
 4161TIP3   OH233897   3.444   4.369  12.311 -0.0324 -0.4734 -0.0136
 4161TIP3    H133898   3.410   4.280  12.311  0.8737 -0.8231 -0.8352
 4161TIP3    H233899   3.436   4.399  12.221 -0.0181  0.1663  0.1853
 4162TIP3   OH233900   2.779   6.292   2.069 -0.3293  0.0556  0.1022
 4162TIP3    H133901   2.836   6.312   2.143  0.6493 -1.2733 -0.2572
 4162TIP3    H233902   2.766   6.197   2.073 -3.8465  0.4298  1.0820
 4163TIP3   OH233903   2.455   2.309  17.165 -0.0857  1.0250  0.2882
 4163TIP3    H133904   2.482   2.302  17.257  1.8240  1.9854 -0.1547
 4163TIP3    H233905   2.367   2.345  17.169 -0.2688  0.5007  1.7577
 4164TIP3   OH233906   5.483   3.639   0.694 -0.5755  0.1161  0.2496
 4164TIP3    H133907   5.423   3.712   0.708 -1.5898 -0.4106 -1.1256
 4164TIP3    H233908   5.482   3.625   0.599  2.1396  0.4009  0.0857
 4165TIP3   OH233909   4.315   2.115  15.192  0.0497  0.4560  0.1232
 4165TIP3    H133910   4.313   2.210  15.184  2.6930  0.4861 -1.3224
 4165TIP3    H233911   4.356   2.099  15.277  0.2962  0.6292  0.0381
 4166TIP3   OH233912   3.549   1.570  13.400 -0.5100  0.8701 -0.0203
 4166TIP3    H133913   3.498   1.496  13.366 -2.3774  1.6995  0.8716
 4166TIP3    H233914   3.605   1.595  13.326  0.8708 -1.9458 -0.0906
 4167TIP3   OH233915   1.430   5.276  15.538  0.1748  0.7260  0.4518
 4167TIP3    H133916   1.503   5.221  15.509 -0.5592  0.5062 -1.1166
 4167TIP3    H233917   1.399   5.234  15.618  0.4549 -0.4111 -0.0133
 4168TIP3   OH233918   6.427   2.254  12.308  0.3706 -0.6796 -0.4347
 4168TIP3    H133919   6.500   2.203  12.343  1.1941  1.2322  0.7698
 4168TIP3    H233920   6.378   2.282  12.385 -0.9953 -0.9842 -1.1720
 4169TIP3   OH233921   1.892   3.451  13.543  0.2586 -0.3395  0.1912
 4169TIP3    H133922   1.889   3.384  13.611  0.4203 -0.1621  0.3762
 4169TIP3    H233923   1.910   3.532  13.590  1.2063 -0.3385 -0.1352
 4170TIP3   OH233924   0.026   6.472  16.105 -0.6446 -0.3150  0.0895
 4170TIP3    H133925   0.109   6.505  16.069  0.5090 -2.0412  1.0395
 4170TIP3    H233926   0.001   6.401  16.047 -0.8157 -0.5897  0.4937
 4171TIP3   OH233927   6.721   5.481   2.441  0.0379 -0.6535  0.5906
 4171TIP3    H133928   6.772   5.438   2.510  0.5832 -0.9313  0.0241
 4171TIP3    H233929   6.673   5.410   2.399  2.8620 -1.2415 -2.0212
 4172TIP3   OH233930   4.214   2.127   0.849 -0.2745  0.1474 -0.3352
 4172TIP3    H133931   4.240   2.075   0.925 -0.7454  2.5951  1.6207
 4172TIP3    H233932   4.296   2.141   0.801  0.0262 -1.4536 -0.3542
 4173TIP3   OH233933   1.531   3.441  16.596  0.4698  0.0346  0.2394
 4173TIP3    H133934   1.450   3.458  16.547  0.2025  0.7526  0.8894
 4173TIP3    H233935   1.505   3.379  16.664  0.5857 -0.1176  0.1463
 4174TIP3   OH233936   5.242   2.376  12.491  0.1578 -0.1337 -0.1842
 4174TIP3    H133937   5.223   2.438  12.421 -0.6741  0.6003  0.6739
 4174TIP3    H233938   5.320   2.329  12.460  0.4887  0.9551 -1.0897
 4175TIP3   OH233939   6.632   5.516  12.008  0.3335 -0.0672  0.3597
 4175TIP3    H133940   6.539   5.536  12.023 -0.1993 -1.6624 -0.5043
 4175TIP3    H233941   6.630   5.438  11.952  2.1595  1.3860 -1.9522
 4176TIP3   OH233942   1.592   0.876   4.617 -0.5829  0.1810  0.3272
 4176TIP3    H133943   1.567   0.881   4.525  2.7559 -0.9197 -0.7814
 4176TIP3    H233944   1.521   0.826   4.659 -1.9458  0.3172 -1.7078
 4177TIP3   OH233945   5.882   1.786   0.851 -0.4680 -0.0364 -0.0192
 4177TIP3    H133946   5.851   1.806   0.939  1.0809 -0.9437  0.7555
 4177TIP3    H233947   5.837   1.851   0.795 -0.6351  1.2653  1.5495
 4178TIP3   OH233948   1.582   2.769  14.087 -0.2745  0.6966 -0.3047
 4178TIP3    H133949   1.556   2.856  14.056 -0.6047  0.4695 -0.6659
 4178TIP3    H233950   1.512   2.711  14.059 -0.0230  0.2986 -0.1217
 4179TIP3   OH233951   0.192   0.897  14.313  0.4982 -0.1776  0.2916
 4179TIP3    H133952   0.102   0.928  14.314  0.1972 -1.0241  0.8007
 4179TIP3    H233953   0.225   0.917  14.400 -0.1146 -2.3567  1.0990
 4180TIP3   OH233954   4.546   5.062  16.253 -0.2105 -0.4802  0.3427
 4180TIP3    H133955   4.479   5.130  16.254 -0.1996 -0.4763  1.1867
 4180TIP3    H233956   4.511   4.993  16.309  0.1289 -0.8362  0.1204
 4181TIP3   OH233957   2.745   3.223   1.478  0.0683  0.3543  0.2400
 4181TIP3    H133958   2.776   3.141   1.517 -1.8362 -0.4182  0.2518
 4181TIP3    H233959   2.700   3.268   1.549 -0.5161  0.5188 -0.2235
 4182TIP3   OH233960   3.044   6.604  14.879  0.5983  0.3188 -0.3518
 4182TIP3    H133961   3.074   6.687  14.917 -0.6021  0.4689  0.3378
 4182TIP3    H233962   3.040   6.545  14.954  0.8281 -0.1781 -0.7318
 4183TIP3   OH233963   5.014   5.545  16.922 -0.0742 -0.1487 -0.5502
 4183TIP3    H133964   4.933   5.564  16.970  0.2037 -0.7162  0.1625
 4183TIP3    H233965   5.066   5.625  16.930  1.0707 -1.0580  2.3864
 4184TIP3   OH233966   1.126   2.727   5.073 -0.4620  0.2077  0.1224
 4184TIP3    H133967   1.143   2.655   5.133  0.9395 -0.3452 -0.8908
 4184TIP3    H233968   1.077   2.791   5.125  1.1149 -0.0278  1.9909
 4185TIP3   OH233969   1.178   3.501  17.161  0.3132 -0.3536  0.2168
 4185TIP3    H133970   1.120   3.435  17.122 -1.2609  0.9344  0.2414
 4185TIP3    H233971   1.160   3.580  17.111 -0.3006  0.8597  2.2584
 4186TIP3   OH233972   5.059   4.247  12.551  0.0468  0.2207  0.2598
 4186TIP3    H133973   5.028   4.170  12.599 -2.1705 -0.5155 -2.1010
 4186TIP3    H233974   5.152   4.230  12.536 -0.1475 -1.4722  0.7504
 4187TIP3   OH233975   4.363   6.426  12.654 -0.2677  0.2643  0.4907
 4187TIP3    H133976   4.341   6.516  12.680 -0.6253 -0.1153  1.5444
 4187TIP3    H233977   4.443   6.435  12.602 -1.2146  1.3575 -0.8427
 4188TIP3   OH233978   4.394   2.170  12.893  0.4418  0.5366  0.3349
 4188TIP3    H133979   4.320   2.197  12.948  0.5518  1.5433  0.0107
 4188TIP3    H233980   4.456   2.243  12.898  2.4159 -1.1371  2.2862
 4189TIP3   OH233981   2.482   0.362  14.384  0.0976  0.1312 -0.6991
 4189TIP3    H133982   2.443   0.341  14.299  0.5533  0.8304 -1.0939
 4189TIP3    H233983   2.560   0.413  14.362 -0.0640  0.7648  0.1559
 4190TIP3   OH233984   6.746   0.521   1.133  0.4480 -0.5882 -0.0722
 4190TIP3    H133985   6.651   0.530   1.147  0.7078 -0.1863  1.7019
 4190TIP3    H233986   6.757   0.526   1.038 -1.1509  0.9755 -0.2269
 4191TIP3   OH233987   1.326   4.434  15.834  0.2974 -0.3835  0.4763
 4191TIP3    H133988   1.314   4.355  15.781 -0.0899 -0.0474  0.0557
 4191TIP3    H233989   1.282   4.414  15.916 -1.5876  0.1274 -0.3573
 4192TIP3   OH233990   5.571   0.625  15.379  0.4488 -0.3021  0.0118
 4192TIP3    H133991   5.606   0.660  15.297 -0.0209  0.6250  0.1894
 4192TIP3    H233992   5.478   0.650  15.377  0.9686  2.1666  2.0372
 4193TIP3   OH233993   6.006   6.108  11.993 -0.2326 -0.2888  0.4011
 4193TIP3    H133994   5.990   6.025  12.038 -1.1491  0.2074  1.0302
 4193TIP3    H233995   5.984   6.175  12.057  0.4530  0.4531 -0.1125
 4194TIP3   OH233996   0.251   2.359  12.794  0.2235 -0.2996 -0.9638
 4194TIP3    H133997   0.179   2.307  12.831  1.7502 -1.0977  1.0465
 4194TIP3    H233998   0.330   2.309  12.815  1.5657  1.6791 -1.0820
 4195TIP3   OH233999   3.767   0.744  10.867  0.1134 -0.0236  0.0690
 4195TIP3    H134000   3.847   0.722  10.914  0.7731 -0.2342 -1.1185
 4195TIP3    H234001   3.750   0.667  10.812 -1.0817 -0.1111  0.5336
 4196TIP3   OH234002   1.692   1.701   4.627  0.1946  0.3941  0.5682
 4196TIP3    H134003   1.709   1.609   4.645 -0.2870 -0.0477 -1.0643
 4196TIP3    H234004   1.750   1.722   4.554 -0.1330  1.2194  0.5340
 4197TIP3   OH234005   6.262   5.349   0.633 -0.5264  0.2160  0.2727
 4197TIP3    H134006   6.298   5.267   0.667 -0.3825  0.3752  0.5065
 4197TIP3    H234007   6.215   5.387   0.707 -0.2391  0.5481  0.2913
 4198TIP3   OH234008   0.552   4.178   1.949 -0.0545  0.5508 -0.6375
 4198TIP3    H134009   0.476   4.186   2.006  0.3788  3.4154 -0.2941
 4198TIP3    H234010   0.614   4.125   1.998 -0.6545  0.8502  0.4731
 4199TIP3   OH234011   6.162   5.661   3.340 -0.3543  0.0665  0.4773
 4199TIP3    H134012   6.134   5.631   3.254  0.2248  0.6130  0.0949
 4199TIP3    H234013   6.084   5.702   3.378 -0.4787  0.2491  0.0246
 4200TIP3   OH234014   3.676   4.891  13.797  0.3011  0.0756 -0.4226
 4200TIP3    H134015   3.687   4.942  13.877 -0.1561 -0.6615  0.1205
 4200TIP3    H234016   3.762   4.853  13.780  0.5117  0.6012 -0.5405
 4201TIP3   OH234017   5.295   5.499   3.227 -0.4146 -0.1043 -0.4552
 4201TIP3    H134018   5.296   5.504   3.132 -0.7637  1.9188 -0.4033
 4201TIP3    H234019   5.223   5.556   3.254 -1.3089 -1.8192  1.0058
 4202TIP3   OH234020   5.499   0.185  13.678  0.2659 -0.4406  0.0276
 4202TIP3    H134021   5.533   0.144  13.598  0.1515 -1.3388  0.4207
 4202TIP3    H234022   5.531   0.130  13.749 -0.0005  0.0916  0.5725
 4203TIP3   OH234023   1.932   3.646  12.121  0.5982 -0.3277 -0.1031
 4203TIP3    H134024   2.005   3.593  12.155  0.1669 -0.8257  0.0667
 4203TIP3    H234025   1.940   3.639  12.026 -1.3523 -3.5008 -0.1898
 4204TIP3   OH234026   0.457   2.166  12.801 -0.2618 -0.2716 -0.0233
 4204TIP3    H134027   0.541   2.207  12.821  1.0322 -2.4994 -0.5692
 4204TIP3    H234028   0.456   2.086  12.853 -1.8719 -0.5075 -0.3606
 4205TIP3   OH234029   5.549   1.395  11.595 -0.0216  0.0571  0.0541
 4205TIP3    H134030   5.548   1.463  11.529 -0.1678  1.2727  1.2611
 4205TIP3    H234031   5.468   1.409  11.646  1.1425  0.6030  1.8561
 4206TIP3   OH234032   4.620   1.168  12.138 -0.3381 -0.0433 -0.3444
 4206TIP3    H134033   4.606   1.132  12.225  1.8475 -0.8082 -0.2385
 4206TIP3    H234034   4.577   1.254  12.140 -0.0198  0.1254  1.6205
 4207TIP3   OH234035   4.261   3.457  13.467  0.4150 -0.2046 -0.1290
 4207TIP3    H134036   4.237   3.369  13.495  0.7064  0.1251  1.2281
 4207TIP3    H234037   4.336   3.480  13.522 -0.5945  1.4569  0.6574
 4208TIP3   OH234038   1.816   0.158  14.198  0.1798  0.3816 -0.5661
 4208TIP3    H134039   1.894   0.104  14.207 -0.9236 -1.1186  0.5521
 4208TIP3    H234040   1.774   0.127  14.118 -0.3907 -0.3889  0.0121
 4209TIP3   OH234041   2.300   5.493  11.480 -0.5202 -0.7046  0.3068
 4209TIP3    H134042   2.380   5.529  11.441  0.4223 -1.7575  1.2085
 4209TIP3    H234043   2.230   5.550  11.447  0.7082  0.9537  0.4088
 4210TIP3   OH234044   2.521   5.526   1.464 -0.1764  0.3310  0.1197
 4210TIP3    H134045   2.455   5.594   1.447  0.5221  1.0456  0.2400
 4210TIP3    H234046   2.470   5.445   1.468 -1.3845  1.1193  2.5088
 4211TIP3   OH234047   4.809   3.430   0.455  0.0746 -0.0853  0.3637
 4211TIP3    H134048   4.842   3.519   0.441  0.5511  0.3103  3.2293
 4211TIP3    H234049   4.743   3.440   0.524  1.0550 -2.0740  1.6852
 4212TIP3   OH234050   5.870   3.064  12.473  0.2083  0.3439 -0.3637
 4212TIP3    H134051   5.891   3.154  12.450  3.1430  0.8106  3.1496
 4212TIP3    H234052   5.777   3.065  12.496  0.0667  2.3082 -0.9125
 4213TIP3   OH234053   6.291   1.629  12.873 -0.3350  0.1512 -0.2766
 4213TIP3    H134054   6.377   1.657  12.906 -0.3265 -1.0072  0.7406
 4213TIP3    H234055   6.311   1.575  12.797 -0.0713 -1.0545  0.6217
 4214TIP3   OH234056   1.069   6.591  15.967  0.2654 -0.0761  0.0399
 4214TIP3    H134057   1.045   6.683  15.957  1.7934  0.7849  3.0622
 4214TIP3    H234058   0.990   6.549  15.999  0.5822  1.1383  2.6375
 4215TIP3   OH234059   4.391   3.387  15.894 -0.0545  0.6121  0.2329
 4215TIP3    H134060   4.384   3.478  15.865 -0.2520  0.0212 -1.6527
 4215TIP3    H234061   4.388   3.335  15.814 -0.8225 -1.1222  1.3207
 4216TIP3   OH234062   4.295   3.649  14.591 -0.3215 -0.0920 -0.6624
 4216TIP3    H134063   4.302   3.718  14.657  0.3802 -2.4365  1.9268
 4216TIP3    H234064   4.220   3.675  14.537  0.3753  3.0074 -0.3242
 4217TIP3   OH234065   3.737   1.941   5.845 -0.1682  0.1151 -0.2030
 4217TIP3    H134066   3.827   1.969   5.833 -0.5005  1.4998  0.4300
 4217TIP3    H234067   3.744   1.853   5.883  0.9155  0.4148  0.3134
 4218TIP3   OH234068   1.984   2.757  16.467 -0.0344 -0.2165 -0.1740
 4218TIP3    H134069   1.890   2.767  16.451 -0.0419 -0.7851 -0.5007
 4218TIP3    H234070   2.024   2.773  16.382  0.3121  1.8156  0.3281
 4219TIP3   OH234071   4.687   4.661  11.261 -0.4411  0.2288 -0.9460
 4219TIP3    H134072   4.680   4.566  11.254  0.0819  0.0445  0.6309
 4219TIP3    H234073   4.702   4.678  11.354 -0.8479  1.8850 -1.1370
 4220TIP3   OH234074   1.754   4.832  14.670  0.6273  0.3003  1.0011
 4220TIP3    H134075   1.692   4.765  14.639  1.5931  0.2968 -1.1318
 4220TIP3    H234076   1.819   4.783  14.721  1.6918 -0.5973 -1.0829
 4221TIP3   OH234077   1.848   1.240   3.879  0.0704  0.4494  0.2036
 4221TIP3    H134078   1.858   1.194   3.963 -1.7735  0.2320  0.3427
 4221TIP3    H234079   1.791   1.314   3.899  1.4293  1.7046 -0.4307
 4222TIP3   OH234080   4.514   0.635  14.350 -0.3964  0.3398  0.2738
 4222TIP3    H134081   4.602   0.632  14.313 -0.6487 -2.3053 -0.2649
 4222TIP3    H234082   4.459   0.663  14.277  0.0430  3.0787  0.8896
 4223TIP3   OH234083   3.615   6.789  13.287 -0.2007 -0.3250  0.8385
 4223TIP3    H134084   3.691   6.778  13.229 -0.6351  1.0467 -0.0430
 4223TIP3    H234085   3.654   6.806  13.373  0.5271  0.4565  0.3800
 4224TIP3   OH234086   6.051   3.921  14.468  0.3641 -0.3300  0.1691
 4224TIP3    H134087   6.026   4.007  14.502  0.3138 -0.9603  1.8204
 4224TIP3    H234088   6.001   3.912  14.387 -1.5435  0.1997  1.2256
 4225TIP3   OH234089   0.338   4.962  15.862 -0.1944  0.0449 -0.0451
 4225TIP3    H134090   0.349   4.880  15.911 -1.0669  0.5493  1.0509
 4225TIP3    H234091   0.317   4.934  15.773  1.3373 -0.8992 -0.1465
 4226TIP3   OH234092   4.779   2.894  16.771 -0.5044  0.1511 -0.5253
 4226TIP3    H134093   4.734   2.966  16.726  0.1729  0.9248 -0.0016
 4226TIP3    H234094   4.744   2.896  16.860  0.8177  1.0278  0.0051
 4227TIP3   OH234095   0.667   3.125  16.606  0.0318  0.2464 -0.5193
 4227TIP3    H134096   0.583   3.119  16.561 -0.0201 -0.2830 -0.3581
 4227TIP3    H234097   0.680   3.038  16.644  0.5756  0.3752 -0.4072
 4228TIP3   OH234098   0.949   2.745  15.300 -0.2405  0.4496  0.2270
 4228TIP3    H134099   1.001   2.730  15.221  2.1998  2.0564  1.3994
 4228TIP3    H234100   0.916   2.834  15.291  0.4989  0.8419  1.2102
 4229TIP3   OH234101   0.249   6.082  15.987 -0.3304 -0.1337  0.6857
 4229TIP3    H134102   0.155   6.065  15.992 -0.3954 -0.1104 -0.3446
 4229TIP3    H234103   0.286   6.003  15.947  0.1403 -0.2791  1.3742
 4230TIP3   OH234104   3.671   3.592   4.370 -0.1571 -0.2065 -0.2633
 4230TIP3    H134105   3.650   3.657   4.438  0.5201  0.3108 -0.5346
 4230TIP3    H234106   3.652   3.638   4.288 -5.5677 -2.2790 -0.5722
 4231TIP3   OH234107   6.082   4.660  15.849  0.1362  0.1512 -0.1425
 4231TIP3    H134108   6.152   4.671  15.785 -1.3570  0.4148 -1.7881
 4231TIP3    H234109   6.076   4.566  15.863  2.0200  0.1916  1.4851
 4232TIP3   OH234110   1.224   0.681  13.126 -0.2576 -0.1879  0.4101
 4232TIP3    H134111   1.191   0.766  13.096  0.1409  0.3994  1.5812
 4232TIP3    H234112   1.296   0.702  13.185  0.9201 -1.3956 -0.5276
 4233TIP3   OH234113   1.128   4.533   2.741 -0.0124  0.2329 -0.8402
 4233TIP3    H134114   1.173   4.597   2.795 -1.8623 -0.4954  1.7548
 4233TIP3    H234115   1.184   4.455   2.744 -0.1681  0.1543  0.1879
 4234TIP3   OH234116   0.234   3.692  11.745 -0.1446  0.7140  0.4964
 4234TIP3    H134117   0.143   3.699  11.773 -0.3605  0.3077 -0.0776
 4234TIP3    H234118   0.240   3.749  11.668 -0.2785 -0.2985 -0.2969
 4235TIP3   OH234119   0.947   3.421  16.064 -0.2320  0.6738  0.3231
 4235TIP3    H134120   1.031   3.377  16.072  0.2205  1.2512 -0.9403
 4235TIP3    H234121   0.897   3.393  16.140  1.3072  0.7533  1.4066
 4236TIP3   OH234122   2.732   6.450  15.281  0.1694  0.3893  0.9006
 4236TIP3    H134123   2.703   6.375  15.333  1.6481 -1.0515 -0.2144
 4236TIP3    H234124   2.654   6.479  15.234  0.1770 -2.8494 -1.4448
 4237TIP3   OH234125   5.664   4.416   6.158 -0.4439 -0.4887 -0.7727
 4237TIP3    H134126   5.590   4.478   6.155 -0.6327 -0.7220 -1.0099
 4237TIP3    H234127   5.624   4.330   6.144 -0.4132 -0.8774  1.2381
 4238TIP3   OH234128   5.250   5.426  15.659  0.1783 -0.3221 -1.0425
 4238TIP3    H134129   5.243   5.515  15.625 -0.4915 -0.2434 -0.7061
 4238TIP3    H234130   5.160   5.400  15.678  0.2708 -1.4065 -1.9835
 4239TIP3   OH234131   6.369   0.716  14.187  0.6047  0.0042  0.5417
 4239TIP3    H134132   6.300   0.759  14.137  0.3647  0.8295  1.5351
 4239TIP3    H234133   6.384   0.633  14.142  1.5895  1.3858 -1.8968
 4240TIP3   OH234134   0.970   0.614  10.647  0.4923  0.3685  0.2266
 4240TIP3    H134135   0.984   0.683  10.713  2.3968 -0.2950  0.5648
 4240TIP3    H234136   1.003   0.652  10.566 -0.2943  0.5500 -0.0254
 4241TIP3   OH234137   3.551   1.133  15.097  0.1618 -0.2940  0.2396
 4241TIP3    H134138   3.573   1.188  15.022  0.0143 -0.6473 -0.0628
 4241TIP3    H234139   3.475   1.175  15.137  1.7329  1.3427  1.7036
 4242TIP3   OH234140   5.576   5.473   5.449 -1.0307 -0.2637 -0.1588
 4242TIP3    H134141   5.645   5.452   5.386 -0.3343  0.2677  0.4230
 4242TIP3    H234142   5.598   5.560   5.481 -1.6926 -0.2983  0.4087
 4243TIP3   OH234143   3.763   5.159  15.279  0.7702  0.0222  0.2330
 4243TIP3    H134144   3.805   5.171  15.364 -1.4523  2.7754  1.1039
 4243TIP3    H234145   3.718   5.074  15.286  2.4419 -0.8424  0.9120
 4244TIP3   OH234146   6.573   2.252  11.392 -0.6501 -0.9211  0.0975
 4244TIP3    H134147   6.523   2.332  11.410 -0.8953 -1.3214  1.2568
 4244TIP3    H234148   6.636   2.247  11.463  0.4678 -0.9033 -0.8662
 4245TIP3   OH234149   6.023   3.388   3.082 -0.1142 -0.1181  0.3934
 4245TIP3    H134150   5.991   3.339   3.007  0.3788  0.1737 -0.0091
 4245TIP3    H234151   6.097   3.336   3.115 -0.0178  0.0066  0.3748
 4246TIP3   OH234152   1.968   0.188   2.343 -0.4170 -0.7081 -0.3788
 4246TIP3    H134153   2.050   0.232   2.366 -0.5917 -0.6736  0.1977
 4246TIP3    H234154   1.995   0.099   2.319 -0.0938 -0.3791 -1.2815
 4247TIP3   OH234155   0.569   0.765  13.125 -0.1836  0.0667 -0.5878
 4247TIP3    H134156   0.659   0.787  13.101  0.0508 -1.0766 -0.7857
 4247TIP3    H234157   0.544   0.696  13.064 -1.4620  0.8757 -1.0168
 4248TIP3   OH234158   4.051   2.402  12.499 -0.3761 -0.0937 -0.5498
 4248TIP3    H134159   4.036   2.492  12.468  0.2572 -0.3116 -1.5419
 4248TIP3    H234160   4.103   2.361  12.429 -2.6897 -1.9809 -1.2993
 4249TIP3   OH234161   4.431   1.650   4.402 -0.3189  0.0004 -0.7993
 4249TIP3    H134162   4.383   1.569   4.415  0.1424 -0.2225 -0.4641
 4249TIP3    H234163   4.475   1.639   4.318  0.9856 -0.7415 -0.0547
 4250TIP3   OH234164   3.507   3.631   0.036  0.0808  0.1983 -0.3467
 4250TIP3    H134165   3.515   3.649  -0.058  0.7456 -0.8892 -0.5120
 4250TIP3    H234166   3.576   3.567   0.054 -0.7970 -0.5119  0.6277
 4251TIP3   OH234167   2.277   1.426   0.043  0.0285  0.1293 -0.2339
 4251TIP3    H134168   2.354   1.443   0.097 -1.6225 -0.8400  2.6689
 4251TIP3    H234169   2.260   1.333   0.054 -0.2872 -0.1641 -2.7123
 4252TIP3   OH234170   5.516   0.663  13.764  0.1997  0.3328 -0.0845
 4252TIP3    H134171   5.492   0.755  13.772  1.0326  0.4486  1.4319
 4252TIP3    H234172   5.432   0.618  13.750 -0.7781  0.9315  3.1175
 4253TIP3   OH234173   4.639   5.615   0.196  0.4179  0.1487  0.8342
 4253TIP3    H134174   4.662   5.530   0.159  0.7615  0.7795 -0.4500
 4253TIP3    H234175   4.569   5.596   0.258 -0.6936 -0.9086 -0.6530
 4254TIP3   OH234176   5.023   4.075   0.206  0.1031  0.6829 -0.6958
 4254TIP3    H134177   4.931   4.052   0.202  0.0799  0.6608 -0.1441
 4254TIP3    H234178   5.023   4.168   0.229  0.2162  0.0632  2.1046
 4255TIP3   OH234179   2.251   5.450   4.857  0.1070  0.5227 -0.9248
 4255TIP3    H134180   2.212   5.433   4.771 -2.3513 -1.4277  0.4453
 4255TIP3    H234181   2.177   5.472   4.913  1.5580  1.0092  0.8704
 4256TIP3   OH234182   0.140   0.644   3.476 -0.0086  0.7824 -0.2240
 4256TIP3    H134183   0.106   0.644   3.386  0.8829 -0.4102 -0.5987
 4256TIP3    H234184   0.095   0.571   3.518  1.6665 -0.5402 -0.6022
 4257TIP3   OH234185   6.432   1.450   0.292 -0.4727 -0.5488 -0.2139
 4257TIP3    H134186   6.396   1.361   0.290  0.0563 -0.7522 -1.1716
 4257TIP3    H234187   6.496   1.451   0.221  1.7377 -0.3398  1.6560
 4258TIP3   OH234188   5.612   1.277  16.199  0.1482 -0.5137  0.4416
 4258TIP3    H134189   5.546   1.296  16.132  0.8938  3.4131  0.5842
 4258TIP3    H234190   5.666   1.209  16.160 -0.2309  0.6894 -2.4619
 4259TIP3   OH234191   5.230   2.818  16.368 -0.0499  0.4835 -0.8095
 4259TIP3    H134192   5.305   2.825  16.310 -0.4673 -0.3769 -1.4605
 4259TIP3    H234193   5.268   2.803  16.455  0.5094 -0.9620 -1.2914
 4260TIP3   OH234194   6.163   2.898   3.836 -0.2373  0.5014  0.3380
 4260TIP3    H134195   6.156   2.876   3.929  2.2053  0.0436  0.4699
 4260TIP3    H234196   6.135   2.990   3.830 -2.2390  0.0065  1.1558
 4261TIP3   OH234197   2.191   2.150  14.277 -0.3402  0.2646  0.4158
 4261TIP3    H134198   2.186   2.147  14.181 -0.4964 -3.0142  0.4140
 4261TIP3    H234199   2.277   2.188  14.295 -0.2842  0.8745 -1.0344
 4262TIP3   OH234200   0.407   0.284  15.053 -0.1344 -0.3983 -0.1494
 4262TIP3    H134201   0.407   0.223  15.127  0.4268 -0.4018 -0.1495
 4262TIP3    H234202   0.493   0.326  15.056 -0.5176  0.4075 -0.1418
 4263TIP3   OH234203   2.514   5.231  11.339  0.5170 -0.2007  0.0502
 4263TIP3    H134204   2.497   5.193  11.253  2.0233  0.5691 -0.6342
 4263TIP3    H234205   2.432   5.272  11.365  0.1674 -0.0871 -1.2135
 4264TIP3   OH234206   6.680   4.241  16.441 -0.1426 -0.0484 -0.1537
 4264TIP3    H134207   6.756   4.296  16.464 -0.5616 -0.1685  1.6349
 4264TIP3    H234208   6.606   4.302  16.442 -0.3707 -0.3319  0.1864
 4265TIP3   OH234209   1.041   1.028  13.696 -0.7949 -0.3265 -0.3507
 4265TIP3    H134210   0.994   0.953  13.660  0.8211 -0.3037 -2.6868
 4265TIP3    H234211   1.007   1.103  13.647  2.1171 -0.4050 -2.7440
 4266TIP3   OH234212   4.139   4.553  16.056  0.7264  0.3922  0.8456
 4266TIP3    H134213   4.217   4.586  16.101  0.8210 -0.8088  1.5878
 4266TIP3    H234214   4.172   4.487  15.995  0.4295  0.9044  0.1100
 4267TIP3   OH234215   2.887   5.534  16.600 -0.0427 -0.6402  0.1837
 4267TIP3    H134216   2.841   5.529  16.516  1.2269 -0.5213 -0.5420
 4267TIP3    H234217   2.948   5.607  16.589  0.9217 -1.3380  0.8134
 4268TIP3   OH234218   5.301   5.494  15.943 -0.3619  0.3280  0.5223
 4268TIP3    H134219   5.324   5.409  15.980  1.4075  0.3249 -0.4893
 4268TIP3    H234220   5.290   5.477  15.849 -1.9140  0.8880  0.5616
 4269TIP3   OH234221   2.671   2.204   1.981  0.5821  0.0763 -0.2756
 4269TIP3    H134222   2.600   2.219   2.043  0.1018 -0.0613 -0.7872
 4269TIP3    H234223   2.708   2.119   2.007  0.6331  0.2016  0.0613
 4270TIP3   OH234224   6.477   6.084  11.461  0.5142 -0.3992 -0.0171
 4270TIP3    H134225   6.570   6.107  11.454  0.7090 -0.8126  1.0206
 4270TIP3    H234226   6.451   6.115  11.547 -0.8281  1.3667 -1.0011
 4271TIP3   OH234227   6.495   1.663   0.040  0.0541  0.2360 -0.1808
 4271TIP3    H134228   6.410   1.698   0.067 -0.4587 -1.8691  1.1638
 4271TIP3    H234229   6.559   1.718   0.085 -0.6038  1.1649 -0.3501
 4272TIP3   OH234230   5.562   6.501   3.169 -0.5267 -0.4897  0.0254
 4272TIP3    H134231   5.504   6.535   3.238  0.4296  1.6698 -0.1419
 4272TIP3    H234232   5.568   6.407   3.187 -3.9164 -0.8366  0.1284
 4273TIP3   OH234233   5.309   4.791  11.049  0.5286 -0.0267  0.4593
 4273TIP3    H134234   5.292   4.873  11.002 -1.8560 -1.8027 -2.1577
 4273TIP3    H234235   5.398   4.766  11.023  1.0260  1.3546  0.7495
 4274TIP3   OH234236   4.829   5.606   6.186 -0.0932 -0.5715  0.6062
 4274TIP3    H134237   4.735   5.617   6.195 -0.1147 -2.2208  4.0492
 4274TIP3    H234238   4.852   5.542   6.254  3.5457  0.0099  0.1146
 4275TIP3   OH234239   3.600   1.385  11.952  0.5311  0.8258  0.3280
 4275TIP3    H134240   3.665   1.377  11.882 -0.4543  0.6656 -0.5794
 4275TIP3    H234241   3.519   1.407  11.908 -0.4189 -0.5860  1.2785
 4276TIP3   OH234242   3.387   6.672  12.398 -0.7221  0.1996 -0.2382
 4276TIP3    H134243   3.482   6.685  12.388 -0.6229  0.0957  0.5342
 4276TIP3    H234244   3.348   6.749  12.358 -0.2401  1.4109  1.4909
 4277TIP3   OH234245   2.607   4.148  14.728  0.2574 -0.1375  0.5503
 4277TIP3    H134246   2.619   4.065  14.776  0.1990 -1.5368 -1.7143
 4277TIP3    H234247   2.651   4.134  14.644 -1.1319  1.5464 -0.5334
 4278TIP3   OH234248   5.645   4.435   2.011  0.1952  0.6650  0.5386
 4278TIP3    H134249   5.578   4.492   1.972  0.0475 -0.5627 -1.0930
 4278TIP3    H234250   5.704   4.415   1.939  0.6351 -0.6786  1.2526
 4279TIP3   OH234251   2.630   5.515  11.915  0.1359  0.7653  0.2585
 4279TIP3    H134252   2.685   5.575  11.965  1.5806  0.2910 -0.6777
 4279TIP3    H234253   2.655   5.428  11.947  1.3129  0.4314 -1.4153
 4280TIP3   OH234254   5.261   5.806   0.540 -0.3837 -0.0207  0.0194
 4280TIP3    H134255   5.320   5.764   0.477 -1.7663  3.3342 -3.9530
 4280TIP3    H234256   5.314   5.875   0.580 -0.9224  1.9005 -2.3175
 4281TIP3   OH234257   2.513   1.904   1.831 -0.1572  0.3171 -0.2066
 4281TIP3    H134258   2.429   1.927   1.871 -0.1172 -1.7501  1.2044
 4281TIP3    H234259   2.577   1.912   1.902  0.5189  0.0002 -0.7653
 4282TIP3   OH234260   0.666   4.161   0.572 -0.5849  0.1110 -0.1371
 4282TIP3    H134261   0.699   4.235   0.623 -2.5577  0.0226  1.3620
 4282TIP3    H234262   0.744   4.110   0.551  0.5325  1.2990  0.9622
 4283TIP3   OH234263   1.034   2.184  11.414  0.2893 -0.6051  0.0313
 4283TIP3    H134264   0.981   2.212  11.340 -0.1708 -0.0468  0.5722
 4283TIP3    H234265   1.013   2.091  11.425 -1.0102 -0.2661  0.5921
 4284TIP3   OH234266   2.997   6.404  10.810  0.0420 -0.2644  0.2754
 4284TIP3    H134267   3.026   6.339  10.747 -0.4963 -0.6197  0.3873
 4284TIP3    H234268   2.962   6.353  10.883 -1.1950  0.1250 -0.0139
 4285TIP3   OH234269   3.989   3.428   1.292  0.3838  0.3199  0.6114
 4285TIP3    H134270   3.898   3.400   1.284 -0.3582  1.6496  3.1812
 4285TIP3    H234271   4.040   3.348   1.288 -0.7572 -0.3703 -1.8782
 4286TIP3   OH234272   6.360   6.311  11.262 -0.0398 -0.6809 -0.2817
 4286TIP3    H134273   6.390   6.396  11.295 -1.8683 -0.2131  0.3195
 4286TIP3    H234274   6.409   6.246  11.312 -0.8209  0.0340  1.4974
 4287TIP3   OH234275   5.151   0.055  12.238  0.7327 -0.9512  0.4048
 4287TIP3    H134276   5.225   0.082  12.293  0.4251 -1.5508  1.1269
 4287TIP3    H234277   5.090   0.129  12.243  0.3104 -1.3595  1.6066
 4288TIP3   OH234278   2.467   3.946   3.703 -0.1270 -0.4816  0.4166
 4288TIP3    H134279   2.443   4.035   3.730 -0.5541  0.7498 -3.4455
 4288TIP3    H234280   2.404   3.923   3.635  1.6246 -2.6488 -0.5964
 4289TIP3   OH234281   4.989   4.469   5.984  0.4120 -0.5023  0.2292
 4289TIP3    H134282   4.939   4.425   5.914  1.6420 -2.7972  0.6827
 4289TIP3    H234283   4.943   4.552   5.997 -1.7523 -1.3861 -1.1052
 4290TIP3   OH234284   6.662   6.270  15.985  0.3861 -0.0105 -0.3689
 4290TIP3    H134285   6.595   6.252  15.918 -1.2257 -1.0066  1.4204
 4290TIP3    H234286   6.719   6.193  15.983 -0.0200 -0.3177 -0.1856
 4291TIP3   OH234287   2.535   0.878   4.744  0.2711  0.2934  0.9371
 4291TIP3    H134288   2.479   0.887   4.821 -2.4673  1.7072 -1.0507
 4291TIP3    H234289   2.556   0.968   4.719  0.3256 -0.0794 -0.4711
 4292TIP3   OH234290   2.040   0.181   1.928 -0.0448  0.1729 -0.3489
 4292TIP3    H134291   1.967   0.217   1.876  0.3636  1.8263  0.1528
 4292TIP3    H234292   2.005   0.176   2.017  0.0385 -0.2994 -0.3441
 4293TIP3   OH234293   5.710   5.568   6.245  0.1168 -0.1840  0.1008
 4293TIP3    H134294   5.786   5.560   6.188  0.1013  0.2078  0.0252
 4293TIP3    H234295   5.652   5.629   6.200 -1.1058 -1.8949 -0.7908
 4294TIP3   OH234296   3.934   1.572  16.741 -0.3198  0.1048 -0.0025
 4294TIP3    H134297   3.932   1.619  16.824  2.8013  1.1209 -0.3685
 4294TIP3    H234298   3.943   1.640  16.674  0.2639 -0.8300 -0.9056
 4295TIP3   OH234299   2.998   5.965  15.098  0.4307 -0.8689 -0.3262
 4295TIP3    H134300   3.009   5.938  15.189  2.1158 -0.0714 -0.2507
 4295TIP3    H234301   3.087   5.983  15.067 -0.3546  3.8071 -0.5875
 4296TIP3   OH234302   3.814   4.036   3.369 -0.1554 -0.2078  0.1364
 4296TIP3    H134303   3.745   4.015   3.431  0.9070 -0.5652  1.2202
 4296TIP3    H234304   3.892   4.051   3.422  0.0359  2.9532 -0.8150
 4297TIP3   OH234305   2.249   0.201  11.202 -0.1154  0.6145 -0.6551
 4297TIP3    H134306   2.316   0.166  11.261 -0.8275 -2.0584 -1.2795
 4297TIP3    H234307   2.248   0.295  11.219  2.2610  0.4330  0.9090
 4298TIP3   OH234308   6.059   3.801  13.873  0.3820  0.4620  0.2063
 4298TIP3    H134309   6.059   3.784  13.779 -0.8697 -0.1651  0.3078
 4298TIP3    H234310   6.050   3.895  13.880 -2.2097  0.3237 -0.3167
 4299TIP3   OH234311   1.241   1.299  15.392 -0.2380 -0.7254  0.0848
 4299TIP3    H134312   1.160   1.305  15.443  0.8503  0.4893  1.7396
 4299TIP3    H234313   1.304   1.353  15.439  1.2160 -0.6106 -1.8476
 4300TIP3   OH234314   2.453   4.729   3.260 -0.2590  0.0054 -0.0629
 4300TIP3    H134315   2.475   4.676   3.337  0.2281  0.1009 -0.1348
 4300TIP3    H234316   2.414   4.809   3.297  0.1182  0.1187  0.0906
 4301TIP3   OH234317   3.540   4.426   1.005 -0.2167  0.2720  0.4777
 4301TIP3    H134318   3.532   4.424   1.101  0.8444  2.1275  0.6480
 4301TIP3    H234319   3.613   4.486   0.989 -0.0083 -0.4539 -1.4934
 4302TIP3   OH234320   6.175   3.986   3.170  0.3712  0.1741 -0.3232
 4302TIP3    H134321   6.155   3.892   3.175 -0.9710  0.2141 -3.0819
 4302TIP3    H234322   6.251   3.997   3.227  1.4167 -2.8654 -0.9341
 4303TIP3   OH234323   1.065   0.562   4.719 -0.3052 -0.2979  0.1521
 4303TIP3    H134324   1.071   0.475   4.759 -0.0666  0.0557  0.8860
 4303TIP3    H234325   1.003   0.610   4.774 -0.7481 -0.1245 -0.4860
 4304TIP3   OH234326   1.882   4.926   4.554 -0.5986  0.6965 -0.3310
 4304TIP3    H134327   1.939   4.954   4.483 -0.9258 -0.2279 -0.9673
 4304TIP3    H234328   1.942   4.902   4.625 -0.2631  1.2172 -0.4305
 4305TIP3   OH234329   1.048   4.872   5.621  0.3360  0.8023  0.0309
 4305TIP3    H134330   1.123   4.812   5.616 -0.0077  0.4331 -0.9096
 4305TIP3    H234331   0.973   4.815   5.639 -0.3228  0.6209 -2.8348
 4306TIP3   OH234332   5.944   2.416  16.954 -0.2976  0.1838  0.2560
 4306TIP3    H134333   5.979   2.336  16.914 -0.7401 -0.3043  0.8380
 4306TIP3    H234334   5.909   2.465  16.880  1.0892  0.4300 -0.2775
 4307TIP3   OH234335   2.748   4.892   1.551  0.0299 -0.2270 -0.5780
 4307TIP3    H134336   2.840   4.886   1.575 -0.0905  1.9244  0.6884
 4307TIP3    H234337   2.745   4.956   1.481 -0.5116 -0.1642 -0.5068
 4308TIP3   OH234338   0.920   0.960   3.456  0.2495  0.0651  0.0707
 4308TIP3    H134339   0.858   0.968   3.383  1.7156 -1.4418 -1.4451
 4308TIP3    H234340   0.937   0.866   3.462  1.2830  0.3168  1.4239
 4309TIP3   OH234341   5.508   3.212   4.415  0.0404  0.4932  0.0025
 4309TIP3    H134342   5.432   3.229   4.360  0.1912 -1.4534 -0.8792
 4309TIP3    H234343   5.478   3.229   4.504 -1.5685 -0.6399 -0.2902
 4310TIP3   OH234344   4.019   6.302  14.478  0.2333  0.1040  0.1241
 4310TIP3    H134345   4.010   6.361  14.554  0.3784  1.9678 -1.2417
 4310TIP3    H234346   3.969   6.345  14.409  1.4496 -0.7262 -1.3081
 4311TIP3   OH234347   6.239   3.970  12.060  0.0734 -0.5307 -0.4164
 4311TIP3    H134348   6.327   3.933  12.050  0.7928  1.2741 -1.0373
 4311TIP3    H234349   6.246   4.060  12.029 -1.7564 -0.0015  0.5405
 4312TIP3   OH234350   2.614   3.951   0.460 -0.3564 -0.6180  0.3635
 4312TIP3    H134351   2.692   3.895   0.461 -0.0517 -0.2189 -0.1270
 4312TIP3    H234352   2.605   3.978   0.369 -0.4401  0.1924  0.5989
 4313TIP3   OH234353   5.167   3.376  17.038  0.1142 -0.4530 -0.3172
 4313TIP3    H134354   5.071   3.377  17.043  0.1587  0.6086  1.5316
 4313TIP3    H234355   5.195   3.428  17.114  2.1834 -1.7110 -0.1434
 4314TIP3   OH234356   6.120   1.918   4.838  0.4933  0.7055  0.4808
 4314TIP3    H134357   6.160   1.856   4.779 -2.0906  0.5811 -1.3274
 4314TIP3    H234358   6.124   2.002   4.792  0.9148  1.1968  1.3825
 4315TIP3   OH234359   5.590   6.077   0.286  0.1301 -0.3286  0.2134
 4315TIP3    H134360   5.531   6.004   0.267  1.2101 -1.1000 -0.2203
 4315TIP3    H234361   5.668   6.060   0.234  0.2756  1.3281 -0.1803
 4316TIP3   OH234362   1.924   6.770  10.634 -0.5390 -0.2165 -0.3881
 4316TIP3    H134363   2.014   6.804  10.640 -1.0915  1.3003 -0.3652
 4316TIP3    H234364   1.893   6.799  10.548 -1.3119  0.0232 -0.0305
 4317TIP3   OH234365   4.250   6.742   4.988  0.5487  0.3794 -0.0600
 4317TIP3    H134366   4.328   6.728   4.934  1.3291  0.1798  1.0933
 4317TIP3    H234367   4.177   6.716   4.932  1.3089  0.4619 -1.1183
 4318TIP3   OH234368   5.258   3.359   0.995  0.6767  0.4508 -0.7138
 4318TIP3    H134369   5.175   3.388   1.033 -0.6202  1.0294 -3.6564
 4318TIP3    H234370   5.307   3.439   0.981  1.6497  0.1361  0.7157
 4319TIP3   OH234371   5.440   1.694  12.410 -0.2808  0.4968  0.1350
 4319TIP3    H134372   5.494   1.618  12.387  0.9878  1.5057 -0.2785
 4319TIP3    H234373   5.386   1.663  12.483  1.7505 -0.1860  1.4411
 4320TIP3   OH234374   2.282   0.197  15.286 -0.4100 -0.9253  0.4114
 4320TIP3    H134375   2.372   0.167  15.269  0.8409  2.1284  0.9609
 4320TIP3    H234376   2.253   0.233  15.202 -0.1241  0.3382  0.8385
 4321TIP3   OH234377   3.829   2.914  14.631  0.1710  0.2763 -0.0791
 4321TIP3    H134378   3.875   2.975  14.690  1.9404 -1.1876  0.1590
 4321TIP3    H234379   3.817   2.835  14.683 -1.3605  0.1142 -0.6326
 4322TIP3   OH234380   2.950   4.897  12.170  0.1725  0.1630 -0.3790
 4322TIP3    H134381   2.948   4.803  12.155  0.4951  0.2557 -1.0337
 4322TIP3    H234382   2.863   4.917  12.207  0.1454 -0.3991 -0.1199
 4323TIP3   OH234383   5.252   6.448   2.979 -0.4984 -0.1284  0.6980
 4323TIP3    H134384   5.165   6.483   2.961 -0.8762 -1.5898 -0.4623
 4323TIP3    H234385   5.286   6.421   2.894  1.1654  0.5366  1.1014
 4324TIP3   OH234386   4.900   6.573  15.385  0.0967  0.0603  0.7998
 4324TIP3    H134387   4.851   6.548  15.307 -0.8959  4.0852 -0.0964
 4324TIP3    H234388   4.851   6.535  15.458 -2.0786  0.6392 -0.2852
 4325TIP3   OH234389   1.750   0.609   0.229  0.1271  0.0947  0.1675
 4325TIP3    H134390   1.675   0.564   0.267  1.0683 -1.7774 -0.1003
 4325TIP3    H234391   1.789   0.656   0.302 -1.7830  1.8900  0.1376
 4326TIP3   OH234392   5.143   1.762   5.562 -0.2115 -0.2007 -0.2372
 4326TIP3    H134393   5.121   1.738   5.472 -1.1108  0.9341 -0.3306
 4326TIP3    H234394   5.203   1.693   5.591  1.0948  0.0957 -2.1161
 4327TIP3   OH234395   4.530   0.682  12.733 -0.6879 -0.5284 -0.4427
 4327TIP3    H134396   4.548   0.773  12.712  1.9251 -1.4452 -2.7320
 4327TIP3    H234397   4.591   0.661  12.804  1.6123 -1.4179 -2.5513
 4328TIP3   OH234398   3.300   1.877  12.136 -0.3422  0.4086  0.1085
 4328TIP3    H134399   3.294   1.918  12.049  2.0950  1.1147  0.2007
 4328TIP3    H234400   3.394   1.864  12.150 -0.8055 -1.8395  1.6907
 4329TIP3   OH234401   2.417   1.334   6.720  0.6277  0.3260  0.2499
 4329TIP3    H134402   2.467   1.281   6.782  0.0911  0.7572  1.0801
 4329TIP3    H234403   2.450   1.423   6.733 -0.4063  0.6339  0.8892
 4330TIP3   OH234404   1.395   6.330   4.378 -0.0921 -0.2353  0.5592
 4330TIP3    H134405   1.376   6.321   4.471  0.8935 -0.4110  0.7592
 4330TIP3    H234406   1.488   6.309   4.371 -0.2263 -0.5021 -0.5084
 4331TIP3   OH234407   2.241   3.356   0.556 -0.5184  0.1562  0.1394
 4331TIP3    H134408   2.299   3.432   0.564 -0.5582  0.2112 -0.0680
 4331TIP3    H234409   2.207   3.342   0.644  0.2103 -0.1992  0.3677
 4332TIP3   OH234410   2.984   3.128  13.868  0.2218 -0.1390  0.3546
 4332TIP3    H134411   2.997   3.043  13.910  2.3088  1.0422  2.3555
 4332TIP3    H234412   2.900   3.158  13.903  0.2086 -0.7348  0.8676
 4333TIP3   OH234413   0.826   5.327   4.637  0.1812 -0.2963  0.0263
 4333TIP3    H134414   0.769   5.404   4.643  1.1493  0.8399 -3.3141
 4333TIP3    H234415   0.910   5.356   4.674  0.7003  0.5433 -1.6817
 4334TIP3   OH234416   1.957   1.368  13.421  0.0108 -0.7244  0.3227
 4334TIP3    H134417   2.021   1.417  13.472  0.0290 -0.7782  0.3514
 4334TIP3    H234418   1.888   1.432  13.402  0.7740 -0.2476 -0.9982
 4335TIP3   OH234419   4.808   3.805   1.984 -0.4167 -0.1487 -0.3826
 4335TIP3    H134420   4.722   3.791   2.023 -0.2623 -0.0568 -0.0041
 4335TIP3    H234421   4.831   3.895   2.006  0.2865 -0.5400  0.5415
 4336TIP3   OH234422   4.181   2.592  13.070 -0.4566  0.0817 -0.2350
 4336TIP3    H134423   4.269   2.616  13.044 -0.8620  1.0720 -0.7280
 4336TIP3    H234424   4.152   2.663  13.128 -0.7125 -0.5416  0.4280
 4337TIP3   OH234425   3.372   0.601   0.742 -0.5725 -0.0223  0.1072
 4337TIP3    H134426   3.382   0.659   0.667 -0.2699  0.8778  0.8158
 4337TIP3    H234427   3.412   0.649   0.815 -0.6928 -0.9450  0.8042
 4338TIP3   OH234428   3.680   0.376   1.757  0.6440 -0.0337  0.3695
 4338TIP3    H134429   3.710   0.448   1.812  0.9746  0.1819 -0.0837
 4338TIP3    H234430   3.621   0.325   1.813  0.2472  0.6999  0.6322
 4339TIP3   OH234431   0.202   1.576  16.224 -0.0250  0.6832  0.5279
 4339TIP3    H134432   0.175   1.519  16.297 -1.0412  1.2570  0.6129
 4339TIP3    H234433   0.263   1.638  16.264  1.6372 -0.7013  0.3088
 4340TIP3   OH234434   5.905   1.901  15.404 -0.3887  0.0602  0.5007
 4340TIP3    H134435   5.929   1.960  15.476  1.3480  0.2642 -0.1761
 4340TIP3    H234436   5.842   1.951  15.352  1.2156  1.4722 -0.1841
 4341TIP3   OH234437   4.147   0.814  11.505  0.2960  0.2614  0.3422
 4341TIP3    H134438   4.177   0.885  11.449 -0.2327 -0.1890 -0.5411
 4341TIP3    H234439   4.198   0.738  11.478 -0.3223 -0.0786  0.1146
 4342TIP3   OH234440   3.541   0.172   2.237  0.3825  0.0309  0.0780
 4342TIP3    H134441   3.568   0.083   2.215  1.1694 -0.0413  1.2229
 4342TIP3    H234442   3.468   0.160   2.298 -0.9152  0.2112 -1.3912
 4343TIP3   OH234443   4.912   2.715  12.419 -0.0141  0.0512 -0.1166
 4343TIP3    H134444   4.828   2.736  12.461  0.7109  3.0103  0.1214
 4343TIP3    H234445   4.892   2.711  12.326 -0.4343  0.7374 -0.0628
 4344TIP3   OH234446   4.708   2.743  17.021  0.3332 -0.0122 -0.2385
 4344TIP3    H134447   4.648   2.812  17.049  0.5917 -0.0471  0.4011
 4344TIP3    H234448   4.795   2.774  17.047  0.5922 -0.0122 -1.0567
 4345TIP3   OH234449   6.368   5.026   3.132 -0.1067  0.1059  0.0146
 4345TIP3    H134450   6.458   4.998   3.147 -0.7445 -2.9732 -1.2117
 4345TIP3    H234451   6.319   4.989   3.205 -0.6872 -0.0769 -0.4621
 4346TIP3   OH234452   4.136   5.115   1.599 -0.6884  0.2895 -0.1028
 4346TIP3    H134453   4.064   5.092   1.657 -2.4654  1.3550 -1.7878
 4346TIP3    H234454   4.121   5.063   1.520  0.7918  0.0337 -0.2494
 4347TIP3   OH234455   5.676   1.946  16.002 -0.1285  0.3274  0.3380
 4347TIP3    H134456   5.638   1.872  15.955  1.7363 -0.4055 -0.1067
 4347TIP3    H234457   5.626   2.022  15.973 -2.0055 -0.7100  0.7149
 4348TIP3   OH234458   1.614   3.189  14.211 -0.7029  0.6018 -0.2818
 4348TIP3    H134459   1.670   3.126  14.256  0.7527  2.5011  0.7234
 4348TIP3    H234460   1.588   3.145  14.130  0.9173 -0.9626 -0.0089
 4349TIP3   OH234461   2.721   3.750   3.344 -0.7282  0.0269  0.0149
 4349TIP3    H134462   2.731   3.713   3.256  0.7137 -1.9141  0.9177
 4349TIP3    H234463   2.627   3.769   3.351 -1.0904 -1.0351 -1.4869
 4350TIP3   OH234464   5.130   1.462   5.473  0.8257  0.5885  0.0048
 4350TIP3    H134465   5.097   1.497   5.390  1.4080  0.9036 -0.0947
 4350TIP3    H234466   5.222   1.488   5.476  0.4921  1.6847  1.3531
 4351TIP3   OH234467   0.103   4.365   6.200 -0.0245 -0.5181 -0.6152
 4351TIP3    H134468   0.036   4.432   6.210  2.0630  1.4161  1.8273
 4351TIP3    H234469   0.156   4.394   6.126 -0.2160 -0.4946 -0.7438
 4352TIP3   OH234470   4.939   2.586  13.992 -0.0649 -0.6408 -0.5576
 4352TIP3    H134471   4.889   2.515  14.031 -0.6745 -0.7573 -1.5051
 4352TIP3    H234472   5.021   2.546  13.964 -0.5122 -1.0419 -1.3192
 4353TIP3   OH234473   6.293   6.726  13.174  0.2245 -0.3661  0.0884
 4353TIP3    H134474   6.297   6.795  13.108  0.5166 -0.5562 -0.0937
 4353TIP3    H234475   6.201   6.726  13.203 -0.1780 -0.9961 -1.1006
 4354TIP3   OH234476   1.611   2.533   1.095 -0.1483 -0.2142 -0.1436
 4354TIP3    H134477   1.636   2.592   1.166 -2.7941  1.1023 -0.1593
 4354TIP3    H234478   1.536   2.485   1.129 -0.3948 -0.8098 -1.4526
 4355TIP3   OH234479   6.668   6.493   1.036 -0.3788 -0.2511 -0.7401
 4355TIP3    H134480   6.604   6.489   0.965  0.2645  2.3385 -1.5820
 4355TIP3    H234481   6.751   6.470   0.995  0.0020  1.2894 -0.8750
 4356TIP3   OH234482   0.392   5.401  15.995  0.2061 -0.5759 -0.4101
 4356TIP3    H134483   0.474   5.437  15.962 -0.4353  0.2391 -1.1454
 4356TIP3    H234484   0.388   5.313  15.957  0.1137 -0.1305 -1.4633
 4357TIP3   OH234485   5.933   0.287   4.156 -0.0142  0.0976  0.0875
 4357TIP3    H134486   5.914   0.380   4.166 -0.6168  0.1874 -1.6925
 4357TIP3    H234487   5.868   0.255   4.094  0.6207 -1.3613  0.1334
 4358TIP3   OH234488   6.727   1.889  12.762  0.2032  0.5120  0.1858
 4358TIP3    H134489   6.728   1.943  12.683 -0.1303  1.8056  1.0340
 4358TIP3    H234490   6.682   1.943  12.827 -1.1730 -1.2225  0.7773
 4359TIP3   OH234491   1.178   0.208   4.452 -0.1204 -0.0892 -0.6844
 4359TIP3    H134492   1.273   0.194   4.454 -0.3081 -1.5487  1.1552
 4359TIP3    H234493   1.143   0.127   4.416 -0.7536 -0.3767  0.5345
 4360TIP3   OH234494   0.397   2.862  14.462 -0.1503 -0.2761  0.1582
 4360TIP3    H134495   0.431   2.890  14.547 -0.0010  1.6668 -0.5001
 4360TIP3    H234496   0.433   2.773  14.451 -2.3998 -1.7697  3.2828
 4361TIP3   OH234497   1.603   5.103   1.350  0.6508 -0.5641  0.2646
 4361TIP3    H134498   1.623   5.196   1.351 -1.5060 -0.0260  1.5013
 4361TIP3    H234499   1.662   5.065   1.416 -0.5613  0.5107  2.0448
 4362TIP3   OH234500   5.048   5.605  16.335  0.0104 -0.0217 -0.6341
 4362TIP3    H134501   5.123   5.591  16.392  0.0051  0.9819 -0.3617
 4362TIP3    H234502   5.047   5.529  16.278  1.5000  0.1482 -0.9369
 4363TIP3   OH234503   3.433   4.898   3.007 -0.3639 -0.1806 -0.3525
 4363TIP3    H134504   3.363   4.961   3.026  0.8336  1.6167 -1.6324
 4363TIP3    H234505   3.388   4.813   3.004 -2.1455  0.6669  0.7532
 4364TIP3   OH234506   1.758   1.228  12.501 -0.1627 -0.4094  0.2443
 4364TIP3    H134507   1.762   1.251  12.408  1.3874 -0.1028  0.3542
 4364TIP3    H234508   1.665   1.229  12.522 -0.4121  1.7909 -0.7457
 4365TIP3   OH234509   4.814   2.954  16.164  0.3902  0.2441  0.0461
 4365TIP3    H134510   4.742   2.902  16.128  0.3363  0.0669  0.4079
 4365TIP3    H234511   4.866   2.979  16.088 -0.3642  0.8479 -0.2799
 4366TIP3   OH234512   3.925   2.696   1.689  0.0640  0.2239  0.3497
 4366TIP3    H134513   3.886   2.758   1.751 -2.6401 -1.3073  0.3256
 4366TIP3    H234514   3.880   2.714   1.606  0.7946 -0.3456 -0.1774
 4367TIP3   OH234515   0.311   4.570   2.092  0.4918 -0.0381 -0.5103
 4367TIP3    H134516   0.365   4.535   2.163 -0.0152  0.0700 -0.0693
 4367TIP3    H234517   0.366   4.560   2.014  0.5813 -1.2762 -0.3063
 4368TIP3   OH234518   1.567   3.767  16.169 -0.0434 -0.0956 -0.0452
 4368TIP3    H134519   1.609   3.731  16.091  1.0291  1.3652 -0.1754
 4368TIP3    H234520   1.511   3.837  16.137 -0.3082 -0.0866  0.4191
 4369TIP3   OH234521   5.672   4.065   0.251 -0.5165  0.4819 -0.3913
 4369TIP3    H134522   5.601   4.112   0.295 -1.3830 -0.5969 -0.5973
 4369TIP3    H234523   5.650   4.071   0.158 -2.0611 -2.4536 -0.3128
 4370TIP3   OH234524   4.453   2.464  14.038 -0.3055 -0.7504  0.1841
 4370TIP3    H134525   4.472   2.542  14.090 -0.0397  0.3114 -1.4468
 4370TIP3    H234526   4.359   2.466  14.025 -0.7216 -2.2358  2.4148
 4371TIP3   OH234527   2.895   4.453   4.562  0.1471  0.2767  0.1733
 4371TIP3    H134528   2.949   4.482   4.488 -1.2752 -1.6096 -1.7292
 4371TIP3    H234529   2.809   4.492   4.547 -0.1109  0.0301  0.9350
 4372TIP3   OH234530   4.036   0.097  14.696  0.4879  0.1910 -0.2001
 4372TIP3    H134531   4.106   0.142  14.648  1.6813  0.2106  1.4797
 4372TIP3    H234532   4.043   0.005  14.669  0.9307  0.2509 -0.2863
 4373TIP3   OH234533   1.129   3.373   2.050  0.0827  0.0385  0.7677
 4373TIP3    H134534   1.160   3.424   2.124 -1.0390  0.4643  0.9623
 4373TIP3    H234535   1.132   3.283   2.080  3.2017 -0.2225  0.0323
 4374TIP3   OH234536   4.066   4.504  15.605 -0.5139  0.2370  0.2023
 4374TIP3    H134537   4.093   4.421  15.644  1.8375  0.9822  0.3411
 4374TIP3    H234538   4.140   4.530  15.550 -1.5838  1.7851 -0.5889
 4375TIP3   OH234539   5.985   0.488  14.471  0.3150  0.1975  0.0460
 4375TIP3    H134540   5.968   0.459  14.381  1.7227 -1.0866  0.1539
 4375TIP3    H234541   6.071   0.528  14.467  0.4553 -0.0123  0.8520
 4376TIP3   OH234542   6.086   5.161  14.287 -0.3433  0.0471 -0.0909
 4376TIP3    H134543   6.084   5.235  14.226  2.2057  1.5127  1.4053
 4376TIP3    H234544   6.158   5.182  14.347 -0.2109 -3.1669  1.0585
 4377TIP3   OH234545   2.220   5.028   2.023 -0.0889  0.6201 -0.5212
 4377TIP3    H134546   2.309   5.048   2.053 -0.2901  2.1087 -0.8398
 4377TIP3    H234547   2.165   5.095   2.064 -0.6393  1.5195 -2.5889
 4378TIP3   OH234548   4.659   3.130   1.726 -0.3986  0.3608 -0.2094
 4378TIP3    H134549   4.617   3.204   1.682 -1.0439 -0.4577 -0.9926
 4378TIP3    H234550   4.587   3.071   1.749  0.1771 -0.4330 -0.3841
 4379TIP3   OH234551   2.396   2.961   4.841 -0.2546  0.1447 -0.3499
 4379TIP3    H134552   2.473   2.947   4.786 -0.0653 -0.3700  0.0363
 4379TIP3    H234553   2.327   2.908   4.801  0.3529 -1.7034  0.8797
 4380TIP3   OH234554   2.807   1.400  11.160 -0.2424 -0.6683 -0.4107
 4380TIP3    H134555   2.758   1.342  11.218 -0.2317  0.4056  0.7255
 4380TIP3    H234556   2.869   1.343  11.115 -0.5251 -1.5998  0.3522
 4381TIP3   OH234557   2.453   3.140  17.139 -1.0059  0.3818 -1.1636
 4381TIP3    H134558   2.489   3.069  17.191 -0.6709  1.9137  0.8258
 4381TIP3    H234559   2.485   3.123  17.050 -0.2977 -1.4886 -0.5933
 4382TIP3   OH234560   2.821   1.265   0.836  0.3204  0.2999 -0.1931
 4382TIP3    H134561   2.869   1.347   0.820  1.8888 -0.5647 -0.0186
 4382TIP3    H234562   2.789   1.273   0.926 -0.5077  1.1856 -0.5483
 4383TIP3   OH234563   1.413   5.993   1.275 -0.1929 -0.8689  0.2248
 4383TIP3    H134564   1.356   5.916   1.266 -0.3435 -1.2739  3.3761
 4383TIP3    H234565   1.377   6.040   1.351  1.6214  0.7536  0.1464
 4384TIP3   OH234566   5.919   4.659   1.286 -0.2732  0.3721  0.0291
 4384TIP3    H134567   5.959   4.597   1.225  1.5357  0.7293  0.7836
 4384TIP3    H234568   5.862   4.713   1.231 -0.1051 -0.4974 -1.0248
 4385TIP3   OH234569   4.742   4.653   0.941 -0.0378  0.4178  0.0605
 4385TIP3    H134570   4.767   4.562   0.956 -0.6201  0.4359  1.2358
 4385TIP3    H234571   4.647   4.653   0.944 -0.0314  1.1139  0.4018
 4386TIP3   OH234572   5.032   5.995  13.086 -0.3029  0.3804 -0.1476
 4386TIP3    H134573   5.064   5.918  13.134  1.0633  0.3255 -1.0940
 4386TIP3    H234574   5.110   6.032  13.046 -1.3140  0.7988 -1.8128
 4387TIP3   OH234575   0.920   5.739  15.117 -0.4381 -0.3895 -0.1527
 4387TIP3    H134576   0.962   5.713  15.035 -0.7465 -1.6602  0.0762
 4387TIP3    H234577   0.829   5.710  15.108 -1.0407  1.3457 -0.1956
 4388TIP3   OH234578   2.228   0.990   6.469 -0.3616 -0.1822  0.2969
 4388TIP3    H134579   2.221   0.950   6.555  0.0457 -1.4134 -0.2157
 4388TIP3    H234580   2.304   1.048   6.475 -1.0668  0.6654  1.1085
 4389TIP3   OH234581   0.599   5.574   3.830 -0.0998  0.6726  0.0858
 4389TIP3    H134582   0.551   5.524   3.895 -1.8502  0.0697 -1.5742
 4389TIP3    H234583   0.598   5.664   3.863 -1.3375  0.4623  0.6795
 4390TIP3   OH234584   2.057   6.366  16.876  0.1338 -0.0654  0.3369
 4390TIP3    H134585   2.005   6.335  16.950 -0.5669 -1.9556 -0.8781
 4390TIP3    H234586   2.148   6.349  16.901 -0.1612 -2.0782  0.2465
 4391TIP3   OH234587   3.348   5.482  16.482 -0.3833  0.3710  0.7203
 4391TIP3    H134588   3.267   5.448  16.519 -0.1449  0.2235  1.1113
 4391TIP3    H234589   3.417   5.439  16.532 -0.0486 -0.0694 -0.0978
 4392TIP3   OH234590   2.124   4.170  13.940 -0.0647 -0.4697  0.5086
 4392TIP3    H134591   2.082   4.243  13.985  1.9459 -0.0084  1.7397
 4392TIP3    H234592   2.184   4.211  13.878 -0.0783 -1.0908  0.0738
 4393TIP3   OH234593   6.715   4.640   2.832  0.0256 -0.2882  0.6058
 4393TIP3    H134594   6.764   4.558   2.831 -0.8276 -0.8485 -1.3620
 4393TIP3    H234595   6.770   4.702   2.783  0.3180  0.1026  1.4155
 4394TIP3   OH234596   1.258   5.358   6.221  0.3411  0.1046 -0.3122
 4394TIP3    H134597   1.336   5.354   6.166  0.6884 -0.9255  0.2224
 4394TIP3    H234598   1.192   5.310   6.173  0.5145 -0.4082 -0.0481
 4395TIP3   OH234599   6.280   1.023  12.096 -0.2660 -0.5775  0.0469
 4395TIP3    H134600   6.297   1.093  12.033  0.2456 -1.4245 -0.7782
 4395TIP3    H234601   6.353   1.027  12.158 -0.5245 -0.0441  0.3257
 4396TIP3   OH234602   3.293   1.875  13.248 -0.0175 -0.3666  0.1772
 4396TIP3    H134603   3.346   1.808  13.203 -0.4253  1.0636 -2.6715
 4396TIP3    H234604   3.357   1.935  13.286  0.3700 -2.5266  3.2748
 4397TIP3   OH234605   3.952   0.071   3.216 -0.0356  0.0376  0.4001
 4397TIP3    H134606   3.907   0.107   3.293 -2.2783 -0.1402 -0.7477
 4397TIP3    H234607   4.013   0.141   3.190 -0.7321  0.9498  1.1215
 4398TIP3   OH234608   3.231   0.040  13.653 -0.0541  0.0083  0.0030
 4398TIP3    H134609   3.227   0.106  13.722 -3.6691 -1.3300  1.3365
 4398TIP3    H234610   3.298  -0.021  13.682 -0.7087  0.0872  1.8015
 4399TIP3   OH234611   1.861   4.079  13.891 -0.3546  0.0290 -0.0007
 4399TIP3    H134612   1.952   4.093  13.918 -0.4401  0.1622  0.2234
 4399TIP3    H234613   1.810   4.106  13.967 -0.6594  1.4526 -0.6827
 4400TIP3   OH234614   0.632   3.249   6.667  0.3773  0.2359 -0.2609
 4400TIP3    H134615   0.610   3.199   6.746  0.5855  1.0303  0.3133
 4400TIP3    H234616   0.713   3.208   6.634  2.3371  2.0542  1.9505
 4401TIP3   OH234617   5.864   6.573  10.993  0.4947  0.1822  0.0266
 4401TIP3    H134618   5.869   6.480  11.011 -0.2573  0.3767  1.2992
 4401TIP3    H234619   5.795   6.581  10.926  0.7674 -0.1904 -0.3042
 4402TIP3   OH234620   6.768   0.666   2.848  0.2050  0.2737 -0.4092
 4402TIP3    H134621   6.856   0.701   2.842  0.4356 -0.3806 -0.9885
 4402TIP3    H234622   6.764   0.625   2.935  0.3962  0.5006 -0.2945
 4403TIP3   OH234623   2.288   2.097   2.205 -0.0275 -0.2015  0.1970
 4403TIP3    H134624   2.292   2.035   2.132  0.7466  1.5555 -1.3550
 4403TIP3    H234625   2.195   2.102   2.227 -0.4632  0.0953 -1.5312
 4404TIP3   OH234626   5.913   3.112   2.197  0.0392 -0.1780  0.3257
 4404TIP3    H134627   6.008   3.120   2.191  0.1669 -1.5015  0.2129
 4404TIP3    H234628   5.888   3.066   2.117 -0.0836 -4.1149  2.3713
 4405TIP3   OH234629   0.761   5.848  14.329 -0.5549 -0.0719  0.9058
 4405TIP3    H134630   0.787   5.834  14.238  0.4752  0.8845  1.0410
 4405TIP3    H234631   0.795   5.771  14.375  1.5406  0.8391  0.9632
 4406TIP3   OH234632   0.756   2.261  12.843 -0.3854  0.2275 -0.0888
 4406TIP3    H134633   0.779   2.198  12.776  2.1991  1.2153 -0.2268
 4406TIP3    H234634   0.734   2.209  12.920 -0.9954 -0.8477 -0.9692
 4407TIP3   OH234635   3.748   4.378  11.224 -0.0105  0.7208 -0.4946
 4407TIP3    H134636   3.698   4.300  11.245  0.0918  0.5710 -0.8017
 4407TIP3    H234637   3.788   4.359  11.139  0.7807  0.7394 -0.1336
 4408TIP3   OH234638   4.355   4.990  14.475  0.6890 -0.3169  0.1023
 4408TIP3    H134639   4.274   4.989  14.525  1.1420 -1.4520  0.8612
 4408TIP3    H234640   4.339   5.050  14.403 -0.9711 -0.8736 -0.0175
 4409TIP3   OH234641   0.176   6.254   5.518 -0.2078  0.5755 -0.2842
 4409TIP3    H134642   0.268   6.256   5.542 -0.2305  0.9136 -0.2259
 4409TIP3    H234643   0.141   6.176   5.563  0.1306  0.2333 -0.6141
 4410TIP3   OH234644   3.132   6.411   3.339 -0.5101 -0.4574  0.5768
 4410TIP3    H134645   3.149   6.430   3.431  2.8437  0.1225 -0.0262
 4410TIP3    H234646   3.065   6.342   3.341 -1.9432  0.8633  3.3199
 4411TIP3   OH234647   6.360   4.265  10.670  0.4352 -0.3026  0.2090
 4411TIP3    H134648   6.316   4.238  10.750  1.2670  0.4870  0.9546
 4411TIP3    H234649   6.450   4.283  10.696  0.0173  3.1328 -0.1496
 4412TIP3   OH234650   2.186   5.050   4.560  0.2266 -0.1009  0.1839
 4412TIP3    H134651   2.131   5.126   4.539  0.2896  0.0111  0.4207
 4412TIP3    H234652   2.174   4.991   4.485 -0.0575  0.0099  0.1391
 4413TIP3   OH234653   2.578   4.478  15.553  0.7912  0.1444 -0.2148
 4413TIP3    H134654   2.509   4.534  15.518  0.2010 -0.2346  0.3175
 4413TIP3    H234655   2.625   4.446  15.476  0.0673  0.0217 -0.6128
 4414TIP3   OH234656   4.803   0.355   4.242 -0.0843 -0.5250 -0.1072
 4414TIP3    H134657   4.796   0.267   4.205  1.8913 -1.5451  1.6969
 4414TIP3    H234658   4.835   0.340   4.331 -2.6630  1.8817  1.3538
 4415TIP3   OH234659   4.069   0.899  12.750 -0.5144 -0.2383  0.3727
 4415TIP3    H134660   4.055   0.804  12.745 -3.1246  0.0539  0.4984
 4415TIP3    H234661   4.084   0.926  12.660  2.2467 -0.9280  0.5250
 4416TIP3   OH234662   2.518   6.496  14.052 -0.0959 -0.3575 -0.1418
 4416TIP3    H134663   2.607   6.502  14.089 -0.0434  3.3818 -0.4805
 4416TIP3    H234664   2.461   6.531  14.120 -1.0766 -1.0470 -0.5908
 4417TIP3   OH234665   0.443   3.856  12.439 -0.4170 -0.2598  0.0682
 4417TIP3    H134666   0.475   3.806  12.363 -1.9206  0.1778 -0.8875
 4417TIP3    H234667   0.392   3.793  12.489  0.3575 -0.4803  0.5952
 4418TIP3   OH234668   0.922   1.830  16.955 -0.5255 -0.2191  0.1886
 4418TIP3    H134669   0.871   1.782  17.021 -0.5107 -2.4746 -1.2938
 4418TIP3    H234670   0.957   1.761  16.898 -1.7343  1.6169 -3.0275
 4419TIP3   OH234671   6.733   5.047   1.907  0.2725 -0.2681  0.3067
 4419TIP3    H134672   6.692   5.122   1.863 -0.0165 -0.0053  0.9969
 4419TIP3    H234673   6.826   5.065   1.904  0.1389  0.8501  1.6927
 4420TIP3   OH234674   4.751   0.904  15.687  0.1383 -0.6196 -0.3841
 4420TIP3    H134675   4.810   0.979  15.695  0.2611 -0.8315  0.8804
 4420TIP3    H234676   4.743   0.890  15.592 -0.3611  1.3350 -0.6728
 4421TIP3   OH234677   3.961   4.303  13.332 -0.1690 -0.2921  0.0445
 4421TIP3    H134678   3.927   4.230  13.384 -0.8311 -0.2151 -0.2646
 4421TIP3    H234679   3.989   4.263  13.250 -0.3877 -0.2216 -0.0644
 4422TIP3   OH234680   3.684   1.737  14.403 -0.0465 -0.0435  0.2780
 4422TIP3    H134681   3.738   1.663  14.430 -1.8806 -0.7402  2.3112
 4422TIP3    H234682   3.747   1.802  14.373  1.6927 -1.9768 -0.4897
 4423TIP3   OH234683   4.025   2.606   5.959 -0.6024 -0.0153 -0.0161
 4423TIP3    H134684   3.986   2.625   6.044 -2.6434 -2.4011 -0.3212
 4423TIP3    H234685   4.092   2.674   5.948 -1.5509  1.4880  2.6122
 4424TIP3   OH234686   3.677   6.573   6.655 -0.3564 -0.1653 -0.5115
 4424TIP3    H134687   3.595   6.608   6.688 -0.2907  0.2959 -0.8285
 4424TIP3    H234688   3.742   6.599   6.720 -0.4173 -0.3070 -0.3927
 4425TIP3   OH234689   3.476   1.432  14.587  0.4347  0.4462 -0.3196
 4425TIP3    H134690   3.497   1.524  14.602  0.0379  0.9459 -2.5320
 4425TIP3    H234691   3.382   1.432  14.566  0.6995 -0.2730 -1.5937
 4426TIP3   OH234692   0.732   5.762   3.581 -0.2039 -0.0914  0.3233
 4426TIP3    H134693   0.798   5.803   3.637  0.5094  3.0805 -2.5152
 4426TIP3    H234694   0.648   5.790   3.618  0.2346  1.3341  0.3013
 4427TIP3   OH234695   4.828   2.760  11.867 -0.4631  0.3022 -0.2549
 4427TIP3    H134696   4.783   2.834  11.909 -1.2938  0.5897 -1.5774
 4427TIP3    H234697   4.775   2.741  11.790 -1.1246 -2.6850  0.8068
 4428TIP3   OH234698   2.102   5.988   4.221 -0.0554 -0.5406  0.1851
 4428TIP3    H134699   2.035   5.953   4.279 -0.5091 -2.3219 -1.3051
 4428TIP3    H234700   2.175   5.926   4.229  1.0315  0.7640  0.9492
 4429TIP3   OH234701   0.920   1.769   2.399 -0.3664 -0.2394  0.3832
 4429TIP3    H134702   0.870   1.728   2.470 -2.0074  0.1090 -0.5183
 4429TIP3    H234703   0.986   1.822   2.444  0.5497 -2.2943  1.5858
 4430TIP3   OH234704   4.654   6.707   2.183 -0.6516 -0.2611 -0.8100
 4430TIP3    H134705   4.628   6.628   2.230  1.7042 -0.4772  0.2780
 4430TIP3    H234706   4.746   6.691   2.159 -0.4521  1.7040 -1.5143
 4431TIP3   OH234707   4.223   2.335   3.412  0.1431  0.7634 -0.2800
 4431TIP3    H134708   4.146   2.302   3.458  0.3070  3.4411  2.2000
 4431TIP3    H234709   4.295   2.280   3.443 -0.4488 -0.6973 -1.3611
 4432TIP3   OH234710   1.153   6.121   4.682 -0.0142 -0.3293  0.2001
 4432TIP3    H134711   1.218   6.186   4.711 -0.7270  1.0158 -1.0581
 4432TIP3    H234712   1.205   6.050   4.645  0.7782  0.2308  0.2008
 4433TIP3   OH234713   5.952   2.910   1.498  0.0939 -0.1894 -0.6896
 4433TIP3    H134714   6.003   2.899   1.578 -0.8261 -0.3174 -0.1028
 4433TIP3    H234715   5.983   2.840   1.441  0.2054 -0.5915 -0.1485
 4434TIP3   OH234716   5.245   4.525  13.352  0.1708 -0.3686  0.0726
 4434TIP3    H134717   5.289   4.529  13.437 -0.5866 -0.9714  0.5102
 4434TIP3    H234718   5.152   4.520  13.374 -0.1554  1.1824 -0.8340
 4435TIP3   OH234719   1.546   6.586  16.840  0.2449 -0.0975  0.0500
 4435TIP3    H134720   1.459   6.578  16.879 -0.1224  1.2411 -0.4399
 4435TIP3    H234721   1.574   6.675  16.861  1.2272 -0.2961 -0.3554
 4436TIP3   OH234722   4.201   2.628   6.302 -0.4871  0.2351  0.5024
 4436TIP3    H134723   4.180   2.611   6.393  0.9134  1.5943  1.1302
 4436TIP3    H234724   4.119   2.659   6.263 -1.1944 -0.7448  1.1618
 4437TIP3   OH234725   1.868   3.784   4.296 -0.3815  0.5639  0.4627
 4437TIP3    H134726   1.914   3.710   4.257 -1.9806 -0.6762  0.8228
 4437TIP3    H234727   1.917   3.861   4.266  1.7390 -0.6282  0.6255
 4438TIP3   OH234728   0.593   5.221   1.677 -0.2496  0.1735  0.5382
 4438TIP3    H134729   0.643   5.299   1.652 -0.2701  0.4510  1.3416
 4438TIP3    H234730   0.600   5.164   1.600  1.0339  0.3321  0.5016
 4439TIP3   OH234731   0.882   1.339   4.593 -0.3628  0.2860 -0.2406
 4439TIP3    H134732   0.827   1.337   4.515 -1.1609  0.9192  0.2882
 4439TIP3    H234733   0.821   1.346   4.666  0.4043  0.9254  0.3680
 4440TIP3   OH234734   4.505   6.163  10.587 -0.3792  0.5718 -0.2371
 4440TIP3    H134735   4.503   6.206  10.673 -4.2022 -1.0319  0.6586
 4440TIP3    H234736   4.564   6.089  10.599 -1.1432  0.1545  1.1774
 4441TIP3   OH234737   2.764   2.384  15.737  0.0002  0.2832  0.5846
 4441TIP3    H134738   2.830   2.372  15.668 -0.7220  1.2125 -0.3072
 4441TIP3    H234739   2.720   2.299  15.744 -1.7994  0.8569 -2.1445
 4442TIP3   OH234740   4.603   3.241  12.724  0.3696 -0.0163 -0.6537
 4442TIP3    H134741   4.553   3.289  12.790 -0.4778  0.0031 -1.3068
 4442TIP3    H234742   4.591   3.149  12.747  1.2334  0.0279  0.0426
 4443TIP3   OH234743   2.645   6.203   1.266  0.4564  0.2309  0.3974
 4443TIP3    H134744   2.582   6.234   1.331 -0.5356 -1.6168  0.3678
 4443TIP3    H234745   2.729   6.201   1.314  0.0925  0.6418  1.0713
 4444TIP3   OH234746   3.097   3.877  13.159  0.0006 -0.3815  0.2864
 4444TIP3    H134747   3.059   3.824  13.229  0.1498  0.7474  1.2591
 4444TIP3    H234748   3.035   3.948  13.146  1.1170  0.7744  1.0119
 4445TIP3   OH234749   0.363   2.975  16.771 -0.1013  0.8128 -0.0761
 4445TIP3    H134750   0.354   2.919  16.694  0.3144  0.5867  0.0361
 4445TIP3    H234751   0.455   2.969  16.795  0.2359  2.5193 -0.7951
 4446TIP3   OH234752   0.779   4.499  13.504  0.2404  0.0844  0.3316
 4446TIP3    H134753   0.827   4.579  13.482 -1.3105  0.9490  0.0163
 4446TIP3    H234754   0.722   4.524  13.576 -2.2072  0.0350 -1.4757
 4447TIP3   OH234755   3.889   5.063   3.009 -0.0724  0.9875  0.1842
 4447TIP3    H134756   3.974   5.104   2.990 -0.5479  0.9997 -2.2045
 4447TIP3    H234757   3.902   4.971   2.988 -0.7681  1.0823 -0.7361
 4448TIP3   OH234758   2.920   1.415   6.057 -0.6281 -0.5821 -0.1883
 4448TIP3    H134759   2.977   1.481   6.097 -1.5717 -0.4987  1.0558
 4448TIP3    H234760   2.841   1.416   6.110 -0.6021 -2.8553 -0.0418
 4449TIP3   OH234761   5.294   5.785   4.027 -0.3839  0.1033 -0.0011
 4449TIP3    H134762   5.236   5.802   3.953  0.9314 -1.4079 -1.4520
 4449TIP3    H234763   5.382   5.794   3.992  0.2806 -0.1841  1.4943
 4450TIP3   OH234764   1.902   6.560  15.994  0.7536  0.5417 -0.2246
 4450TIP3    H134765   1.808   6.569  15.977  0.7794 -0.1562 -0.7816
 4450TIP3    H234766   1.943   6.585  15.911  1.1124  1.8337  0.3303
 4451TIP3   OH234767   4.209   4.799   1.066  0.0695 -0.8671  0.2872
 4451TIP3    H134768   4.125   4.836   1.040  0.0500 -1.8099 -1.0564
 4451TIP3    H234769   4.271   4.872   1.057 -0.1030 -0.8944 -1.5646
 4452TIP3   OH234770   5.615   3.124   0.725 -0.0710  0.2144 -0.0955
 4452TIP3    H134771   5.590   3.090   0.812 -0.1620  1.9307  0.5799
 4452TIP3    H234772   5.581   3.213   0.724  0.6304  0.4841 -1.6078
 4453TIP3   OH234773   6.174   3.814  15.912 -0.3633 -0.1817  0.1184
 4453TIP3    H134774   6.236   3.882  15.938 -1.2339  0.2349  1.2117
 4453TIP3    H234775   6.164   3.760  15.990 -0.2251 -1.1566 -0.5249
 4454TIP3   OH234776   0.679   2.485   6.115 -0.1576 -0.2362  0.4819
 4454TIP3    H134777   0.620   2.533   6.172  1.8929  0.7488  1.9276
 4454TIP3    H234778   0.756   2.468   6.169  1.1503 -0.8966 -1.4596
 4455TIP3   OH234779   0.017   1.092  15.175  0.3189 -0.8131  0.0777
 4455TIP3    H134780   0.104   1.054  15.171  0.9625  0.7350 -1.6511
 4455TIP3    H234781   0.019   1.148  15.253  1.3331  0.1963 -0.6391
 4456TIP3   OH234782   1.340   1.125   4.948  0.5609  0.1976 -0.5072
 4456TIP3    H134783   1.383   1.047   4.984  0.2317  0.7942  1.2710
 4456TIP3    H234784   1.248   1.115   4.972 -0.3113 -0.7527 -3.7320
 4457TIP3   OH234785   4.281   2.353  13.434 -0.1406  0.2124  0.0031
 4457TIP3    H134786   4.186   2.360  13.443 -0.2078 -0.3090 -0.2833
 4457TIP3    H234787   4.313   2.344  13.523 -0.5306 -1.6412 -0.0217
 4458TIP3   OH234788   1.307   4.922  14.062  0.1073  0.0711  0.9884
 4458TIP3    H134789   1.298   4.983  14.134  1.4914  1.9346 -0.3181
 4458TIP3    H234790   1.378   4.958  14.008 -0.9911 -1.0795 -1.4115
 4459TIP3   OH234791   1.781   4.871   2.154  0.4299  0.0122  0.4401
 4459TIP3    H134792   1.810   4.915   2.074 -2.2810 -0.2012 -0.7579
 4459TIP3    H234793   1.717   4.930   2.193 -2.7689 -2.3291 -0.8284
 4460TIP3   OH234794   1.389   3.541  10.866 -0.3529 -0.2300  0.0558
 4460TIP3    H134795   1.366   3.611  10.927  1.1827  0.8036 -0.5069
 4460TIP3    H234796   1.338   3.560  10.787 -2.0213 -1.3336  0.8123
 4461TIP3   OH234797   3.813   4.406   2.652  0.0794 -0.1086 -0.1935
 4461TIP3    H134798   3.746   4.405   2.720 -0.4376  1.3579 -0.6285
 4461TIP3    H234799   3.896   4.414   2.699 -0.1068 -1.1272  0.3218
 4462TIP3   OH234800   1.876   6.295   1.935 -0.6186  0.2634  0.4351
 4462TIP3    H134801   1.946   6.360   1.936 -0.8472  0.5270 -0.2543
 4462TIP3    H234802   1.922   6.210   1.933 -0.3161  0.4343 -0.0500
 4463TIP3   OH234803   2.352   3.144   6.352  0.6566 -0.7710 -0.2564
 4463TIP3    H134804   2.354   3.049   6.363 -1.3553 -0.9724 -1.1814
 4463TIP3    H234805   2.281   3.159   6.290  2.8748  1.1417 -2.5257
 4464TIP3   OH234806   0.814   2.316  13.839  0.1070 -0.3400  0.0101
 4464TIP3    H134807   0.770   2.245  13.792 -3.1721 -1.2193  3.7817
 4464TIP3    H234808   0.753   2.390  13.834  0.3953  0.0387  1.4421
 4465TIP3   OH234809   1.848   2.585   6.403  0.1015  0.0776  0.5624
 4465TIP3    H134810   1.822   2.612   6.490 -0.4112  1.3230  0.0418
 4465TIP3    H234811   1.841   2.664   6.349 -0.5917 -0.8877 -0.8313
 4466TIP3   OH234812   0.432   0.499  11.746  0.1056  0.2580  0.5234
 4466TIP3    H134813   0.354   0.468  11.700 -0.3069  0.7707  0.8694
 4466TIP3    H234814   0.460   0.425  11.799  0.4338 -0.2538 -0.3489
 4467TIP3   OH234815   2.478   0.611   2.084  0.3555  0.1123 -0.3278
 4467TIP3    H134816   2.424   0.533   2.094 -0.6434  0.8783  0.4168
 4467TIP3    H234817   2.549   0.583   2.027  0.6347 -1.6460  0.7944
 4468TIP3   OH234818   6.525   3.791  11.527 -0.5240 -0.4894  0.2653
 4468TIP3    H134819   6.481   3.707  11.513 -0.3681 -0.3859 -0.8872
 4468TIP3    H234820   6.552   3.819  11.440  0.4403  0.2107  0.7687
 4469TIP3   OH234821   1.537   1.539  14.390 -0.2826  0.7011  0.8220
 4469TIP3    H134822   1.562   1.572  14.304  0.1327  1.3976  1.1918
 4469TIP3    H234823   1.446   1.567  14.401 -0.8393 -0.6876  0.0158
 4470TIP3   OH234824   2.301   1.441  11.997 -0.2470  0.7553  0.0174
 4470TIP3    H134825   2.324   1.531  11.973  1.0485  0.4198 -0.0730
 4470TIP3    H234826   2.240   1.413  11.930 -0.4457  1.4714 -0.1121
 4471TIP3   OH234827   2.988   2.954   5.303 -0.1963 -0.0435 -0.2504
 4471TIP3    H134828   3.066   2.991   5.262 -0.5982  0.4870 -0.5424
 4471TIP3    H234829   2.915   2.989   5.252 -0.7847  1.5458  1.5640
 4472TIP3   OH234830   0.437   5.569   1.160 -0.0562 -0.2065 -0.5256
 4472TIP3    H134831   0.460   5.660   1.142 -3.7208  1.2515  1.3125
 4472TIP3    H234832   0.385   5.542   1.084 -1.6406  0.3651  0.3261
 4473TIP3   OH234833   0.837   3.036  15.925 -0.2839 -0.3787  0.0474
 4473TIP3    H134834   0.883   3.110  15.884 -2.3683  0.8134 -0.2446
 4473TIP3    H234835   0.870   3.035  16.015  1.6217 -0.7245 -0.5977
 4474TIP3   OH234836   2.208   0.493  12.229 -0.1309  0.2126 -0.8637
 4474TIP3    H134837   2.220   0.522  12.138  1.5879  2.2482 -0.0703
 4474TIP3    H234838   2.186   0.573  12.277  0.6407 -0.5021  0.7684
 4475TIP3   OH234839   1.166   5.141  15.040  0.0191  0.6901 -0.0238
 4475TIP3    H134840   1.161   5.218  15.096  0.5608  0.3446  0.5140
 4475TIP3    H234841   1.124   5.168  14.959  0.7772  1.7626 -0.0809
 4476TIP3   OH234842   1.245   1.916  16.624 -0.0255 -0.2561 -0.2250
 4476TIP3    H134843   1.338   1.912  16.643  0.0355  0.1217 -0.4457
 4476TIP3    H234844   1.239   1.910  16.529 -0.4054 -3.6549 -0.1113
 4477TIP3   OH234845   3.574   6.586   4.713 -0.3354 -0.1347 -0.4104
 4477TIP3    H134846   3.600   6.538   4.791 -0.0310 -0.2815 -0.6022
 4477TIP3    H234847   3.652   6.586   4.658 -0.7064 -0.4727 -0.9372
 4478TIP3   OH234848   3.167   6.315   1.983 -0.1669 -0.1134  0.2481
 4478TIP3    H134849   3.248   6.365   1.972 -1.0266  0.9552 -1.8027
 4478TIP3    H234850   3.186   6.230   1.944  0.0934 -0.0117  0.1507
 4479TIP3   OH234851   2.613   0.769  12.502 -0.3936  0.4707  0.4823
 4479TIP3    H134852   2.684   0.832  12.514 -0.3672  0.3075  1.1942
 4479TIP3    H234853   2.657   0.685  12.488 -0.4406  0.4888  0.2093
 4480TIP3   OH234854   0.413   0.144  15.280 -0.0147 -0.2934 -0.4662
 4480TIP3    H134855   0.349   0.207  15.311  1.9280  1.8564 -0.5818
 4480TIP3    H234856   0.452   0.108  15.360 -0.0221 -0.1753 -0.4104
 4481TIP3   OH234857   6.491   2.090   2.279  0.6156  0.4271 -0.0170
 4481TIP3    H134858   6.585   2.097   2.262  0.6154 -0.0967 -0.2318
 4481TIP3    H234859   6.459   2.032   2.211  0.3446 -0.4109  0.8140
 4482TIP3   OH234860   2.872   4.244   0.868 -0.4804  0.3774 -0.1452
 4482TIP3    H134861   2.783   4.234   0.902 -0.0640 -1.1469  0.5735
 4482TIP3    H234862   2.860   4.251   0.773 -1.3293 -0.2861 -0.1017
 4483TIP3   OH234863   2.949   4.602  11.218 -0.3258 -0.1450  0.0446
 4483TIP3    H134864   2.906   4.517  11.220 -1.1677  0.2664  2.0116
 4483TIP3    H234865   2.903   4.651  11.150 -0.1740 -1.0755 -0.7408
 4484TIP3   OH234866   4.873   6.051  12.455  0.0211  0.3195  0.1115
 4484TIP3    H134867   4.814   6.017  12.522  0.6101  0.4805  0.7175
 4484TIP3    H234868   4.828   6.128  12.420 -0.9312 -0.5501 -0.6724
 4485TIP3   OH234869   3.845   0.325   0.550 -0.1537  0.2677 -0.3481
 4485TIP3    H134870   3.824   0.244   0.504 -0.1342  0.4745 -0.7300
 4485TIP3    H234871   3.782   0.330   0.621 -1.6838  1.0553 -1.6830
 4486TIP3   OH234872   3.308   0.113   3.288 -0.3212  0.2401 -0.3422
 4486TIP3    H134873   3.264   0.064   3.357 -1.2851  2.9601  1.1174
 4486TIP3    H234874   3.354   0.184   3.334  0.8141  0.8820 -2.3329
 4487TIP3   OH234875   3.715   1.447   3.026 -0.2903  0.0144  0.4418
 4487TIP3    H134876   3.626   1.459   3.058 -0.4012 -1.6395  0.8254
 4487TIP3    H234877   3.706   1.432   2.932 -0.3907  0.0351  0.4489
 4488TIP3   OH234878   5.506   5.441   6.440  0.1557  0.1097  0.3861
 4488TIP3    H134879   5.488   5.534   6.424 -2.0184 -0.2321  0.5120
 4488TIP3    H234880   5.518   5.404   6.352 -3.3207 -0.2042 -0.1209
 4489TIP3   OH234881   4.909   3.593   3.489  0.1955  0.1223  0.6724
 4489TIP3    H134882   4.876   3.671   3.535 -0.9992  0.2605 -0.3640
 4489TIP3    H234883   4.947   3.539   3.559  2.6014  2.3376  1.2046
 4490TIP3   OH234884   5.328   5.632   6.317  0.3353  0.3672 -0.0349
 4490TIP3    H134885   5.244   5.677   6.322 -1.2285 -2.4434  2.3940
 4490TIP3    H234886   5.309   5.550   6.273  2.3793  0.5683 -1.4571
 4491TIP3   OH234887   5.780   1.051   0.705 -0.5475 -0.3999  1.0430
 4491TIP3    H134888   5.796   1.110   0.632 -0.0438 -0.2600  1.2661
 4491TIP3    H234889   5.813   1.098   0.782  0.2766 -1.1631  1.1613
 4492TIP3   OH234890   2.391   1.540   2.458  0.1881 -0.5391 -0.1171
 4492TIP3    H134891   2.341   1.588   2.392  0.2201 -3.3658 -2.4116
 4492TIP3    H234892   2.326   1.486   2.503  0.4071  0.1782  1.1015
 4493TIP3   OH234893   2.353   0.516   2.776 -0.3320 -0.2748 -0.3303
 4493TIP3    H134894   2.376   0.564   2.855  0.2899 -0.2630 -0.5158
 4493TIP3    H234895   2.418   0.446   2.769  0.6711  0.7255 -1.7115
 4494TIP3   OH234896   0.914   1.172  14.429  0.0608  0.1090 -0.1724
 4494TIP3    H134897   0.854   1.221  14.485 -0.9060 -1.1420 -0.0820
 4494TIP3    H234898   0.867   1.162  14.346 -0.1143 -1.3560  0.0770
 4495TIP3   OH234899   4.435   4.706   1.620  0.3383  0.0725  0.4015
 4495TIP3    H134900   4.442   4.798   1.645 -0.6664 -0.0981  1.3348
 4495TIP3    H234901   4.344   4.683   1.637  0.7107 -1.2403  0.6970
 4496TIP3   OH234902   4.223   4.667   3.007 -0.3408  0.1551  0.4392
 4496TIP3    H134903   4.179   4.604   2.950  1.0255 -1.3564  0.9576
 4496TIP3    H234904   4.180   4.656   3.092 -0.5866  0.4711  0.3591
 4497TIP3   OH234905   2.293   3.527   2.716  0.7519  0.1589 -0.0865
 4497TIP3    H134906   2.347   3.500   2.789  1.7553  1.8254 -0.1718
 4497TIP3    H234907   2.209   3.484   2.731 -0.2490  2.9607  3.9101
 4498TIP3   OH234908   4.016   0.556  14.248 -0.6862  0.2066 -0.3414
 4498TIP3    H134909   3.988   0.643  14.276  1.0290  0.3720  1.0170
 4498TIP3    H234910   4.056   0.570  14.162 -1.1801  0.6116 -0.5082
 4499TIP3   OH234911   1.217   1.558   2.859 -0.0776  0.2068  0.0974
 4499TIP3    H134912   1.296   1.529   2.904 -0.2156 -0.5881 -0.1576
 4499TIP3    H234913   1.161   1.481   2.856 -1.8038  1.2525  2.2241
 4500TIP3   OH234914   3.263   5.753  14.929  0.3252  0.0116  0.3261
 4500TIP3    H134915   3.190   5.707  14.971 -1.3607  1.4732 -0.8304
 4500TIP3    H234916   3.257   5.842  14.963  0.9155  0.4160 -0.6004
 4501TIP3   OH234917   4.663   4.128   3.355 -0.5687  0.1198  0.2222
 4501TIP3    H134918   4.623   4.083   3.281 -0.4166  0.2549  0.0578
 4501TIP3    H234919   4.590   4.146   3.415 -0.6421 -0.2846  0.2602
 4502TIP3   OH234920   5.986   3.155  14.457 -0.7148 -0.2881  0.4974
 4502TIP3    H134921   5.952   3.244  14.454 -1.8573 -0.6926  0.8577
 4502TIP3    H234922   6.071   3.160  14.413 -1.4333  0.6752 -0.8575
 4503TIP3   OH234923   0.664   2.698  12.990 -0.0611 -0.1254  0.2214
 4503TIP3    H134924   0.676   2.772  12.930 -2.1919 -0.5027 -0.7496
 4503TIP3    H234925   0.725   2.631  12.960  0.8403  0.6784  0.2085
 4504TIP3   OH234926   3.270   3.690   1.785  0.2905 -0.3794  0.4710
 4504TIP3    H134927   3.350   3.720   1.742  1.4632 -1.9111  1.4439
 4504TIP3    H234928   3.199   3.738   1.743  1.5426 -0.4748 -1.8716
 4505TIP3   OH234929   2.880   4.581   3.612 -0.0413 -0.0885  0.1061
 4505TIP3    H134930   2.808   4.564   3.673  0.1467 -0.2000  0.3022
 4505TIP3    H234931   2.955   4.599   3.669 -0.0228  0.4941 -0.0975
 4506TIP3   OH234932   6.540   4.914  17.117 -0.4742  0.1123 -0.5387
 4506TIP3    H134933   6.498   4.880  17.038  0.1263 -1.5931 -0.1742
 4506TIP3    H234934   6.627   4.873  17.118 -0.1776  0.7167  0.6003
 4507TIP3   OH234935   5.985   0.065  11.127  0.0913  0.4434 -0.6320
 4507TIP3    H134936   6.072   0.037  11.154  0.1992  1.2176 -0.1553
 4507TIP3    H234937   5.990   0.161  11.126 -0.7047  0.4885 -0.7629
 4508TIP3   OH234938   6.217   3.341   5.417 -0.4819 -0.5682 -0.1632
 4508TIP3    H134939   6.180   3.371   5.500 -1.5470  3.2523 -1.8209
 4508TIP3    H234940   6.300   3.389   5.408 -1.4425  0.8471 -2.2189
 4509TIP3   OH234941   3.126   2.728   3.070 -0.1740 -0.0369  1.4193
 4509TIP3    H134942   3.170   2.813   3.078  1.0912 -0.6754  1.4718
 4509TIP3    H234943   3.032   2.750   3.070  0.1318  1.4843  0.0293
 4510TIP3   OH234944   6.368   3.413  14.111 -0.0531 -0.1416 -0.1033
 4510TIP3    H134945   6.282   3.447  14.087 -0.2181  0.2113  0.9257
 4510TIP3    H234946   6.419   3.491  14.133  0.4332 -0.3761 -0.3798
 4511TIP3   OH234947   5.968   2.444  13.236 -0.0016 -0.2468  0.1225
 4511TIP3    H134948   5.908   2.446  13.310 -0.7550 -1.1376 -0.4477
 4511TIP3    H234949   6.053   2.423  13.275 -0.6037 -1.8798  0.6253
 4512TIP3   OH234950   5.457   3.555   0.964 -0.1146  0.2397 -0.5140
 4512TIP3    H134951   5.445   3.588   0.875 -0.6837  0.3731 -0.3954
 4512TIP3    H234952   5.446   3.633   1.019 -0.5484  0.0161 -0.2843
 4513TIP3   OH234953   4.877   0.303  14.132  0.4282 -0.3932 -0.1463
 4513TIP3    H134954   4.841   0.251  14.060  1.0690 -0.9952 -0.0490
 4513TIP3    H234955   4.874   0.243  14.207 -1.6636  0.7003  0.7416
 4514TIP3   OH234956   3.518   3.476   1.984 -0.0774  0.1559 -0.0587
 4514TIP3    H134957   3.530   3.436   1.897  1.4370  1.7650 -0.6368
 4514TIP3    H234958   3.423   3.470   2.000 -0.2845 -0.8679 -1.4510
 4515TIP3   OH234959   2.895   3.632  15.514 -0.4561  0.1946  0.3642
 4515TIP3    H134960   2.867   3.571  15.446  0.6467 -0.4300  0.4560
 4515TIP3    H234961   2.815   3.680  15.536 -1.6093 -1.8341  0.9467
 4516TIP3   OH234962   3.480   0.506  14.336 -0.0897 -0.2425 -0.4083
 4516TIP3    H134963   3.484   0.601  14.346 -1.1438 -0.1926 -0.4338
 4516TIP3    H234964   3.513   0.472  14.420  0.6877  0.1280 -0.5529
 4517TIP3   OH234965   1.529   4.476  14.160 -0.0970 -0.2761 -1.0084
 4517TIP3    H134966   1.475   4.555  14.156  1.0847  0.7740  1.4779
 4517TIP3    H234967   1.619   4.509  14.169  0.3963 -1.8521  0.4054
 4518TIP3   OH234968   0.977   2.734   3.286  0.1856 -0.6208 -0.0953
 4518TIP3    H134969   1.024   2.794   3.345 -0.6984 -0.6076  0.6169
 4518TIP3    H234970   0.996   2.647   3.322 -0.6314 -0.5911  0.4245
 4519TIP3   OH234971   3.339   5.342  17.181 -0.2484  0.2930 -0.0397
 4519TIP3    H134972   3.294   5.358  17.098 -2.1838 -2.3489  0.3608
 4519TIP3    H234973   3.427   5.313  17.156 -0.8926 -0.7267 -1.1972
 4520TIP3   OH234974   3.942   5.617  15.411 -0.0315 -0.0668  0.1019
 4520TIP3    H134975   3.884   5.549  15.447  0.5181 -0.5995 -0.0023
 4520TIP3    H234976   3.937   5.606  15.317  0.1755 -0.0624  0.0895
 4521TIP3   OH234977   2.684   1.864  14.503  0.5674 -0.1855  0.3233
 4521TIP3    H134978   2.675   1.843  14.596 -0.3842 -1.4858 -0.0347
 4521TIP3    H234979   2.736   1.793  14.467  1.4056  0.6024 -0.0539
 4522TIP3   OH234980   1.140   0.107  15.692  0.2843  0.0279  0.0736
 4522TIP3    H134981   1.119   0.135  15.603  0.8871  0.3958  0.0433
 4522TIP3    H234982   1.119   0.013  15.693  0.4788 -0.0270 -0.5224
 4523TIP3   OH234983   3.721   0.713   4.939 -0.6650 -0.5675  0.5893
 4523TIP3    H134984   3.776   0.728   4.862 -0.3710 -1.3629  0.6466
 4523TIP3    H234985   3.658   0.785   4.936  1.3911  1.3883  1.4719
 4524TIP3   OH234986   6.143   2.598   3.730 -0.2696 -0.4433  0.6227
 4524TIP3    H134987   6.088   2.520   3.736  1.5162 -1.8569 -0.3973
 4524TIP3    H234988   6.084   2.671   3.749 -2.5331 -1.8459 -0.6443
 4525TIP3   OH234989   1.028   0.643   1.862 -0.1725 -0.4895  0.3316
 4525TIP3    H134990   1.061   0.705   1.797 -0.0953 -0.0346  0.7989
 4525TIP3    H234991   1.075   0.562   1.845  1.4114  0.2032  1.1477
 4526TIP3   OH234992   5.394   2.339   1.748  0.1819 -0.3498 -0.4516
 4526TIP3    H134993   5.345   2.304   1.674 -0.1591  1.0070 -0.9008
 4526TIP3    H234994   5.327   2.378   1.805  0.4581 -1.2208  0.4905
 4527TIP3   OH234995   6.526   3.410  15.453 -0.6156 -0.7243  0.1059
 4527TIP3    H134996   6.448   3.438  15.405 -1.3954 -1.3341  0.9705
 4527TIP3    H234997   6.519   3.315  15.457  0.1349 -0.7794  0.2706
 4528TIP3   OH234998   4.698   4.741   1.442 -0.2920  0.4646  0.3996
 4528TIP3    H134999   4.740   4.813   1.395 -0.8116  0.3669 -0.2203
 4528TIP3    H235000   4.647   4.784   1.511  0.2800  0.6193  0.7372
 4529TIP3   OH235001   5.048   2.865   4.759 -0.0670  0.3466  0.5480
 4529TIP3    H135002   5.015   2.886   4.671 -1.4057 -0.9659  0.6865
 4529TIP3    H235003   5.127   2.813   4.742 -0.7089 -0.5063  0.0860
 4530TIP3   OH235004   5.484   6.539  16.503 -0.8281  0.4615  0.2045
 4530TIP3    H135005   5.403   6.547  16.453 -0.9945  0.5305  0.4886
 4530TIP3    H235006   5.461   6.489  16.581 -0.2077 -1.1552 -0.5907
 4531TIP3   OH235007   0.345   1.412  14.169  0.9712  0.2805 -0.5320
 4531TIP3    H135008   0.309   1.493  14.206  0.7646 -0.0730  0.0673
 4531TIP3    H235009   0.352   1.429  14.076 -3.6833 -0.5937 -1.3010
 4532TIP3   OH235010   5.677   6.169   1.741 -0.3898 -0.2409  0.0374
 4532TIP3    H135011   5.725   6.088   1.724  1.8890  0.5681  1.9841
 4532TIP3    H235012   5.740   6.238   1.721 -0.8005  0.8959  2.3363
 4533TIP3   OH235013   6.040   4.222   5.776  0.1172 -0.9144 -0.2260
 4533TIP3    H135014   6.049   4.214   5.681 -2.0941  1.1026 -0.7057
 4533TIP3    H235015   5.977   4.153   5.799 -1.1315  0.0373 -0.6522
 4534TIP3   OH235016   2.291   6.323  15.853 -0.9390 -0.3454 -0.1807
 4534TIP3    H135017   2.201   6.327  15.886 -0.6520 -0.7514  0.6876
 4534TIP3    H235018   2.344   6.305  15.930  0.0758  1.4387 -0.4178
 4535TIP3   OH235019   6.279   4.179   4.515  0.2264  0.1790 -0.5702
 4535TIP3    H135020   6.297   4.092   4.550  0.0346 -1.1901 -3.5400
 4535TIP3    H235021   6.186   4.193   4.534  0.6469  0.5210  1.3914
 4536TIP3   OH235022   6.437   1.506  17.007 -0.5337 -0.3297  0.0903
 4536TIP3    H135023   6.528   1.480  16.993 -0.4921  0.4161 -1.2118
 4536TIP3    H235024   6.440   1.561  17.086  0.2006 -0.0123 -0.1515
 4537TIP3   OH235025   6.227   6.212   0.985  0.6530 -0.1479 -0.3408
 4537TIP3    H135026   6.254   6.130   1.027  2.7012  0.3831 -0.5263
 4537TIP3    H235027   6.229   6.192   0.892  1.8738  0.2690 -0.4271
 4538TIP3   OH235028   0.238   6.674  14.295 -0.4122 -0.1982  0.5078
 4538TIP3    H135029   0.276   6.751  14.253  1.8276 -0.6093  1.6741
 4538TIP3    H235030   0.249   6.603  14.232  0.7875 -0.3003  0.8090
 4539TIP3   OH235031   4.927   6.247   5.286  0.1300  0.2618 -0.1470
 4539TIP3    H135032   4.901   6.264   5.377 -0.4835  0.4801 -0.3526
 4539TIP3    H235033   4.853   6.279   5.234  0.6945  0.6077 -0.7525
 4540TIP3   OH235034   1.130   2.787   1.333 -0.0281 -0.0292 -0.5827
 4540TIP3    H135035   1.168   2.867   1.298 -0.0047 -0.2069 -0.9677
 4540TIP3    H235036   1.205   2.729   1.350 -0.1078 -0.3012 -1.1442
 4541TIP3   OH235037   1.016   2.485   3.056 -0.0674 -0.3129 -0.7541
 4541TIP3    H135038   1.050   2.422   3.119 -0.3453  0.9197  0.6715
 4541TIP3    H235039   1.089   2.500   2.996  1.9877  2.0694  2.0764
 4542TIP3   OH235040   2.877   3.902  10.950 -0.5126  0.1872 -0.3266
 4542TIP3    H135041   2.787   3.872  10.937 -0.4015 -0.2182 -0.1814
 4542TIP3    H235042   2.931   3.828  10.922 -0.2472 -0.1868  1.0678
 4543TIP3   OH235043   4.119   4.992  17.182  0.3020  0.0022 -0.1977
 4543TIP3    H135044   4.077   4.939  17.250 -0.5029  0.6225 -0.2008
 4543TIP3    H235045   4.210   4.963  17.183  0.3622  0.1497  1.2917
 4544TIP3   OH235046   6.243   1.170  10.918  0.2946  0.2421  0.3983
 4544TIP3    H135047   6.276   1.257  10.940  0.4534 -0.2027  2.0784
 4544TIP3    H235048   6.174   1.186  10.853  1.2794  1.4760 -0.3876
 4545TIP3   OH235049   0.817   4.355   2.188 -0.4649  0.0013 -0.0621
 4545TIP3    H135050   0.852   4.335   2.275  0.8717 -1.3849 -0.8553
 4545TIP3    H235051   0.861   4.292   2.130 -1.4396  0.7816 -1.7171
 4546TIP3   OH235052   2.177   1.502   2.612  0.2273  0.0457 -0.0506
 4546TIP3    H135053   2.159   1.416   2.649  0.6204  0.1071  0.2892
 4546TIP3    H235054   2.156   1.563   2.682 -3.2383  0.4928 -1.2994
 4547TIP3   OH235055   5.399   2.686  12.460 -1.1327 -0.2855 -0.5342
 4547TIP3    H135056   5.389   2.686  12.365  0.1070 -1.9625 -0.7138
 4547TIP3    H235057   5.455   2.610  12.478 -0.7315  0.4281  1.4729
 4548TIP3   OH235058   6.230   5.096   0.393 -0.2705  0.3956  0.0454
 4548TIP3    H135059   6.230   5.170   0.332  1.0484  0.1406 -0.2901
 4548TIP3    H235060   6.188   5.131   0.472 -1.1725  0.9942 -0.6793
 4549TIP3   OH235061   3.300   4.680   5.666 -0.5138  0.0896  0.5930
 4549TIP3    H135062   3.381   4.717   5.701 -1.2176  1.5430  0.7647
 4549TIP3    H235063   3.304   4.697   5.572  0.9967 -3.0832 -0.0370
 4550TIP3   OH235064   1.908   2.781   0.027  0.2958 -0.3602  0.2535
 4550TIP3    H135065   1.822   2.744   0.008 -0.4699  1.1948  0.5270
 4550TIP3    H235066   1.908   2.791   0.122 -0.3662  2.2041  0.0408
 4551TIP3   OH235067   1.035   6.539   1.887  0.2712  0.3816 -0.2679
 4551TIP3    H135068   1.125   6.508   1.876  0.8235  0.5562  2.7987
 4551TIP3    H235069   1.043   6.634   1.892 -0.0362  0.3872  0.2066
 4552TIP3   OH235070   5.352   1.549  17.126 -0.2405 -0.4345  0.1491
 4552TIP3    H135071   5.301   1.614  17.175 -0.0667 -0.0450 -0.1745
 4552TIP3    H235072   5.348   1.580  17.035 -0.3709 -1.0214 -0.0478
 4553TIP3   OH235073   6.710   6.157  11.343  0.0818 -0.1414 -0.7579
 4553TIP3    H135074   6.762   6.167  11.263  2.1714  1.4226  0.6957
 4553TIP3    H235075   6.763   6.197  11.411 -1.8229 -1.0478  1.3793
 4554TIP3   OH235076   0.473   2.773   6.864 -0.6715 -0.3036  0.0111
 4554TIP3    H135077   0.393   2.745   6.819 -0.2290 -3.0642  0.7891
 4554TIP3    H235078   0.539   2.709   6.838  1.4636  2.0964 -0.8936
 4555TIP3   OH235079   0.351   5.074  16.311  0.2181  0.0617  0.3286
 4555TIP3    H135080   0.294   5.079  16.235 -1.2681 -2.1663  1.1838
 4555TIP3    H235081   0.417   5.141  16.296 -0.8576  0.6760 -2.1943
 4556TIP3   OH235082   2.922   2.970  15.982 -0.0850  0.2190 -0.2508
 4556TIP3    H135083   2.969   2.894  15.948 -1.5060  0.2181 -2.3404
 4556TIP3    H235084   2.830   2.948  15.973 -0.5679  2.4789 -1.7550
 4557TIP3   OH235085   6.633   5.029  12.680 -0.5690 -0.1097  0.2088
 4557TIP3    H135086   6.616   5.118  12.650 -0.5724 -0.5208 -1.0758
 4557TIP3    H235087   6.651   4.980  12.599  0.2996 -1.0787  0.9745
 4558TIP3   OH235088   5.848   2.293   6.915 -0.1098  0.0274  0.3447
 4558TIP3    H135089   5.771   2.325   6.868 -0.3454  0.2034  0.8382
 4558TIP3    H235090   5.838   2.329   7.003  0.5017 -0.0137  0.4316
 4559TIP3   OH235091   4.872   0.994   0.440 -0.4856  1.0685 -0.5882
 4559TIP3    H135092   4.966   1.006   0.427 -0.3069  0.8613  0.4354
 4559TIP3    H235093   4.833   1.012   0.354  0.6101 -0.3022 -1.3982
 4560TIP3   OH235094   3.711   0.416   2.363 -0.4521  0.1716  0.2182
 4560TIP3    H135095   3.697   0.509   2.346 -0.1147  0.2662  0.4406
 4560TIP3    H235096   3.803   0.401   2.342 -0.2365  0.1189  1.1411
 4561TIP3   OH235097   6.424   0.879  11.507  0.6626  0.3979 -0.2449
 4561TIP3    H135098   6.375   0.952  11.543  0.5716  0.7250 -1.0109
 4561TIP3    H235099   6.515   0.896  11.532  0.5684  0.4727  0.0540
 4562TIP3   OH235100   6.751   5.215  12.472  0.2149 -0.1820 -0.6724
 4562TIP3    H135101   6.823   5.160  12.501 -0.3049 -0.8440 -0.6081
 4562TIP3    H235102   6.772   5.302  12.506 -0.0378 -0.7786  1.1513
 4563TIP3   OH235103   5.240   1.363   2.295  0.5977  0.6414 -0.2069
 4563TIP3    H135104   5.214   1.310   2.220  0.0469  1.3912 -0.5706
 4563TIP3    H235105   5.216   1.453   2.270 -0.8409  0.7562  1.3890
 4564TIP3   OH235106   3.291   5.793  10.894 -0.3672 -0.4662 -0.2188
 4564TIP3    H135107   3.283   5.888  10.907  0.7821 -0.2351 -1.0103
 4564TIP3    H235108   3.229   5.755  10.955 -1.7309  0.8432 -0.7381
 4565TIP3   OH235109   4.739   0.222  13.914  0.5923 -0.0455  0.5482
 4565TIP3    H135110   4.752   0.138  13.871  1.2337  1.4921 -2.5237
 4565TIP3    H235111   4.649   0.220  13.946 -0.1444 -1.0906 -1.4695
 4566TIP3   OH235112   6.697   0.641   3.752  0.6587  0.2210 -0.1132
 4566TIP3    H135113   6.754   0.606   3.684  0.0605 -0.3761 -0.3194
 4566TIP3    H235114   6.619   0.584   3.750  0.4394  0.4736  0.7551
 4567TIP3   OH235115   2.499   3.542   1.937  0.0096  0.0344 -0.1535
 4567TIP3    H135116   2.484   3.543   2.032  0.6120  1.6144 -0.0477
 4567TIP3    H235117   2.591   3.564   1.927 -0.3340  1.1086 -1.1338
 4568TIP3   OH235118   2.316   2.844   3.864 -0.2116 -0.2363  0.3296
 4568TIP3    H135119   2.300   2.800   3.947 -0.1266 -3.3200 -1.1187
 4568TIP3    H235120   2.230   2.852   3.823 -0.2536  1.2509  0.6731
 4569TIP3   OH235121   3.406   6.329  13.681  0.7408 -0.2156  0.0348
 4569TIP3    H135122   3.442   6.280  13.756 -0.7300 -4.1348 -1.5392
 4569TIP3    H235123   3.316   6.347  13.706  0.1053 -1.9565 -0.8815
 4570TIP3   OH235124   0.789   5.292   2.151  0.3051  0.0144 -0.7072
 4570TIP3    H135125   0.733   5.323   2.079  0.0484  0.5817 -0.2764
 4570TIP3    H235126   0.740   5.220   2.190  0.2982 -0.0857 -0.8979
 4571TIP3   OH235127   0.866   1.554   2.633 -0.0803 -0.2172  0.3170
 4571TIP3    H135128   0.781   1.595   2.647  0.5741  0.4646  2.6647
 4571TIP3    H235129   0.857   1.465   2.664 -0.1006 -0.3330 -0.0167
 4572TIP3   OH235130   5.028   1.032  14.946 -0.5938 -0.1555  0.4048
 4572TIP3    H135131   5.059   1.120  14.923 -0.9099 -0.4110 -1.0635
 4572TIP3    H235132   4.958   1.048  15.010 -0.5924  0.6631  0.2191
 4573TIP3   OH235133   0.039   2.851   1.660 -0.0801  0.8112 -0.4019
 4573TIP3    H135134   0.003   2.763   1.653  0.0239  0.8994 -3.8813
 4573TIP3    H235135   0.134   2.839   1.652  0.0306  1.1697  0.3202
 4574TIP3   OH235136   3.052   1.033   1.610 -0.1020  0.0544 -0.2620
 4574TIP3    H135137   3.032   1.120   1.646 -3.1018 -0.1968 -1.0259
 4574TIP3    H235138   3.053   0.975   1.686 -1.8370  0.2485 -0.0386
 4575TIP3   OH235139   0.501   2.383  11.269  0.2786  0.0199  0.3151
 4575TIP3    H135140   0.546   2.323  11.209 -0.1272 -0.9156  0.9119
 4575TIP3    H235141   0.560   2.458  11.277  0.7105 -0.2009 -0.6086
 4576TIP3   OH235142   0.091   4.780  14.491 -0.3349  0.0128 -0.3021
 4576TIP3    H135143   0.155   4.808  14.425  0.9790 -1.3132  0.3533
 4576TIP3    H235144   0.019   4.743  14.441  0.3493 -0.3715 -1.0118
 4577TIP3   OH235145   1.090   6.045   2.033 -0.2188 -0.2597  0.1164
 4577TIP3    H135146   1.038   6.124   2.019 -0.1615 -0.4344 -1.2112
 4577TIP3    H235147   1.160   6.073   2.093  0.6206  1.0982 -1.4025
 4578TIP3   OH235148   5.164   6.079   3.023  0.5245 -0.4084 -0.0837
 4578TIP3    H135149   5.154   6.160   2.972  1.6917  0.5980  1.2184
 4578TIP3    H235150   5.102   6.018   2.983  0.2235  0.8574 -1.6387
 4579TIP3   OH235151   0.284   0.575  17.056  0.0499  0.1595  0.0675
 4579TIP3    H135152   0.226   0.636  17.100  0.4673  0.2433  0.5089
 4579TIP3    H235153   0.353   0.557  17.120  1.1701  0.9918 -0.8659
 4580TIP3   OH235154   3.379   3.616   3.484 -0.6310 -0.0607 -0.0305
 4580TIP3    H135155   3.423   3.531   3.480  0.9732  0.7413 -0.4814
 4580TIP3    H235156   3.363   3.639   3.392  2.2631  1.6972 -0.2108
 4581TIP3   OH235157   0.174   6.668  13.458 -0.0491 -0.1959  0.2571
 4581TIP3    H135158   0.255   6.617  13.460 -0.4375 -0.9001 -0.9446
 4581TIP3    H235159   0.183   6.725  13.382 -0.4659  0.1040  0.4282
 4582TIP3   OH235160   4.510   1.994  11.408 -0.1559 -0.3868 -0.1041
 4582TIP3    H135161   4.507   2.004  11.313  1.0022  0.3407 -0.0759
 4582TIP3    H235162   4.493   1.901  11.423 -3.2660 -0.0315 -0.8311
 4583TIP3   OH235163   5.109   5.930   5.998  0.0033 -0.0408  0.9747
 4583TIP3    H135164   5.027   5.968   5.965 -1.0640 -3.6419 -1.1114
 4583TIP3    H235165   5.100   5.935   6.093 -2.6724 -0.2082  0.8242
 4584TIP3   OH235166   4.303   4.002  12.079 -0.2990  1.2370  0.0990
 4584TIP3    H135167   4.337   3.967  12.161 -1.4646  0.8807  0.4558
 4584TIP3    H235168   4.252   3.930  12.042  0.1683  1.4082 -0.9278
 4585TIP3   OH235169   3.210   3.176  11.979 -0.0444  0.1627  0.1733
 4585TIP3    H135170   3.165   3.225  11.911 -1.0288  0.6281  1.1276
 4585TIP3    H235171   3.181   3.086  11.968 -1.6401  0.5359  1.0785
 4586TIP3   OH235172   5.799   3.290  11.801  0.7873 -0.0578 -0.3455
 4586TIP3    H135173   5.832   3.266  11.888  1.9362 -0.4827 -0.8796
 4586TIP3    H235174   5.715   3.333  11.818  1.4624  0.7875  1.0586
 4587TIP3   OH235175   0.984   4.152   5.164  0.2295 -0.3872  0.5357
 4587TIP3    H135176   1.075   4.131   5.186 -0.1885 -2.0746  0.8534
 4587TIP3    H235177   0.935   4.075   5.193 -1.3963  0.7798  0.9945
 4588TIP3   OH235178   4.859   5.747  15.117 -0.4533  0.1045  0.3289
 4588TIP3    H135179   4.848   5.692  15.039 -1.8735  0.0754  0.5183
 4588TIP3    H235180   4.845   5.687  15.190 -0.6757  0.4423  0.5667
 4589TIP3   OH235181   1.660   4.433  13.400 -0.6872  0.1049  0.3550
 4589TIP3    H135182   1.619   4.489  13.466 -1.0334 -0.0360  0.2596
 4589TIP3    H235183   1.591   4.417  13.335 -0.3319  0.2861 -0.0675
 4590TIP3   OH235184   2.744   3.072   4.836 -0.2038  0.0197 -0.6173
 4590TIP3    H135185   2.722   2.982   4.813 -3.2458  0.6781 -0.6428
 4590TIP3    H235186   2.746   3.073   4.932  2.0175 -0.4692 -0.6050
 4591TIP3   OH235187   5.362   0.064  12.406  0.1540  0.4042 -0.4995
 4591TIP3    H135188   5.437   0.114  12.437 -0.2522 -1.3528  4.2538
 4591TIP3    H235189   5.399  -0.021  12.380  0.1112  0.5043 -0.8809
 4592TIP3   OH235190   1.848   3.242  13.372 -0.4463  0.8796  0.0439
 4592TIP3    H135191   1.763   3.204  13.351 -0.9145  2.5289 -1.2699
 4592TIP3    H235192   1.829   3.319  13.425  0.1756  1.4580 -0.5423
 4593TIP3   OH235193   3.334   3.900   5.676  0.3091  0.0284  0.4159
 4593TIP3    H135194   3.265   3.838   5.701 -0.6269 -0.0021 -1.9720
 4593TIP3    H235195   3.291   3.985   5.680  1.0039  0.3380  1.6987
 4594TIP3   OH235196   4.372   0.823  14.820 -0.2281  0.4819 -0.0045
 4594TIP3    H135197   4.392   0.757  14.886 -0.1916  0.7540  0.2597
 4594TIP3    H235198   4.448   0.823  14.762  0.2866  1.0898  0.6502
 4595TIP3   OH235199   3.584   6.235   4.684 -0.6275  0.5083 -0.2291
 4595TIP3    H135200   3.512   6.222   4.747 -1.4825 -0.1990 -1.3204
 4595TIP3    H235201   3.541   6.238   4.599  0.6419 -0.0017 -0.9103
 4596TIP3   OH235202   1.551   6.400  12.342 -0.3297  0.0932  0.7419
 4596TIP3    H135203   1.603   6.480  12.345 -0.2196  0.0725 -0.3201
 4596TIP3    H235204   1.474   6.424  12.289 -0.2692 -0.5090  0.3757
 4597TIP3   OH235205   2.831   4.124   1.334  0.2119 -0.3595 -0.0168
 4597TIP3    H135206   2.754   4.158   1.380 -0.0891 -0.1035 -0.6983
 4597TIP3    H235207   2.800   4.046   1.288  0.8859 -1.5513  1.4816
 4598TIP3   OH235208   4.087   4.207  15.582  0.5682 -0.8297  0.1320
 4598TIP3    H135209   4.010   4.255  15.551 -0.4910 -0.8404  2.5189
 4598TIP3    H235210   4.116   4.156  15.506 -0.7783  0.4171 -1.2818
 4599TIP3   OH235211   6.388   1.047   2.876  0.1112  0.5022  0.0795
 4599TIP3    H135212   6.423   1.127   2.837  0.5045 -0.2840 -1.2540
 4599TIP3    H235213   6.395   0.981   2.806 -1.6237 -0.3213  0.6283
 4600TIP3   OH235214   2.397   4.905  12.677 -0.4426  0.2364 -0.2546
 4600TIP3    H135215   2.370   4.894  12.586  0.2771 -0.1557 -0.4222
 4600TIP3    H235216   2.402   5.000  12.690  1.1814  0.3041 -1.1517
 4601TIP3   OH235217   4.400   2.139  13.219  0.2058  0.4940  0.6245
 4601TIP3    H135218   4.478   2.110  13.173  0.2256  0.2967  0.7835
 4601TIP3    H235219   4.432   2.190  13.293  0.1669  1.0885  0.2405
 4602TIP3   OH235220   4.968   1.472  11.566  0.1330 -0.2508 -0.1836
 4602TIP3    H135221   5.044   1.477  11.624 -1.3012  0.5644  1.7328
 4602TIP3    H235222   5.005   1.459  11.479  2.4351 -0.3071  0.7334
 4603TIP3   OH235223   1.685   0.565  14.622 -0.2159  0.3836  0.2306
 4603TIP3    H135224   1.752   0.498  14.608 -0.5118  0.0102  0.5546
 4603TIP3    H235225   1.602   0.520  14.607 -0.4077  0.7433  0.2005
 4604TIP3   OH235226   6.016   4.653  12.276  0.4976  0.3707  0.1961
 4604TIP3    H135227   6.016   4.739  12.234  2.2765 -0.7788 -2.4527
 4604TIP3    H235228   5.963   4.664  12.355 -0.3283  3.5528 -0.6792
 4605TIP3   OH235229   0.462   5.883  15.176  0.2265  0.3786  0.2531
 4605TIP3    H135230   0.507   5.829  15.110  0.7471  2.1658 -0.9210
 4605TIP3    H235231   0.528   5.902  15.242  0.3284  0.4462  0.1308
 4606TIP3   OH235232   1.427   4.174   4.261  0.1696 -0.2124  0.0028
 4606TIP3    H135233   1.487   4.149   4.331 -1.4229  0.8421  1.8317
 4606TIP3    H235234   1.340   4.146   4.292 -0.4829 -0.5538 -1.9859
 4607TIP3   OH235235   3.903   3.289   6.612 -0.4824  0.0010  0.0314
 4607TIP3    H135236   3.815   3.254   6.597 -0.5394  0.0197  0.3186
 4607TIP3    H235237   3.958   3.211   6.620 -0.2266 -0.0142 -1.5300
 4608TIP3   OH235238   6.378   3.855   4.199 -0.1958  0.5124  0.0682
 4608TIP3    H135239   6.418   3.810   4.273 -0.9755  0.3041  0.3727
 4608TIP3    H235240   6.309   3.909   4.237 -0.3732  0.6735 -0.4647
 4609TIP3   OH235241   0.257   2.232  15.527 -0.3789  0.5220 -0.1707
 4609TIP3    H135242   0.228   2.238  15.618  0.1059  0.6245 -0.0168
 4609TIP3    H235243   0.192   2.281  15.477 -1.7318 -1.1405 -0.1440
 4610TIP3   OH235244   1.936   2.523  15.100  0.3260  0.0064  0.4546
 4610TIP3    H135245   1.860   2.571  15.067  1.7314  1.3228 -1.0175
 4610TIP3    H235246   1.963   2.573  15.177 -1.2143 -1.4078  1.9962
 4611TIP3   OH235247   2.858   4.591  10.910 -0.5523 -0.0240  0.0214
 4611TIP3    H135248   2.781   4.582  10.966  0.4322 -0.5699  1.3480
 4611TIP3    H235249   2.883   4.501  10.888 -0.3245  0.1495 -0.4484
 4612TIP3   OH235250   3.298   4.048   5.937  0.1645 -0.2307 -0.0560
 4612TIP3    H135251   3.345   3.978   5.984  0.5975  1.8014  2.7972
 4612TIP3    H235252   3.210   4.048   5.976 -0.0610  0.3383 -0.5497
 4613TIP3   OH235253   0.246   6.067  15.139  0.4211  0.6939  0.7612
 4613TIP3    H135254   0.167   6.015  15.152  0.4138  0.8406  1.3150
 4613TIP3    H235255   0.317   6.011  15.171  0.5807  0.4512  0.0113
 4614TIP3   OH235256   0.041   3.051   5.017 -0.7663  0.3916 -0.9980
 4614TIP3    H135257   0.068   3.008   4.936 -0.4732  1.9961 -1.8094
 4614TIP3    H235258  -0.033   3.106   4.991 -0.0853  1.6346 -0.3897
 4615TIP3   OH235259   6.530   4.234   1.851  0.0027  0.1061 -0.3598
 4615TIP3    H135260   6.563   4.301   1.910  3.0284 -2.0455  0.6547
 4615TIP3    H235261   6.511   4.159   1.908 -1.3344 -0.6037 -1.6545
 4616TIP3   OH235262   4.829   5.475   1.901  0.5000 -0.3948  0.1647
 4616TIP3    H135263   4.924   5.492   1.901  0.1878  1.6720 -0.4096
 4616TIP3    H235264   4.809   5.453   1.810  0.6629 -2.6315  0.6276
 4617TIP3   OH235265   0.209   5.763   0.487  0.2884 -0.3818  0.5778
 4617TIP3    H135266   0.183   5.671   0.490  2.0546 -0.8908  1.9314
 4617TIP3    H235267   0.269   5.769   0.412 -0.3624 -0.1525  0.0627
 4618TIP3   OH235268   6.734   1.771   0.622  0.0369  0.3393  0.3630
 4618TIP3    H135269   6.817   1.810   0.596 -0.0925  0.7902  0.6265
 4618TIP3    H235270   6.753   1.677   0.629  0.5316  0.4455  0.4695
 4619TIP3   OH235271   0.880   5.916  17.046  0.2689  0.2371  0.0271
 4619TIP3    H135272   0.895   5.837  16.994  0.5197 -1.3838  2.4533
 4619TIP3    H235273   0.808   5.960  17.000 -1.6533 -2.7121 -0.0590
 4620TIP3   OH235274   0.178   0.274  14.357  0.2678  0.2019  0.2983
 4620TIP3    H135275   0.225   0.290  14.439 -0.5323 -0.7112  0.9550
 4620TIP3    H235276   0.193   0.353  14.305  0.0319  1.1979  1.6852
 4621TIP3   OH235277   2.461   4.774   2.942 -0.0013 -0.5162  0.4757
 4621TIP3    H135278   2.556   4.772   2.952 -0.0756 -3.0072  1.5955
 4621TIP3    H235279   2.431   4.833   3.011  0.6852 -0.5144  0.7829
 4622TIP3   OH235280   2.734   3.577   0.536  0.0910 -0.7963 -0.0547
 4622TIP3    H135281   2.789   3.515   0.585 -1.1339  0.1808  2.7968
 4622TIP3    H235282   2.796   3.634   0.492  1.2674 -2.2962 -0.4221
 4623TIP3   OH235283   1.286   2.272  14.105  0.1265 -0.1573 -0.4682
 4623TIP3    H135284   1.318   2.199  14.157 -0.2454 -0.7756 -1.0863
 4623TIP3    H235285   1.354   2.286  14.039 -0.7098 -1.3135 -1.6307
 4624TIP3   OH235286   1.907   3.095   2.395 -0.3432  0.0212 -0.3912
 4624TIP3    H135287   1.956   3.171   2.429 -1.2289  0.6099 -0.3987
 4624TIP3    H235288   1.817   3.110   2.423 -0.9709  0.1334 -2.3242
 4625TIP3   OH235289   4.337   5.728   3.378  0.4626 -0.4252 -0.0176
 4625TIP3    H135290   4.324   5.647   3.328 -1.1583 -1.7392  2.3544
 4625TIP3    H235291   4.430   5.729   3.399  0.4327 -1.9481  0.2854
 4626TIP3   OH235292   3.339   4.663  14.315 -0.4450  0.1951  0.3610
 4626TIP3    H135293   3.396   4.725  14.360 -1.9269  3.0748 -1.4357
 4626TIP3    H235294   3.256   4.669  14.362 -0.5474 -0.6010  0.2871
 4627TIP3   OH235295   1.885   5.777  16.389 -0.8419  0.1736  0.2047
 4627TIP3    H135296   1.847   5.772  16.477 -2.0940  0.3572 -0.3043
 4627TIP3    H235297   1.871   5.868  16.362 -0.7602  0.0375 -0.3079
 4628TIP3   OH235298   0.127   3.629   0.658 -0.0666 -0.2188 -0.0812
 4628TIP3    H135299   0.189   3.570   0.615  0.7378  0.0117  0.7385
 4628TIP3    H235300   0.045   3.579   0.660  0.7105 -1.5017  0.9756
 4629TIP3   OH235301   6.129   0.359  13.609  0.2188 -0.4349 -0.2670
 4629TIP3    H135302   6.081   0.305  13.547  0.5891 -1.5478  0.3930
 4629TIP3    H235303   6.077   0.439  13.617  0.1403 -0.2900 -1.9567
 4630TIP3   OH235304   6.480   4.530   3.760  0.0041 -0.2747  0.2198
 4630TIP3    H135305   6.399   4.581   3.767 -0.4864 -1.0702  0.5516
 4630TIP3    H235306   6.457   4.445   3.798 -0.0580 -1.7480 -2.8084
 4631TIP3   OH235307   4.284   6.652   1.704  0.2249  0.1184 -0.1586
 4631TIP3    H135308   4.298   6.568   1.661  0.4481  1.4656 -2.9545
 4631TIP3    H235309   4.228   6.701   1.643 -0.4708  1.7651  1.7045
 4632TIP3   OH235310   2.279   3.154   1.168  0.5529  0.4261  0.1076
 4632TIP3    H135311   2.314   3.097   1.236 -0.7256 -0.9977 -0.3623
 4632TIP3    H235312   2.343   3.224   1.159  1.9516 -0.6959  1.0460
 4633TIP3   OH235313   2.665   6.116   0.996  0.4193 -0.3727  0.3813
 4633TIP3    H135314   2.645   6.122   1.090 -3.4219 -0.1872 -0.2811
 4633TIP3    H235315   2.656   6.023   0.976  0.2897 -0.2917  0.0583
 4634TIP3   OH235316   5.051   1.954   4.723  0.6932 -0.4495  0.3603
 4634TIP3    H135317   4.960   1.929   4.707  0.6223 -0.5173  0.8379
 4634TIP3    H235318   5.094   1.946   4.638  0.0190  0.5880 -0.0977
 4635TIP3   OH235319   2.979   3.751  16.413 -0.2523 -0.3877 -0.5192
 4635TIP3    H135320   2.954   3.735  16.503 -0.5363  1.9464 -0.1359
 4635TIP3    H235321   3.055   3.809  16.419  0.1414 -0.7332 -1.7861
 4636TIP3   OH235322   6.035   1.566  11.372 -0.2561 -0.0038  0.1303
 4636TIP3    H135323   6.107   1.525  11.324 -0.2325  0.3638 -0.1607
 4636TIP3    H235324   6.073   1.644  11.411 -1.0923  1.8402 -2.4378
 4637TIP3   OH235325   3.183   0.763   3.884  0.3055 -0.0085  0.0924
 4637TIP3    H135326   3.095   0.761   3.845  1.0510  0.1688 -1.6749
 4637TIP3    H235327   3.235   0.707   3.827  1.1603 -0.8912  1.6665
 4638TIP3   OH235328   1.354   3.979  11.350 -0.2045 -0.6166 -0.0847
 4638TIP3    H135329   1.295   3.966  11.423 -1.8545 -0.5766 -1.3473
 4638TIP3    H235330   1.316   3.929  11.278  1.5108 -0.8930 -0.8605
 4639TIP3   OH235331   3.517   0.969   0.264  0.4497  0.1402  0.3422
 4639TIP3    H135332   3.455   1.028   0.306 -1.3173 -1.5925  0.2918
 4639TIP3    H235333   3.526   1.002   0.175  0.4343  1.0107  0.6548
 4640TIP3   OH235334   4.909   0.658  14.620  0.2163 -0.2193 -0.6742
 4640TIP3    H135335   4.911   0.750  14.647  0.3192 -0.2066 -0.7256
 4640TIP3    H235336   4.907   0.662  14.524 -0.2015 -0.2621 -0.6711
 4641TIP3   OH235337   0.436   4.706   0.308 -0.1806 -0.2091 -0.2923
 4641TIP3    H135338   0.364   4.711   0.371 -0.1347 -2.3238  0.0156
 4641TIP3    H235339   0.396   4.675   0.227  0.0695  0.5963 -0.7285
 4642TIP3   OH235340   5.045   5.068  11.051 -0.2311  0.1245 -0.1888
 4642TIP3    H135341   4.962   5.115  11.047  0.3106  1.0462 -2.1911
 4642TIP3    H235342   5.021   4.976  11.051 -1.2654  0.3889  0.3659
 4643TIP3   OH235343   0.461   0.410  14.384 -0.0496 -0.1503 -0.2969
 4643TIP3    H135344   0.541   0.431  14.334 -0.1911 -2.3045 -1.5606
 4643TIP3    H235345   0.486   0.422  14.475  1.1205  1.0486 -0.7319
 4644TIP3   OH235346   4.900   5.991   4.211 -0.3864 -0.1016  0.7358
 4644TIP3    H135347   4.928   6.055   4.147 -0.7484 -1.3504 -0.7368
 4644TIP3    H235348   4.907   5.907   4.166 -1.6371 -0.9303  1.9844
 4645TIP3   OH235349   0.508   4.120  11.257  0.4805  0.2196  0.1912
 4645TIP3    H135350   0.585   4.098  11.204 -0.0735 -1.7634  0.1194
 4645TIP3    H235351   0.433   4.095  11.202 -0.1634  0.2826  1.0209
 4646TIP3   OH235352   2.817   4.104  12.571  0.0567  0.0349  0.0843
 4646TIP3    H135353   2.879   4.129  12.640 -0.9058 -0.8625  1.3053
 4646TIP3    H235354   2.833   4.011  12.557  0.1211  0.1709 -0.8013
 4647TIP3   OH235355   0.634   3.316  15.640 -0.1693 -0.3216  0.0395
 4647TIP3    H135356   0.546   3.310  15.678 -0.1005 -2.6428 -0.0474
 4647TIP3    H235357   0.618   3.338  15.548 -0.7736 -1.8054 -0.2478
 4648TIP3   OH235358   3.981   4.690  14.929 -0.3155 -0.7374 -0.7577
 4648TIP3    H135359   3.898   4.727  14.898  0.3473  0.5738 -1.0251
 4648TIP3    H235360   3.975   4.695  15.025  0.0375  0.7585 -0.7885
 4649TIP3   OH235361   4.885   6.652  13.436 -0.2854  1.0353  0.7274
 4649TIP3    H135362   4.796   6.641  13.469 -0.7205  1.3760 -0.2820
 4649TIP3    H235363   4.889   6.595  13.359 -0.5106  3.0267 -0.8181
 4650TIP3   OH235364   0.480   1.417   0.383  0.3505  0.1380  0.4965
 4650TIP3    H135365   0.492   1.323   0.375 -0.1839  0.0989  0.1245
 4650TIP3    H235366   0.492   1.450   0.294 -3.8719 -0.0930 -0.3738
 4651TIP3   OH235367   2.723   2.230  17.123 -0.1583  0.0674 -0.1741
 4651TIP3    H135368   2.642   2.280  17.114 -0.2578 -0.4320 -2.5215
 4651TIP3    H235369   2.708   2.150  17.073  0.8496 -1.2932  1.5853
 4652TIP3   OH235370   4.827   4.149  15.832 -0.0676  0.3626  0.2900
 4652TIP3    H135371   4.748   4.163  15.781 -0.8866  0.9138  1.6491
 4652TIP3    H235372   4.806   4.182  15.919  2.3439  2.5825  0.1888
 4653TIP3   OH235373   4.444   2.283   4.117 -0.2858 -0.0388  0.3915
 4653TIP3    H135374   4.398   2.337   4.182  0.5103 -0.6177  1.4844
 4653TIP3    H235375   4.413   2.194   4.134 -0.4158 -0.1389 -0.3423
 4654TIP3   OH235376   3.026   3.920  15.622  0.6486 -0.5890  0.3300
 4654TIP3    H135377   2.989   3.831  15.621 -0.1031 -0.2907  1.0917
 4654TIP3    H235378   2.966   3.971  15.676  1.4363  0.2369  0.4466
 4655TIP3   OH235379   2.512   6.393  16.361 -0.3074  0.1341 -0.2509
 4655TIP3    H135380   2.443   6.459  16.370 -0.2543  0.2668 -0.8009
 4655TIP3    H235381   2.468   6.310  16.382 -0.1566  0.4262  1.3584
 4656TIP3   OH235382   0.091   5.243   2.129 -0.5775  0.1408  0.3069
 4656TIP3    H135383   0.148   5.219   2.056 -0.4891  1.6944 -0.1861
 4656TIP3    H235384   0.132   5.202   2.205  0.8737  0.6881 -0.1309
 4657TIP3   OH235385   1.696   1.319   1.658  0.0559 -0.1392  0.3034
 4657TIP3    H135386   1.696   1.396   1.715 -0.7547 -0.6153  0.9845
 4657TIP3    H235387   1.785   1.313   1.625  1.4267 -1.4710  3.7769
 4658TIP3   OH235388   4.878   1.736  15.223  0.3130 -0.1234 -0.7669
 4658TIP3    H135389   4.906   1.757  15.134 -0.3517  0.5864 -0.8248
 4658TIP3    H235390   4.868   1.641  15.224  1.5745 -0.2786 -1.0611
 4659TIP3   OH235391   4.798   3.880   2.264 -0.1510  0.8890 -0.1541
 4659TIP3    H135392   4.881   3.919   2.292 -0.1748 -0.8942  2.8032
 4659TIP3    H235393   4.731   3.941   2.294 -0.0257  0.7164  0.4771
 4660TIP3   OH235394   3.582   4.372   2.842  0.2386  0.2391 -0.1619
 4660TIP3    H135395   3.541   4.450   2.805 -1.2061 -0.7558 -0.7265
 4660TIP3    H235396   3.510   4.322   2.881  0.3827 -2.6978 -3.1776
 4661TIP3   OH235397   5.454   0.968   5.696  0.5572  0.4186 -0.2104
 4661TIP3    H135398   5.538   0.937   5.731  0.5276  0.9215  0.3172
 4661TIP3    H235399   5.472   1.058   5.668  0.2888  0.4006 -0.4401
 4662TIP3   OH235400   0.221   0.073   1.506 -0.0096 -0.0069 -0.8264
 4662TIP3    H135401   0.229   0.168   1.513 -0.5316  0.0047 -0.2851
 4662TIP3    H235402   0.307   0.040   1.533 -0.4976  0.2464  1.2618
 4663TIP3   OH235403   3.787   5.693  13.741 -0.0664 -0.6452  0.3974
 4663TIP3    H135404   3.788   5.618  13.683 -0.6448 -3.1219  3.3267
 4663TIP3    H235405   3.799   5.656  13.829 -2.5405  2.4046  2.2559
 4664TIP3   OH235406   2.133   5.987  10.920 -0.0145  0.5752 -0.1459
 4664TIP3    H135407   2.061   6.045  10.946  1.1455  1.8959  0.2709
 4664TIP3    H235408   2.155   6.016  10.832 -0.4327 -0.3115 -0.5574
 4665TIP3   OH235409   2.084   3.370  16.210 -0.3960 -0.2130 -0.0044
 4665TIP3    H135410   2.055   3.446  16.159  0.9290  0.6975  0.5288
 4665TIP3    H235411   2.177   3.388  16.229 -0.2294 -1.6635  0.6806
 4666TIP3   OH235412   5.182   0.618  15.838  0.1573 -0.1310  0.1910
 4666TIP3    H135413   5.115   0.664  15.890 -0.4538  0.0101 -0.6914
 4666TIP3    H235414   5.195   0.535  15.884 -1.5154 -0.6821 -0.2388
 4667TIP3   OH235415   2.199   1.075   3.449 -0.6818  0.6657 -0.1620
 4667TIP3    H135416   2.183   1.130   3.526 -0.9586  0.9097 -0.3834
 4667TIP3    H235417   2.195   1.137   3.375 -2.3926  0.1631 -0.5483
 4668TIP3   OH235418   3.815   4.860  10.957 -0.9478  0.1002  0.2675
 4668TIP3    H135419   3.873   4.922  10.913  0.5282  0.0274  1.9459
 4668TIP3    H235420   3.829   4.777  10.912  0.9211 -0.0943  1.1288
 4669TIP3   OH235421   1.453   6.084  15.677  0.1453  0.0671  0.1121
 4669TIP3    H135422   1.403   6.140  15.618 -0.2599  0.5079  0.8734
 4669TIP3    H235423   1.514   6.038  15.619 -1.1380 -0.5068 -0.8404
 4670TIP3   OH235424   0.111   0.672   1.447  0.0578 -0.7581 -0.8075
 4670TIP3    H135425   0.165   0.636   1.517  0.3546  1.5703  0.2589
 4670TIP3    H235426   0.174   0.701   1.380 -0.1863 -2.2831 -1.7487
 4671TIP3   OH235427   0.407   2.019  11.440  0.0897 -0.0751 -0.2326
 4671TIP3    H135428   0.329   1.964  11.441 -0.3632  0.5575  0.3825
 4671TIP3    H235429   0.462   1.982  11.370  0.3002 -1.9621  0.8647
 4672TIP3   OH235430   1.063   1.642   3.493 -0.3040 -0.0251  0.2337
 4672TIP3    H135431   1.001   1.707   3.526  0.1703  0.4244  0.2495
 4672TIP3    H235432   1.135   1.693   3.458  0.0104 -0.5426  0.1155
 4673TIP3   OH235433   1.573   3.797  12.692 -0.5599 -0.2743 -0.3135
 4673TIP3    H135434   1.545   3.777  12.782  1.1209 -3.2111 -0.3178
 4673TIP3    H235435   1.658   3.754  12.683 -0.0842  1.0025 -2.9625
 4674TIP3   OH235436   0.510   0.232  11.841 -0.3428  0.4219 -0.1177
 4674TIP3    H135437   0.435   0.206  11.895 -1.0438  0.9366 -0.8079
 4674TIP3    H235438   0.579   0.171  11.865 -0.7136  0.4678  1.1549
 4675TIP3   OH235439   6.123   3.304  12.509 -0.3468  0.4399 -0.2730
 4675TIP3    H135440   6.075   3.307  12.426 -1.4932 -0.7853  0.3061
 4675TIP3    H235441   6.060   3.269  12.572  0.4473  1.5047  1.1687
 4676TIP3   OH235442   2.559   3.643  16.133  1.0912  0.2684 -0.4941
 4676TIP3    H135443   2.498   3.650  16.206  2.4542  3.1363  0.5561
 4676TIP3    H235444   2.504   3.635  16.056 -0.4766 -0.2319  0.6253
 4677TIP3   OH235445   5.033   3.262   2.423 -0.3595  0.0064 -0.0105
 4677TIP3    H135446   5.086   3.205   2.367 -0.3053  1.1945 -1.2128
 4677TIP3    H235447   4.945   3.259   2.384 -0.2418  1.1175 -0.4044
 4678TIP3   OH235448   0.897   0.429   4.495 -0.2030  0.1290 -0.1299
 4678TIP3    H135449   0.829   0.496   4.498  0.5104  0.8837 -0.3274
 4678TIP3    H235450   0.979   0.478   4.501  0.3625 -0.6601 -1.0094
 4679TIP3   OH235451   1.509   3.435   3.779 -0.1497 -0.2258 -0.1700
 4679TIP3    H135452   1.469   3.364   3.728 -0.4955 -1.5938  1.8556
 4679TIP3    H235453   1.602   3.430   3.758 -0.6263  1.6354 -3.3477
 4680TIP3   OH235454   4.446   1.388  16.539 -0.3893  0.4272 -0.7842
 4680TIP3    H135455   4.404   1.315  16.583  0.2999  1.1988  1.3053
 4680TIP3    H235456   4.376   1.452  16.524 -0.1624  1.6696  2.5887
 4681TIP3   OH235457   1.254   6.456  13.892  0.2062  0.1472 -0.1150
 4681TIP3    H135458   1.253   6.365  13.861  2.6277 -0.4890  1.4042
 4681TIP3    H235459   1.213   6.453  13.979 -0.7255  0.7474 -0.5146
 4682TIP3   OH235460   2.863   4.187  15.134  0.0018 -0.3304 -0.6426
 4682TIP3    H135461   2.945   4.141  15.151 -0.2353 -0.6722 -0.4170
 4682TIP3    H235462   2.797   4.139  15.185  0.1183  1.5733  1.4589
 4683TIP3   OH235463   6.391   2.203   1.120  0.1154 -0.3947 -0.6755
 4683TIP3    H135464   6.366   2.124   1.167 -0.2083 -0.3880 -0.8340
 4683TIP3    H235465   6.478   2.185   1.087  1.2289  0.3365  1.6236
 4684TIP3   OH235466   0.553   0.135  16.688 -0.0116 -0.1568  0.3027
 4684TIP3    H135467   0.489   0.151  16.619  0.1437 -0.4588  0.0847
 4684TIP3    H235468   0.539   0.044  16.714 -0.8425  0.2882  1.4794
 4685TIP3   OH235469   5.741   6.346   5.407 -0.5013 -0.3838 -0.2351
 4685TIP3    H135470   5.819   6.296   5.431  0.5118  1.2806  0.1541
 4685TIP3    H235471   5.753   6.367   5.314  0.4420  1.3590  0.2410
 4686TIP3   OH235472   5.094   2.332  15.210 -0.2912 -0.5061 -0.2924
 4686TIP3    H135473   5.176   2.315  15.257 -1.0291 -0.0081  1.2472
 4686TIP3    H235474   5.072   2.422  15.233 -1.2507 -0.6185 -0.7260
 4687TIP3   OH235475   6.364   4.109   4.030  0.3505  0.5099  0.0528
 4687TIP3    H135476   6.459   4.121   4.028  0.5337 -0.9218 -1.9809
 4687TIP3    H235477   6.349   4.021   3.997 -1.6709  0.4038  1.0697
 4688TIP3   OH235478   3.410   5.180  15.783  0.7052 -0.6027 -0.3327
 4688TIP3    H135479   3.435   5.168  15.692 -0.1931 -0.4956 -0.6062
 4688TIP3    H235480   3.447   5.104  15.829  0.3680 -1.1512 -0.9510
 4689TIP3   OH235481   2.574   6.330  13.830 -0.0215 -0.3109  0.1931
 4689TIP3    H135482   2.656   6.375  13.809 -0.1344 -0.0431  0.3365
 4689TIP3    H235483   2.535   6.381  13.900 -0.7730  0.1017 -0.5077
 4690TIP3   OH235484   0.164   2.825   0.159  0.1039 -0.0862 -0.3199
 4690TIP3    H135485   0.150   2.761   0.090  0.5456  0.6160 -1.0714
 4690TIP3    H235486   0.077   2.863   0.174 -0.3129 -1.3119  0.6261
 4691TIP3   OH235487   3.090   3.359   1.029  0.0715  0.2160 -0.0425
 4691TIP3    H135488   3.083   3.427   0.961 -3.1782  0.2219  0.1601
 4691TIP3    H235489   3.109   3.279   0.980 -0.4803  0.5226 -0.7883
 4692TIP3   OH235490   0.052   1.142   2.801 -0.0879 -0.1061  0.2523
 4692TIP3    H135491  -0.006   1.109   2.869  1.1886  0.6188  1.7607
 4692TIP3    H235492   0.057   1.236   2.817 -1.7909  0.5683 -2.4960
 4693TIP3   OH235493   3.404   4.473  15.620 -0.2696 -0.2382  0.3281
 4693TIP3    H135494   3.445   4.535  15.681 -2.1987  2.1009 -0.5803
 4693TIP3    H235495   3.331   4.436  15.669 -1.0574  0.7000 -0.0864
 4694TIP3   OH235496   0.701   5.741  13.806 -0.0219 -0.5200 -0.0113
 4694TIP3    H135497   0.694   5.718  13.714 -1.1316  0.4182 -0.1845
 4694TIP3    H235498   0.612   5.733  13.840  0.5426 -1.8733  1.2536
 4695TIP3   OH235499   2.949   2.189  14.475  0.6661  0.0656  0.7384
 4695TIP3    H135500   2.946   2.109  14.528  1.2957 -0.6584 -0.2922
 4695TIP3    H235501   3.036   2.226  14.492 -0.0640  1.2660  2.2004
 4696TIP3   OH235502   3.564   5.658  16.342 -0.0572  0.5331 -0.0896
 4696TIP3    H135503   3.497   5.590  16.352  0.9474 -0.5000 -0.2224
 4696TIP3    H235504   3.536   5.727  16.402  0.0382 -0.9183  1.7243
 4697TIP3   OH235505   5.552   3.137   1.819 -0.5355  0.2962 -0.2934
 4697TIP3    H135506   5.530   3.152   1.728 -0.7170  1.6796 -0.0406
 4697TIP3    H235507   5.567   3.042   1.825  0.2445  0.2841 -1.9057
 4698TIP3   OH235508   1.454   3.717   0.859 -0.4056  0.4191 -0.2069
 4698TIP3    H135509   1.425   3.661   0.931  0.9667  1.8913  1.5886
 4698TIP3    H235510   1.549   3.712   0.862 -0.2603 -1.2076 -3.4170
 4699TIP3   OH235511   3.670   0.420   6.117  0.2776  0.7605  0.3837
 4699TIP3    H135512   3.682   0.506   6.156  2.2481  1.2577 -1.1453
 4699TIP3    H235513   3.586   0.425   6.071  0.0146  1.5886  0.9438
 4700TIP3   OH235514   4.207   0.041   4.089  0.3327 -0.1701 -0.2640
 4700TIP3    H135515   4.207  -0.003   4.004  0.9373  1.5287 -1.1801
 4700TIP3    H235516   4.281   0.102   4.085  0.1347  0.2188  1.3379
 4701TIP3   OH235517   5.277   3.479  15.181 -0.1321 -0.5188 -0.2982
 4701TIP3    H135518   5.230   3.429  15.247 -0.1960 -1.4957 -1.0493
 4701TIP3    H235519   5.329   3.542  15.230 -0.0325 -1.3461  0.6905
 4702TIP3   OH235520   5.314   4.812   1.953 -0.0363  0.0220  0.7998
 4702TIP3    H135521   5.251   4.844   2.018 -2.1084  0.5026 -1.3132
 4702TIP3    H235522   5.287   4.721   1.938  1.3289 -0.5360  1.5937
 4703TIP3   OH235523   2.691   2.117   5.598 -0.0631  0.1655  0.2061
 4703TIP3    H135524   2.777   2.151   5.622 -0.2195  1.3170 -0.7339
 4703TIP3    H235525   2.638   2.195   5.583 -1.6412 -0.5187  1.9424
 4704TIP3   OH235526   6.772   3.400  11.828  0.1358  0.3753  0.8345
 4704TIP3    H135527   6.770   3.304  11.825  0.8209  0.3655  0.1541
 4704TIP3    H235528   6.811   3.425  11.744 -1.3473  1.3123  0.3942
 4705TIP3   OH235529   0.163   0.467   0.747  0.6494  0.6236  0.6131
 4705TIP3    H135530   0.202   0.554   0.755  1.1997  0.4079  0.3417
 4705TIP3    H235531   0.236   0.407   0.761  0.4613  0.2180 -0.1223
 4706TIP3   OH235532   0.684   0.346  12.108  0.4859 -0.1258  0.1253
 4706TIP3    H135533   0.625   0.294  12.054  0.5494  0.3424 -0.4080
 4706TIP3    H235534   0.733   0.399  12.045  3.0811 -2.0911  0.3487
 4707TIP3   OH235535   6.116   4.245   3.758  0.5595  0.1336 -0.5095
 4707TIP3    H135536   6.152   4.263   3.671 -0.2408 -0.1517 -0.9063
 4707TIP3    H235537   6.142   4.155   3.776  5.0367  1.5483  1.7062
 4708TIP3   OH235538   2.978   6.137  15.452 -0.4070  0.2763  0.1961
 4708TIP3    H135539   3.073   6.144  15.461 -0.1736 -0.5104 -1.3642
 4708TIP3    H235540   2.954   6.063  15.507 -0.3844  1.5458  1.9832
 4709TIP3   OH235541   2.101   2.181  12.935 -0.4094 -0.2788  0.0441
 4709TIP3    H135542   2.154   2.229  12.872  1.6249 -1.1263  1.0148
 4709TIP3    H235543   2.099   2.091  12.903  0.5764 -0.6999  1.0834
 4710TIP3   OH235544   5.525   3.050  17.043  0.0643  0.7051  0.0412
 4710TIP3    H135545   5.474   3.015  16.970  1.5249 -2.3394  0.3193
 4710TIP3    H235546   5.614   3.059  17.009  0.5135  0.4348  1.0739
 4711TIP3   OH235547   3.138   0.216  11.290  0.4108  0.1185  0.4932
 4711TIP3    H135548   3.055   0.193  11.249  0.9831 -0.4132 -0.3925
 4711TIP3    H235549   3.114   0.247  11.377 -0.6856 -0.3356  0.3631
 4712TIP3   OH235550   4.025   5.999   2.236 -0.5712  0.0001  0.2987
 4712TIP3    H135551   4.091   5.997   2.305 -1.2719  3.0596  1.1924
 4712TIP3    H235552   3.954   5.944   2.269 -0.0082 -0.3151  1.0020
 4713TIP3   OH235553   0.440   6.130   4.500  0.0957 -0.7702  0.2926
 4713TIP3    H135554   0.474   6.078   4.427 -1.0229  1.6406 -2.1460
 4713TIP3    H235555   0.506   6.198   4.513  0.2860 -1.1715  1.6126
 4714TIP3   OH235556   5.830   1.317  14.390 -0.2445 -0.4743 -0.0860
 4714TIP3    H135557   5.813   1.247  14.327 -1.2664  0.7171 -1.1798
 4714TIP3    H235558   5.871   1.386  14.338  0.5814 -0.1610  0.9443
 4715TIP3   OH235559   3.686   0.915   2.104 -0.3519  0.1957 -0.7613
 4715TIP3    H135560   3.751   0.923   2.035 -0.9406  1.8031 -1.1706
 4715TIP3    H235561   3.654   0.825   2.096  0.8460 -0.1936 -1.4153
 4716TIP3   OH235562   5.480   5.395   4.797 -0.4541 -0.0875  0.1113
 4716TIP3    H135563   5.550   5.330   4.795  1.0641  1.4465  0.9830
 4716TIP3    H235564   5.519   5.474   4.758 -1.8567  0.6556  0.1383
 4717TIP3   OH235565   2.338   5.734  13.849  0.3146  0.4536  0.0839
 4717TIP3    H135566   2.353   5.826  13.829 -0.4762  0.7932  1.0351
 4717TIP3    H235567   2.376   5.721  13.935  0.2305 -0.0626  0.0489
 4718TIP3   OH235568   4.922   6.506  13.695 -0.4731  0.7230  0.0029
 4718TIP3    H135569   4.986   6.514  13.625 -0.3468 -0.9261 -0.1118
 4718TIP3    H235570   4.841   6.479  13.651 -0.0991 -1.4793  0.5505
 4719TIP3   OH235571   3.306   2.126   5.586 -0.6290 -0.0957  0.2631
 4719TIP3    H135572   3.222   2.093   5.619 -1.0296  0.9124  0.2904
 4719TIP3    H235573   3.339   2.182   5.657 -0.2719  0.0682 -0.0284
 4720TIP3   OH235574   4.023   3.757   0.006 -0.3378 -0.3251  0.3988
 4720TIP3    H135575   4.051   3.847  -0.014  0.2567 -0.3052  1.2705
 4720TIP3    H235576   3.942   3.746  -0.044  1.9483 -0.9435 -3.5711
 4721TIP3   OH235577   4.319   3.413  16.609  0.3857 -0.0328 -0.1859
 4721TIP3    H135578   4.345   3.320  16.611 -1.0862 -0.5481 -2.1990
 4721TIP3    H235579   4.247   3.418  16.672 -0.3287 -0.5434 -0.9490
 4722TIP3   OH235580   5.363   1.727   1.415  0.1687  0.0876  1.0483
 4722TIP3    H135581   5.378   1.654   1.355  0.2826  1.0558 -0.1423
 4722TIP3    H235582   5.440   1.782   1.407 -0.0054  0.4591  1.7775
 4723TIP3   OH235583   3.405   5.295  12.118 -0.6021  0.3416  0.0958
 4723TIP3    H135584   3.376   5.217  12.071  0.2214  0.0061  0.1347
 4723TIP3    H235585   3.369   5.284  12.206  1.9130 -1.4994  1.0188
 4724TIP3   OH235586   1.805   1.960  10.987 -0.0868  0.3393 -0.0838
 4724TIP3    H135587   1.854   1.974  10.906 -0.0832  0.1485 -0.1151
 4724TIP3    H235588   1.781   2.048  11.016  0.9845  0.5025  0.3681
 4725TIP3   OH235589   3.581   6.035  12.716 -0.2596  0.0248 -0.4750
 4725TIP3    H135590   3.670   6.008  12.740 -0.8506 -1.2440  0.3435
 4725TIP3    H235591   3.589   6.062  12.624  0.9719  0.0016 -0.3998
 4726TIP3   OH235592   6.520   2.411  17.086 -0.3958 -0.3029 -0.6687
 4726TIP3    H135593   6.560   2.337  17.042  0.5985  1.0915 -2.2353
 4726TIP3    H235594   6.503   2.474  17.016 -1.3726  0.8699  0.5786
 4727TIP3   OH235595   1.532   2.228  15.074  0.0800 -0.3839  0.2914
 4727TIP3    H135596   1.468   2.224  15.146  0.6493 -1.4175  0.7504
 4727TIP3    H235597   1.491   2.287  15.010 -0.5755  0.3188  1.3131
 4728TIP3   OH235598   6.765   3.313   5.693  0.1709 -0.4938  0.4107
 4728TIP3    H135599   6.794   3.293   5.604  2.1959 -0.8356  1.0944
 4728TIP3    H235600   6.844   3.303   5.747 -0.2829  2.4713  1.8411
 4729TIP3   OH235601   1.856   6.790  14.643  0.4643 -0.3596 -0.0230
 4729TIP3    H135602   1.904   6.758  14.566  0.7230  0.2228 -0.1110
 4729TIP3    H235603   1.924   6.809  14.708  0.2951 -0.2690  0.1287
 4730TIP3   OH235604   6.690   3.074   4.126 -0.2683  0.4277 -0.2287
 4730TIP3    H135605   6.660   3.022   4.201 -0.3082  0.8586  0.0571
 4730TIP3    H235606   6.708   3.009   4.058  2.0021 -0.2171  0.8718
 4731TIP3   OH235607   1.513   0.040  12.006  0.2488  0.2994 -0.7249
 4731TIP3    H135608   1.421   0.049  12.032 -0.2549  3.5442 -3.0758
 4731TIP3    H235609   1.510   0.003  11.918  1.1881  0.8417 -0.9955
 4732TIP3   OH235610   3.010   0.689   1.355  0.3615 -0.4348 -0.3565
 4732TIP3    H135611   2.974   0.777   1.346  1.3725 -0.1680 -2.1317
 4732TIP3    H235612   3.028   0.681   1.449 -1.1465  0.6528  0.0731
 4733TIP3   OH235613   5.998   1.994   0.135  0.6079  0.0251 -0.3719
 4733TIP3    H135614   6.032   2.083   0.123  0.6897  0.1025  0.4039
 4733TIP3    H235615   5.977   1.965   0.046  3.2965 -0.2643 -1.0064
 4734TIP3   OH235616   4.481   6.026  14.478  0.8950  0.2571  0.1728
 4734TIP3    H135617   4.396   6.062  14.453  0.1305 -1.0620  0.7815
 4734TIP3    H235618   4.524   6.098  14.525 -1.4981 -0.1891  3.4003
 4735TIP3   OH235619   2.174   1.438  15.090  0.3591  0.0574 -0.7060
 4735TIP3    H135620   2.186   1.389  15.008  0.2161 -4.0803  1.4663
 4735TIP3    H235621   2.260   1.435  15.132  0.4372  2.1457 -0.6488
 4736TIP3   OH235622   0.572   0.376  14.819  0.1678 -0.2197 -0.3082
 4736TIP3    H135623   0.608   0.396  14.733  1.5309 -1.3516 -0.0280
 4736TIP3    H235624   0.488   0.334  14.800 -0.6754  1.6573 -0.9878
 4737TIP3   OH235625   3.893   1.711   2.565 -0.2400  0.2362 -0.0084
 4737TIP3    H135626   3.837   1.787   2.551 -0.1589  0.2634 -0.1811
 4737TIP3    H235627   3.858   1.645   2.505 -2.2922 -0.9237  2.2762
 4738TIP3   OH235628   2.068   2.916   3.741 -0.1260 -0.6153  0.6215
 4738TIP3    H135629   2.066   2.893   3.648  1.5054 -1.3842  0.7413
 4738TIP3    H235630   1.976   2.916   3.768 -0.7719  1.2187 -1.3354
 4739TIP3   OH235631   5.861   6.178  16.613  0.3246  0.0074  0.2296
 4739TIP3    H135632   5.833   6.267  16.590  0.4008 -0.0085  0.0805
 4739TIP3    H235633   5.835   6.125  16.538  1.8433  0.1864 -0.4461
 4740TIP3   OH235634   4.428   1.823  16.713  0.0043  0.0828  0.1513
 4740TIP3    H135635   4.477   1.873  16.779  1.9664 -0.3600 -0.8994
 4740TIP3    H235636   4.438   1.732  16.741 -1.9786  0.0736  1.0164
 4741TIP3   OH235637   2.430   4.802  11.622 -0.4648 -0.4203 -0.0742
 4741TIP3    H135638   2.459   4.880  11.575  0.5114 -0.4517  0.4509
 4741TIP3    H235639   2.354   4.771  11.573 -1.2598  1.2152  0.0544
 4742TIP3   OH235640   3.085   3.346   2.723 -0.2470 -0.1730  0.0721
 4742TIP3    H135641   3.080   3.379   2.813  0.5387 -1.9193  0.8064
 4742TIP3    H235642   3.151   3.401   2.681  0.4734 -0.2964  1.0189
 4743TIP3   OH235643   1.940   0.275   4.730 -0.0577  0.6880 -0.2053
 4743TIP3    H135644   1.904   0.339   4.792 -0.0035 -0.1481  0.7048
 4743TIP3    H235645   2.034   0.291   4.730  0.0107  0.3127  0.3771
 4744TIP3   OH235646   5.006   5.983   5.285  0.1466 -0.0461 -0.0055
 4744TIP3    H135647   4.946   5.940   5.224  0.9221  0.6104 -1.2741
 4744TIP3    H235648   4.989   6.076   5.274 -0.4788  0.0600  1.6277
 4745TIP3   OH235649   2.000   0.983  11.355 -0.5337 -0.0889  0.5939
 4745TIP3    H135650   1.994   1.058  11.297 -1.4778  0.4643  1.3680
 4745TIP3    H235651   1.925   0.928  11.332  1.1260 -1.7670 -1.2067
 4746TIP3   OH235652   2.372   2.209  16.824 -0.1118  0.0940 -0.0713
 4746TIP3    H135653   2.368   2.293  16.778  2.5330  0.7076  0.6609
 4746TIP3    H235654   2.417   2.228  16.906  1.1493 -2.1194 -0.1508
 4747TIP3   OH235655   5.311   4.261  11.377 -0.0697 -0.0507  0.2780
 4747TIP3    H135656   5.254   4.288  11.449 -0.2652  0.9453 -0.2268
 4747TIP3    H235657   5.257   4.202  11.324 -0.4469  0.4323  0.1165
 4748TIP3   OH235658   4.542   5.933  14.081 -0.0671 -0.6217  0.7434
 4748TIP3    H135659   4.542   6.027  14.100  0.7538 -0.5337  0.3262
 4748TIP3    H235660   4.557   5.927  13.987  1.7661 -1.1945  1.0258
 4749TIP3   OH235661   5.812   2.302  14.616  0.5772  0.1577  0.6146
 4749TIP3    H135662   5.903   2.276  14.629  0.4974 -1.2138 -1.0881
 4749TIP3    H235663   5.814   2.358  14.538 -0.1947 -1.3963 -0.5836
 4750TIP3   OH235664   0.900   4.513   1.352  0.0300 -0.4215 -0.3930
 4750TIP3    H135665   0.848   4.444   1.394  1.7262 -1.6939 -0.2829
 4750TIP3    H235666   0.925   4.476   1.268  2.4565 -0.7494  0.3805
 4751TIP3   OH235667   3.277   3.201   1.485  0.1772 -0.0535 -0.2046
 4751TIP3    H135668   3.266   3.293   1.459  0.2765  0.0416  0.0770
 4751TIP3    H235669   3.277   3.152   1.403 -0.9515  0.0839 -0.3089
 4752TIP3   OH235670   5.473   4.742  14.947 -0.2392  0.2144  0.0898
 4752TIP3    H135671   5.545   4.804  14.966 -0.8821  0.9385  0.2219
 4752TIP3    H235672   5.438   4.719  15.033 -1.1078  1.0183 -0.0322
 4753TIP3   OH235673   1.620   3.082   1.009 -0.5968  0.7944  0.2776
 4753TIP3    H135674   1.619   3.023   0.934 -2.3294  2.1226 -0.8216
 4753TIP3    H235675   1.531   3.080   1.043 -0.1392  1.1373  1.5715
 4754TIP3   OH235676   5.567   2.622   2.120  0.5812 -0.3240  0.3324
 4754TIP3    H135677   5.569   2.526   2.121 -1.9600 -0.4260  1.2166
 4754TIP3    H235678   5.530   2.645   2.035  0.0700 -0.1691  0.5963
 4755TIP3   OH235679   0.216   0.064  13.261 -0.1040 -0.3275 -0.0818
 4755TIP3    H135680   0.308   0.072  13.235  0.4694 -1.5321  1.4248
 4755TIP3    H235681   0.198   0.144  13.310 -0.5484  0.9203 -2.1384
 4756TIP3   OH235682   6.766   0.220   4.303  0.7081 -0.4735  0.5101
 4756TIP3    H135683   6.791   0.139   4.257  0.9317  0.4501 -1.0959
 4756TIP3    H235684   6.849   0.264   4.320  0.6350  2.7201 -5.0504
 4757TIP3   OH235685   5.052   2.747  13.118  0.3883 -0.0834 -0.0755
 4757TIP3    H135686   5.140   2.727  13.085  0.1275 -1.0132 -0.2450
 4757TIP3    H235687   4.996   2.738  13.041  0.1666  0.7136 -0.0110
 4758TIP3   OH235688   6.414   2.149   6.021  0.3142 -0.3162 -0.2369
 4758TIP3    H135689   6.363   2.074   5.991  0.3522 -0.9311  1.1495
 4758TIP3    H235690   6.441   2.126   6.110  0.7235  1.1424  0.0505
 4759TIP3   OH235691   2.184   5.243  16.513 -0.3072 -0.2968  0.0880
 4759TIP3    H135692   2.101   5.206  16.543 -0.9374 -0.3342 -1.5487
 4759TIP3    H235693   2.215   5.180  16.447  1.0836 -0.3285  0.7531
 4760TIP3   OH235694   5.877   4.008   0.864  0.8244 -0.5788  0.6722
 4760TIP3    H135695   5.965   3.979   0.840  0.4836 -1.7742  0.8018
 4760TIP3    H235696   5.818   3.950   0.814  0.0678  1.3616 -0.8432
 4761TIP3   OH235697   4.030   5.208   3.627 -0.3643  0.1295 -0.3263
 4761TIP3    H135698   3.943   5.205   3.667  0.2938 -1.1925  1.1393
 4761TIP3    H235699   4.017   5.251   3.543 -2.4152  0.0560 -0.0875
 4762TIP3   OH235700   6.645   4.900  14.165  0.5054 -0.5644 -0.6865
 4762TIP3    H135701   6.617   4.932  14.079  0.9556  0.9694 -0.2961
 4762TIP3    H235702   6.714   4.961  14.191  1.1524 -1.6721  0.2836
 4763TIP3   OH235703   4.022   6.017   5.469  0.2217  0.0481  0.0139
 4763TIP3    H135704   3.951   6.044   5.527  0.2651 -0.5581  0.3540
 4763TIP3    H235705   4.056   5.937   5.508  0.9556  0.2164 -0.2610
 4764TIP3   OH235706   6.738   0.393  16.278  0.1630 -0.3835  0.3330
 4764TIP3    H135707   6.776   0.332  16.340 -1.6779 -1.1048  0.8196
 4764TIP3    H235708   6.666   0.344  16.237 -1.8925  1.6508  1.3120
 4765TIP3   OH235709   0.330   1.892  12.899  0.4108 -0.1465 -0.6376
 4765TIP3    H135710   0.249   1.873  12.946  1.3960  1.8512  2.0617
 4765TIP3    H235711   0.339   1.818  12.838 -2.1427 -1.6842  0.6552
 4766TIP3   OH235712   2.389   6.464   1.709  0.1480 -0.8171  0.1104
 4766TIP3    H135713   2.383   6.557   1.689 -0.1525 -0.4067  1.9137
 4766TIP3    H235714   2.310   6.426   1.670  0.1967 -0.2997 -0.5010
 4767TIP3   OH235715   0.621   5.269  10.558 -0.0476 -0.1078 -0.5680
 4767TIP3    H135716   0.602   5.194  10.501  1.6486  0.5756 -2.1344
 4767TIP3    H235717   0.536   5.309  10.573 -0.7187 -1.1037 -1.4989
 4768TIP3   OH235718   3.732   1.032   3.848  0.2149 -0.4811 -0.1876
 4768TIP3    H135719   3.801   1.048   3.913 -1.1869  1.5944  0.8800
 4768TIP3    H235720   3.769   1.063   3.766  1.0124 -0.6150  0.1060
 4769TIP3   OH235721   5.383   1.625   0.585 -0.6679  0.4654 -0.4248
 4769TIP3    H135722   5.402   1.645   0.493 -0.4249 -0.4746 -0.5916
 4769TIP3    H235723   5.421   1.698   0.634  1.3921 -0.2181 -0.9099
 4770TIP3   OH235724   5.255   4.963  15.484  0.5900  0.2622 -0.1373
 4770TIP3    H135725   5.307   4.905  15.540  1.6917  1.2312 -0.1141
 4770TIP3    H235726   5.287   4.947  15.396 -0.1557 -0.2292 -0.3321
 4771TIP3   OH235727   6.399   5.928   1.595 -0.2206  0.7117 -0.4279
 4771TIP3    H135728   6.375   6.011   1.635  1.0620  1.0387 -0.2772
 4771TIP3    H235729   6.457   5.953   1.522 -0.3538 -0.0186 -0.7945
 4772TIP3   OH235730   5.443   2.774  12.800  0.0184 -1.0515  0.0898
 4772TIP3    H135731   5.464   2.830  12.726  0.3140 -0.2515  0.7557
 4772TIP3    H235732   5.468   2.826  12.877 -2.4930 -0.8637  0.8660
 4773TIP3   OH235733   6.588   5.933   0.949  0.1883 -0.0291  0.0620
 4773TIP3    H135734   6.595   6.028   0.954  0.2337 -0.0445  0.3123
 4773TIP3    H235735   6.573   5.905   1.039 -0.0022 -0.2455 -0.0337
 4774TIP3   OH235736   1.185   6.267   3.173  0.1200 -0.0055 -1.1615
 4774TIP3    H135737   1.265   6.304   3.135  1.6544 -3.2293 -1.3754
 4774TIP3    H235738   1.187   6.296   3.264  1.2324  0.4610 -1.3099
 4775TIP3   OH235739   6.370   2.998   4.029 -0.0791  0.4390  0.0983
 4775TIP3    H135740   6.355   3.015   4.121  0.5691  0.4230  0.2149
 4775TIP3    H235741   6.399   3.082   3.993  2.2462 -0.1160  0.4859
 4776TIP3   OH235742   2.384   1.538  14.680 -0.0754  0.1000 -0.1834
 4776TIP3    H135743   2.473   1.505  14.687  0.4653  1.4681 -0.3061
 4776TIP3    H235744   2.383   1.589  14.599 -1.0996 -0.2602 -0.4198
 4777TIP3   OH235745   1.533   5.235   2.386 -0.7303  0.2632  0.1132
 4777TIP3    H135746   1.467   5.282   2.437 -0.6749  1.4717 -0.8759
 4777TIP3    H235747   1.602   5.216   2.449 -1.5269 -0.0349  0.9207
 4778TIP3   OH235748   3.851   2.913   1.859 -0.3309  0.0971  0.5056
 4778TIP3    H135749   3.766   2.910   1.903 -2.7141  1.7642 -3.4136
 4778TIP3    H235750   3.876   3.005   1.861  0.6630 -0.1592  0.3404
 4779TIP3   OH235751   2.759   5.316  16.824  0.3932 -0.3068  0.1464
 4779TIP3    H135752   2.821   5.287  16.890  1.0703  2.2011  0.7113
 4779TIP3    H235753   2.749   5.241  16.766  1.2314 -1.9429  2.0039
 4780TIP3   OH235754   3.238   5.679  15.607  0.0994  0.1756 -0.1563
 4780TIP3    H135755   3.145   5.692  15.593  0.1218 -1.0483 -1.8101
 4780TIP3    H235756   3.245   5.634  15.691 -0.7972  0.2934 -0.0169
 4781TIP3   OH235757   6.111   0.215   2.201  0.4726 -0.0186  0.8091
 4781TIP3    H135758   6.180   0.164   2.244 -0.3201 -0.6226  1.3952
 4781TIP3    H235759   6.054   0.149   2.162 -0.3575  0.4288  1.2453
 4782TIP3   OH235760   1.366   3.596   0.218  0.1968 -0.0534 -0.3499
 4782TIP3    H135761   1.296   3.642   0.173  1.0268 -0.7136 -2.4031
 4782TIP3    H235762   1.347   3.503   0.204  2.3016 -0.2654 -2.4254
 4783TIP3   OH235763   2.087   6.261   4.747  0.3830 -0.2054 -0.0121
 4783TIP3    H135764   2.077   6.197   4.818  1.9266  0.9347  1.2996
 4783TIP3    H235765   2.163   6.314   4.773 -0.4013  1.7044 -1.4038
 4784TIP3   OH235766   4.242   4.393   5.061 -0.3365  0.0106 -0.1474
 4784TIP3    H135767   4.214   4.373   4.971  1.5055 -0.5686 -0.6232
 4784TIP3    H235768   4.337   4.402   5.055 -0.4004  2.6308  1.2515
 4785TIP3   OH235769   3.271   2.725  15.738  0.5572 -0.2614 -0.2030
 4785TIP3    H135770   3.266   2.805  15.686 -0.9093 -1.6343 -2.3031
 4785TIP3    H235771   3.354   2.685  15.711  1.3983  0.5803  1.0065
 4786TIP3   OH235772   4.145   1.799  10.804 -0.5173  0.7024 -0.1264
 4786TIP3    H135773   4.060   1.765  10.832 -0.3213  0.5852  0.3427
 4786TIP3    H235774   4.202   1.788  10.881 -0.1411  1.0006 -0.3569
 4787TIP3   OH235775   2.139   2.868  10.655  0.0805  0.1804 -0.3836
 4787TIP3    H135776   2.162   2.945  10.706  0.0766 -1.6426  2.6541
 4787TIP3    H235777   2.222   2.836  10.620  0.1985  1.0390 -0.8964
 4788TIP3   OH235778   3.630   5.791   1.900 -0.0252  0.1807  0.4423
 4788TIP3    H135779   3.701   5.827   1.953  0.4864 -0.5597  0.2803
 4788TIP3    H235780   3.618   5.702   1.932 -2.3824  0.9494  1.9512
 4789TIP3   OH235781   2.848   3.946   6.149  0.4314 -0.1565  0.0955
 4789TIP3    H135782   2.930   3.901   6.129 -0.3028 -1.5085  0.0525
 4789TIP3    H235783   2.827   3.919   6.238 -0.4116 -0.5086 -0.2073
 4790TIP3   OH235784   3.107   6.591  12.270 -1.0097  1.2465  0.0479
 4790TIP3    H135785   3.123   6.585  12.364  0.2970  0.7178 -0.1847
 4790TIP3    H235786   3.162   6.664  12.240 -0.8441  0.9406 -0.4142
 4791TIP3   OH235787   3.768   0.466   5.670 -0.4988  0.2843  0.2345
 4791TIP3    H135788   3.811   0.551   5.685 -2.8914  1.7029 -0.4406
 4791TIP3    H235789   3.743   0.467   5.578  0.1948 -1.5844 -0.0180
 4792TIP3   OH235790   3.055   5.442  12.516 -0.0583  0.1457  0.3738
 4792TIP3    H135791   2.970   5.401  12.530 -0.5922  0.7542 -0.9233
 4792TIP3    H235792   3.100   5.433  12.600 -1.6598  0.4276  1.3181
 4793TIP3   OH235793   3.893   6.600   1.981  0.1681 -0.4175  0.2530
 4793TIP3    H135794   3.960   6.637   2.039  1.0635 -0.9972 -0.3834
 4793TIP3    H235795   3.936   6.524   1.941 -0.6518 -0.4067 -0.6693
 4794TIP3   OH235796   1.199   0.947  13.046  0.3183  0.3325 -0.2352
 4794TIP3    H135797   1.190   0.981  12.957 -0.2640 -1.8783 -1.0933
 4794TIP3    H235798   1.285   0.976  13.075  0.1540  1.8382 -1.1520
 4795TIP3   OH235799   4.678   3.805  14.811  0.1713  0.4323 -0.7437
 4795TIP3    H135800   4.655   3.846  14.727 -0.1536 -0.1004 -0.9196
 4795TIP3    H235801   4.630   3.723  14.811  2.3625 -0.9143 -1.2787
 4796TIP3   OH235802   5.488   6.596  10.552  0.4113 -0.0960 -0.1989
 4796TIP3    H135803   5.544   6.547  10.491 -1.6579 -1.2611 -1.2616
 4796TIP3    H235804   5.433   6.530  10.593 -1.4386  1.1421 -0.5680
 4797TIP3   OH235805   0.679   0.039   3.614  0.2071  0.2501  0.1378
 4797TIP3    H135806   0.745   0.108   3.607 -0.1820  0.4945 -1.5650
 4797TIP3    H235807   0.596   0.083   3.599 -0.4104 -0.0371  2.3748
 4798TIP3   OH235808   4.516   2.042   2.053  0.1402 -0.7031  0.1058
 4798TIP3    H135809   4.469   1.979   2.108 -0.3823  0.1225  0.6270
 4798TIP3    H235810   4.572   2.090   2.114  0.5194 -0.6461 -0.2813
 4799TIP3   OH235811   0.901   0.045  17.150  0.3948 -0.1994  0.2006
 4799TIP3    H135812   0.845   0.019  17.077 -0.0262  0.9939  0.0595
 4799TIP3    H235813   0.920   0.138  17.133  0.8321 -0.0819  1.2538
 4800TIP3   OH235814   2.232   6.410  11.936 -0.0281  0.1475 -0.1227
 4800TIP3    H135815   2.201   6.320  11.925 -0.7998  0.3722  0.1492
 4800TIP3    H235816   2.153   6.460  11.959  0.3695  0.9160 -0.3870
 4801TIP3   OH235817   3.499   5.306  13.108  0.4816 -1.1220  0.1986
 4801TIP3    H135818   3.438   5.274  13.175 -0.1072 -1.3544 -0.4297
 4801TIP3    H235819   3.530   5.226  13.064 -0.9334 -0.8919 -1.3227
 4802TIP3   OH235820   5.594   5.366  15.644  0.3993  0.1073 -0.1185
 4802TIP3    H135821   5.638   5.407  15.719 -0.9094  0.5034  0.4714
 4802TIP3    H235822   5.503   5.393  15.653  0.0610 -0.5587 -1.3846
 4803TIP3   OH235823   1.742   2.186   6.589  0.8037 -0.2912  0.0688
 4803TIP3    H135824   1.743   2.125   6.663  1.1720 -0.6309 -0.2131
 4803TIP3    H235825   1.832   2.186   6.556  0.4332 -0.8985 -0.9976
 4804TIP3   OH235826   2.397   2.279   1.787 -0.7359  0.6004 -0.0068
 4804TIP3    H135827   2.359   2.205   1.740 -0.1902 -0.0937  0.6297
 4804TIP3    H235828   2.488   2.254   1.801 -1.0397  0.4763  2.0241
 4805TIP3   OH235829   4.729   5.452   4.355  0.6844 -0.2245 -0.4032
 4805TIP3    H135830   4.772   5.401   4.285  0.9205 -0.2526 -0.2372
 4805TIP3    H235831   4.636   5.444   4.336  0.5650 -2.4691  0.7905
 4806TIP3   OH235832   2.047   4.872   1.769 -0.0899  0.5049 -0.0434
 4806TIP3    H135833   2.120   4.927   1.740 -0.2264  0.1223 -1.1969
 4806TIP3    H235834   2.056   4.792   1.717 -0.6075 -0.0625  0.7117
 4807TIP3   OH235835   0.419   0.154  12.966 -0.3440  0.5516  0.7592
 4807TIP3    H135836   0.465   0.151  13.049  0.5074  1.1551  0.3226
 4807TIP3    H235837   0.469   0.215  12.912  1.9400 -3.1436 -1.8205
 4808TIP3   OH235838   5.734   5.761   2.365 -0.0105  0.0534  0.2099
 4808TIP3    H135839   5.770   5.712   2.291 -1.7931 -2.3168  0.7988
 4808TIP3    H235840   5.727   5.851   2.333  0.5405 -0.6253 -2.0145
 4809TIP3   OH235841   5.367   6.596  11.334 -0.1194  0.0732 -0.5398
 4809TIP3    H135842   5.377   6.691  11.334 -0.1361  0.0762  0.0834
 4809TIP3    H235843   5.334   6.575  11.421  0.8101 -0.5976 -0.3307
 4810TIP3   OH235844   0.502   0.277   1.817 -0.2534 -0.1757 -0.0549
 4810TIP3    H135845   0.408   0.276   1.834 -0.2623 -1.1279 -0.0885
 4810TIP3    H235846   0.521   0.189   1.783  0.9335 -0.5838  1.5497
 4811TIP3   OH235847   0.846   4.287   2.714 -0.0172 -0.0570 -0.4266
 4811TIP3    H135848   0.940   4.274   2.699  0.0015  1.8146 -2.6288
 4811TIP3    H235849   0.809   4.199   2.715  1.6766 -0.8037 -0.1741
 4812TIP3   OH235850   2.398   3.096  16.507  0.0370 -0.2221 -0.4187
 4812TIP3    H135851   2.353   3.119  16.589  0.5583  0.7870 -0.3979
 4812TIP3    H235852   2.334   3.046  16.458 -1.7734  2.5622 -1.1086
 4813TIP3   OH235853   5.239   1.182  11.070  0.1230  0.1850 -0.4094
 4813TIP3    H135854   5.206   1.093  11.079  2.4345 -0.6391  0.6630
 4813TIP3    H235855   5.233   1.200  10.976 -0.7475 -0.9221 -0.5857
 4814TIP3   OH235856   4.906   5.543   3.255  0.2449  0.7761 -0.5824
 4814TIP3    H135857   4.832   5.538   3.315 -1.2015 -2.9275 -2.3448
 4814TIP3    H235858   4.983   5.530   3.310 -0.7304  0.8465  0.8357
 4815TIP3   OH235859   2.641   3.683  10.775  1.0501  0.6739 -0.1341
 4815TIP3    H135860   2.710   3.718  10.718  0.9433  1.6209  0.2926
 4815TIP3    H235861   2.564   3.734  10.752  0.2904 -0.8499 -1.0982
 4816TIP3   OH235862   6.439   0.328   1.550 -0.0573 -0.2634  0.3917
 4816TIP3    H135863   6.366   0.375   1.591  0.1361  0.1217  0.2980
 4816TIP3    H235864   6.428   0.237   1.579 -0.8883 -0.3196 -0.0583
 4817TIP3   OH235865   3.799   3.446   0.341  0.0659  0.3944 -0.1076
 4817TIP3    H135866   3.741   3.420   0.269  0.7079 -2.5373  0.3085
 4817TIP3    H235867   3.850   3.519   0.305 -0.6825  0.0144 -2.0881
 4818TIP3   OH235868   2.131   5.088   5.280  0.0951  0.0807 -0.4959
 4818TIP3    H135869   2.059   5.025   5.275  0.8351 -0.6760 -2.2591
 4818TIP3    H235870   2.207   5.036   5.304  0.1382  0.8527  1.1901
 4819TIP3   OH235871   1.910   2.624   2.458  0.5919  0.2928  0.2105
 4819TIP3    H135872   1.983   2.644   2.517  0.8869  0.4874 -0.2209
 4819TIP3    H235873   1.833   2.659   2.503  0.4675 -1.6515  1.6134
 4820TIP3   OH235874   1.770   3.522   2.324 -0.0742  0.4733 -0.4339
 4820TIP3    H135875   1.771   3.429   2.299 -2.7797  0.6880 -1.6518
 4820TIP3    H235876   1.755   3.521   2.419  0.7888 -0.3171 -0.2899
 4821TIP3   OH235877   4.969   5.151   5.696  0.1177 -0.4979 -0.5493
 4821TIP3    H135878   4.933   5.232   5.661 -1.3092 -1.0624 -0.4703
 4821TIP3    H235879   5.041   5.179   5.753 -0.1647  0.6828 -0.7455
 4822TIP3   OH235880   5.421   2.005   4.690  0.0154  0.3079  0.3419
 4822TIP3    H135881   5.426   2.013   4.785  0.1658 -2.4592  0.6437
 4822TIP3    H235882   5.329   1.984   4.672 -0.1267  1.3220 -0.2073
 4823TIP3   OH235883   2.949   1.934  14.359  0.3618  0.0316 -0.9117
 4823TIP3    H135884   2.916   2.021  14.334 -0.1238  0.6119  1.4816
 4823TIP3    H235885   3.030   1.953  14.407 -0.0988 -0.7574  0.2189
 4824TIP3   OH235886   6.293   5.537   1.855  0.5113  0.3083  0.3926
 4824TIP3    H135887   6.218   5.578   1.899 -0.8804  0.3811 -1.8728
 4824TIP3    H235888   6.295   5.448   1.890  0.2949  0.7433  1.5535
 4825TIP3   OH235889   6.313   6.182  16.462 -0.0246 -0.1072  0.0896
 4825TIP3    H135890   6.394   6.212  16.505  0.2926 -0.9181  0.0845
 4825TIP3    H235891   6.272   6.125  16.527 -1.3819  1.4826  0.6763
 4826TIP3   OH235892   3.246   1.068   6.402  0.1392 -0.5627  0.6104
 4826TIP3    H135893   3.326   1.094   6.448  0.0400  0.2711  0.3348
 4826TIP3    H235894   3.195   1.021   6.467  0.7954 -0.9895  0.8261
 4827TIP3   OH235895   4.014   1.492  16.284 -0.0760 -0.3244 -0.1991
 4827TIP3    H135896   4.002   1.398  16.296 -2.8922 -0.0794 -0.3762
 4827TIP3    H235897   4.069   1.499  16.206  0.3342 -1.7973 -0.0818
 4828TIP3   OH235898   5.301   1.654   4.697 -0.2325  0.0409 -0.2819
 4828TIP3    H135899   5.284   1.650   4.791  0.0720  0.4230 -0.2084
 4828TIP3    H235900   5.349   1.736   4.684  0.2304 -0.2840 -0.6909
 4829TIP3   OH235901   5.938   5.015   3.455  0.0697  0.5966 -0.0417
 4829TIP3    H135902   5.906   4.955   3.523 -1.1665  1.8028  0.4814
 4829TIP3    H235903   6.030   5.027   3.475  0.2476 -0.7812  0.1001
 4830TIP3   OH235904   5.436   3.423   1.272  0.7756 -0.0051  0.4355
 4830TIP3    H135905   5.347   3.460   1.270  0.5042 -0.6650  0.0565
 4830TIP3    H235906   5.492   3.493   1.239  0.3894  0.3929  0.6104
 4831TIP3   OH235907   6.664   2.278  13.321 -0.0664 -0.4977  0.3090
 4831TIP3    H135908   6.726   2.220  13.278 -0.2340 -0.3362 -0.1509
 4831TIP3    H235909   6.679   2.363  13.282  0.2672 -0.1926  1.0729
 4832TIP3   OH235910   6.295   6.511   2.242  0.7662  0.3712 -0.3592
 4832TIP3    H135911   6.259   6.579   2.299 -0.9998 -2.5888  2.4417
 4832TIP3    H235912   6.387   6.536   2.230  0.0546  3.5107 -0.0981
 4833TIP3   OH235913   0.390   2.522  15.299 -0.3688  0.1874 -0.0282
 4833TIP3    H135914   0.300   2.488  15.297  0.2512 -1.7687  1.8281
 4833TIP3    H235915   0.413   2.522  15.392  1.2581  1.5215 -0.3925
 4834TIP3   OH235916   6.233   5.843  14.034 -0.2316 -0.4906  0.0068
 4834TIP3    H135917   6.285   5.895  14.096  0.3331  0.6729 -1.3979
 4834TIP3    H235918   6.281   5.849  13.952 -1.5689 -1.0453 -0.8430
 4835TIP3   OH235919   2.782   6.734  16.428 -0.2260 -0.7416 -0.5059
 4835TIP3    H135920   2.687   6.739  16.421 -0.1931 -0.7560 -0.9868
 4835TIP3    H235921   2.810   6.825  16.434 -0.1820 -0.6604 -1.6641
 4836TIP3   OH235922   3.706   3.039  14.076  0.5669  0.7342 -0.1806
 4836TIP3    H135923   3.784   3.089  14.055 -0.0993  0.8868 -2.5698
 4836TIP3    H235924   3.731   2.986  14.152  2.2686  2.3395  0.4368
 4837TIP3   OH235925   4.634   0.665   3.958  0.0566  0.5579  0.3665
 4837TIP3    H135926   4.623   0.618   3.875 -1.2095  2.7853 -0.8045
 4837TIP3    H235927   4.545   0.685   3.986  0.5305  1.6181  1.1829
 4838TIP3   OH235928   0.461   5.477   0.405  0.1955  0.0219  0.4952
 4838TIP3    H135929   0.391   5.426   0.445 -0.1930  2.0749  2.6925
 4838TIP3    H235930   0.420   5.524   0.333  0.1358 -1.3064 -0.3578
 4839TIP3   OH235931   3.874   3.315  17.050 -0.3851 -0.1881 -0.3317
 4839TIP3    H135932   3.904   3.270  16.971  1.0910  1.5123 -0.8168
 4839TIP3    H235933   3.785   3.345  17.029 -0.8774 -1.6900 -0.4727
 4840TIP3   OH235934   3.041   2.766   0.951  0.1548 -0.1578  0.1337
 4840TIP3    H135935   3.135   2.758   0.936 -0.1737 -2.3912 -1.2277
 4840TIP3    H235936   3.010   2.676   0.954 -2.1126  0.5354 -0.6819
 4841TIP3   OH235937   3.273   5.895   5.828 -0.4422  0.1506 -0.6356
 4841TIP3    H135938   3.203   5.956   5.805 -1.2340 -0.8895 -1.0627
 4841TIP3    H235939   3.250   5.813   5.783  1.4295 -0.0138 -1.3724
 4842TIP3   OH235940   2.622   1.206   3.609  0.2063 -0.4708  0.0637
 4842TIP3    H135941   2.610   1.297   3.579  0.7146 -0.7717 -1.0875
 4842TIP3    H235942   2.669   1.163   3.538 -0.3126 -1.7348  0.4542
 4843TIP3   OH235943   5.919   5.599   1.269  0.0642  0.0008 -0.8271
 4843TIP3    H135944   5.895   5.646   1.189  1.5103  0.1069 -1.2327
 4843TIP3    H235945   6.011   5.620   1.281 -0.0223 -0.3981  0.6209
 4844TIP3   OH235946   4.861   0.631  15.173 -0.1198  0.5862 -0.1734
 4844TIP3    H135947   4.919   0.583  15.114 -0.1704  0.6780 -0.2972
 4844TIP3    H235948   4.794   0.568  15.198 -0.0029  0.4988 -0.0828
 4845TIP3   OH235949   2.986   0.230  11.017  0.1191 -0.1793  0.4042
 4845TIP3    H135950   3.075   0.223  10.982  0.7227 -0.5943  1.9363
 4845TIP3    H235951   2.957   0.139  11.026 -0.6016 -0.0369 -0.4098
 4846TIP3   OH235952   0.859   2.211   5.106  0.4348 -0.1306  0.0120
 4846TIP3    H135953   0.847   2.247   5.018 -1.8691  1.1807  0.7789
 4846TIP3    H235954   0.853   2.286   5.164  1.1162 -1.0772  1.3582
 4847TIP3   OH235955   4.575   1.900  14.537  0.4416 -0.3571  0.3875
 4847TIP3    H135956   4.562   1.933  14.626 -0.0358 -1.0228  0.5737
 4847TIP3    H235957   4.521   1.821  14.533  0.6074 -0.4351 -0.4350
 4848TIP3   OH235958   1.457   6.016  12.052  0.0098 -0.3374 -0.4547
 4848TIP3    H135959   1.412   6.093  12.016 -1.0266 -0.5711  0.2903
 4848TIP3    H235960   1.528   5.998  11.990  1.2879  2.1644  0.1463
 4849TIP3   OH235961   3.691   3.788  11.966 -0.0505  0.4797 -0.0937
 4849TIP3    H135962   3.690   3.878  11.998 -0.3351  0.3746  0.2051
 4849TIP3    H235963   3.644   3.738  12.033  1.4174 -0.1526  0.5098
 4850TIP3   OH235964   0.596   5.104   0.093 -0.0628 -0.4876  0.0899
 4850TIP3    H135965   0.515   5.144   0.059 -0.9784 -1.9284  0.5056
 4850TIP3    H235966   0.599   5.132   0.184 -0.5334 -1.0985  0.2957
 4851TIP3   OH235967   1.128   0.817   6.174 -0.0240  0.3580  0.2883
 4851TIP3    H135968   1.166   0.894   6.215  0.6807  0.1401  0.0531
 4851TIP3    H235969   1.174   0.743   6.214 -0.1404  0.0939 -0.0590
 4852TIP3   OH235970   5.961   1.339  14.978 -0.6617  0.6436  0.0434
 4852TIP3    H135971   5.870   1.368  14.985 -1.1053 -0.1433 -1.8359
 4852TIP3    H235972   5.980   1.342  14.884  1.4925  1.4302  0.4379
 4853TIP3   OH235973   4.833   4.675   2.723 -0.4574 -0.0309 -0.3607
 4853TIP3    H135974   4.739   4.657   2.716 -0.3848 -0.2706 -0.6982
 4853TIP3    H235975   4.856   4.717   2.640  0.1303 -1.7164 -1.0849
 4854TIP3   OH235976   5.955   4.101  12.318  0.5304 -0.1894 -0.9344
 4854TIP3    H135977   5.908   4.176  12.355  1.5062  0.4908 -1.0307
 4854TIP3    H235978   5.891   4.031  12.316 -0.4161  0.6564 -0.8681
 4855TIP3   OH235979   4.553   1.306  13.625  0.4888  0.3662  0.2937
 4855TIP3    H135980   4.512   1.220  13.610 -1.2714  0.9735  1.3011
 4855TIP3    H235981   4.590   1.300  13.713  2.0322  0.0618 -0.3429
 4856TIP3   OH235982   1.065   1.589  11.553  0.4283  0.6674  0.4002
 4856TIP3    H135983   1.118   1.616  11.628  0.6656  3.0621 -0.5287
 4856TIP3    H235984   1.117   1.614  11.477 -0.0875 -1.1083 -0.5946
 4857TIP3   OH235985   6.681   4.169  16.161  0.3494  0.2437 -0.0636
 4857TIP3    H135986   6.674   4.075  16.176  0.5855  0.1807 -0.3322
 4857TIP3    H235987   6.680   4.208  16.248  2.5188 -0.1725  0.2186
 4858TIP3   OH235988   1.091   2.727  15.067 -0.5159 -0.3672 -0.7066
 4858TIP3    H135989   1.128   2.802  15.022  1.0376  0.4020  1.6574
 4858TIP3    H235990   1.164   2.665  15.074 -0.5206 -0.2342  1.1026
 4859TIP3   OH235991   1.457   2.392  12.357 -0.1837 -0.1893  0.3309
 4859TIP3    H135992   1.432   2.361  12.270 -0.0746 -1.7991  0.8341
 4859TIP3    H235993   1.424   2.325  12.417  0.8069  0.2618  1.4333
 4860TIP3   OH235994   3.789   4.596  10.184 -0.0530  0.0577 -0.1262
 4860TIP3    H135995   3.882   4.610  10.203  0.4504  0.0199 -2.3802
 4860TIP3    H235996   3.788   4.533  10.112 -1.8308  0.2603 -0.3207
 4861TIP3   OH235997   3.698   5.304  12.094 -0.2613 -0.3885 -0.3317
 4861TIP3    H135998   3.631   5.346  12.148 -0.0456  0.2020 -0.5081
 4861TIP3    H235999   3.776   5.303  12.149  0.0112  0.3923 -0.6900
 4862TIP3   OH236000   2.989   2.075   0.668  0.1127 -0.0231  0.2266
 4862TIP3    H136001   3.066   2.020   0.661  0.4186  0.2021  1.5277
 4862TIP3    H236002   2.916   2.018   0.642  0.6186 -0.4643 -0.2547
 4863TIP3   OH236003   6.349   4.689  15.349  0.0765 -0.2805 -0.4639
 4863TIP3    H136004   6.351   4.626  15.278  1.4757  0.4371 -1.1105
 4863TIP3    H236005   6.439   4.721  15.355 -0.4607  1.2324  0.2003
 4864TIP3   OH236006   1.706   1.548   3.277 -0.4910 -0.1453  0.3241
 4864TIP3    H136007   1.693   1.629   3.327  0.2930  1.2958 -1.6630
 4864TIP3    H236008   1.742   1.486   3.341  4.7662  2.8770  0.8204
 4865TIP3   OH236009   6.556   5.977  13.363  0.2338 -0.0190 -0.1569
 4865TIP3    H136010   6.642   6.017  13.371 -0.3522  1.3393 -0.4623
 4865TIP3    H236011   6.519   6.013  13.283 -0.6021 -0.6279 -0.0663
 4866TIP3   OH236012   5.384   5.564  14.309 -0.3506 -0.6903  0.1166
 4866TIP3    H136013   5.479   5.552  14.313 -0.3005 -0.7900 -1.0518
 4866TIP3    H236014   5.352   5.489  14.260 -0.5741  1.1674 -2.8752
 4867TIP3   OH236015   1.334   1.734  11.723 -0.1682  0.5091  0.1083
 4867TIP3    H136016   1.330   1.711  11.816 -0.9721  1.0521  0.2201
 4867TIP3    H236017   1.302   1.824  11.720  1.6287  1.1808 -0.4805
 4868TIP3   OH236018   2.199   3.056  11.572  0.5695 -0.2010 -0.4513
 4868TIP3    H136019   2.276   3.071  11.517  0.3372 -0.5692 -0.8903
 4868TIP3    H236020   2.170   2.968  11.549 -0.5013  0.2554 -0.9509
 4869TIP3   OH236021   1.125   0.518  15.567 -0.4179  0.2133 -0.0142
 4869TIP3    H136022   1.108   0.551  15.655  2.8926 -1.3348  1.3994
 4869TIP3    H236023   1.206   0.468  15.576  0.1483  0.0946 -4.0060
 4870TIP3   OH236024   5.911   6.782   3.464 -0.3338  0.1877 -0.7201
 4870TIP3    H136025   5.906   6.688   3.483 -1.2659  0.3914  0.1729
 4870TIP3    H236026   6.003   6.804   3.479  0.1867 -0.8043 -2.1931
 4871TIP3   OH236027   4.251   4.623  14.983 -0.1270  0.2307 -0.4945
 4871TIP3    H136028   4.316   4.640  14.915 -0.4027  2.3605 -0.2896
 4871TIP3    H236029   4.167   4.633  14.940 -0.3401 -1.2060 -0.4533
 4872TIP3   OH236030   0.058   6.272  11.825 -0.0480 -0.1877 -0.0278
 4872TIP3    H136031  -0.014   6.246  11.883 -0.3298  0.1819 -0.2117
 4872TIP3    H236032   0.127   6.208  11.843 -0.5318 -0.7266 -0.0669
 4873TIP3   OH236033   0.270   3.371   4.260 -0.1563 -0.1488  0.2029
 4873TIP3    H136034   0.211   3.297   4.272  0.5572 -0.9470 -0.9441
 4873TIP3    H236035   0.214   3.448   4.264 -1.1390 -0.8357 -0.0291
 4874TIP3   OH236036   0.540   1.763   3.723 -0.4603  0.7663 -0.2020
 4874TIP3    H136037   0.493   1.702   3.666  0.2181  1.5520 -1.6557
 4874TIP3    H236038   0.486   1.842   3.723  0.1434  1.1940 -0.7810
 4875TIP3   OH236039   4.360   6.198  10.322 -0.8069 -1.0191 -0.5460
 4875TIP3    H136040   4.412   6.251  10.382  0.0374  0.1028 -2.2081
 4875TIP3    H236041   4.421   6.132  10.288 -1.1007 -1.2156 -0.6990
 4876TIP3   OH236042   5.766   0.412   0.366 -0.0561  0.2542  0.1902
 4876TIP3    H136043   5.708   0.434   0.440 -0.2451 -1.2605  0.5190
 4876TIP3    H236044   5.713   0.429   0.289 -0.5574 -0.0399  0.4631
 4877TIP3   OH236045   4.952   1.745  14.084 -0.4241  0.2453  0.1249
 4877TIP3    H136046   4.990   1.751  13.996  0.2318 -2.1022  0.1766
 4877TIP3    H236047   4.861   1.773  14.073 -0.2082  0.4966 -1.1724
 4878TIP3   OH236048   2.248   5.242   5.078  0.1550  0.0959  0.0216
 4878TIP3    H136049   2.263   5.336   5.092  1.0939  0.0410 -0.5377
 4878TIP3    H236050   2.188   5.217   5.148 -1.4955  1.4688 -0.8004
 4879TIP3   OH236051   0.575   5.921   3.847 -0.5290  0.3817  0.3104
 4879TIP3    H136052   0.664   5.954   3.853 -0.5947  0.7935 -0.7978
 4879TIP3    H236053   0.524   5.994   3.812 -0.8609 -0.5571 -1.2470
 4880TIP3   OH236054   1.969   0.885  13.996  0.4403  0.5169  0.2392
 4880TIP3    H136055   1.896   0.829  13.970 -0.5081  0.0260  3.4890
 4880TIP3    H236056   1.952   0.969  13.953  0.2635 -0.7458 -2.3035
 4881TIP3   OH236057   6.450   4.805   5.690  0.2149 -0.4058 -0.5838
 4881TIP3    H136058   6.530   4.774   5.648  1.6629  2.2886 -0.0375
 4881TIP3    H236059   6.382   4.796   5.623  1.1619 -1.7314 -1.4235
 4882TIP3   OH236060   4.802   5.358   2.302  0.1550  0.1273  0.2952
 4882TIP3    H136061   4.707   5.359   2.319 -0.4151 -1.6023 -2.2358
 4882TIP3    H236062   4.828   5.450   2.308 -1.9132  0.7893 -0.0160
 4883TIP3   OH236063   0.390   4.537   3.739  0.2844 -0.6506 -0.0299
 4883TIP3    H136064   0.302   4.522   3.704  0.2601 -0.2275 -0.1520
 4883TIP3    H236065   0.395   4.631   3.753  1.2683 -0.4597 -1.5063
 4884TIP3   OH236066   6.313   5.859  11.913 -0.3510  0.3189  0.6427
 4884TIP3    H136067   6.330   5.922  11.983 -0.7831  0.0201  1.0230
 4884TIP3    H236068   6.233   5.814  11.940  1.3596 -2.2812  1.7956
 4885TIP3   OH236069   3.439   2.336  15.287 -0.4656  0.3172 -0.1651
 4885TIP3    H136070   3.439   2.282  15.367 -0.0677 -2.0785 -1.6944
 4885TIP3    H236071   3.353   2.377  15.286 -0.7983 -0.2959  1.0619
 4886TIP3   OH236072   0.546   5.337   6.238  0.2953 -0.4596 -0.6355
 4886TIP3    H136073   0.560   5.432   6.233  0.1627 -0.0786  3.1576
 4886TIP3    H236074   0.451   5.326   6.242  0.1850 -1.0360 -3.1826
 4887TIP3   OH236075   6.474   3.896  14.811  0.0336  0.8860 -0.6362
 4887TIP3    H136076   6.411   3.949  14.763 -0.4402  0.6676 -0.2596
 4887TIP3    H236077   6.460   3.807  14.780 -0.2101  0.7576 -0.1682
 4888TIP3   OH236078   4.677   4.056   1.335 -0.0450  0.0830 -0.0633
 4888TIP3    H136079   4.741   4.014   1.278 -1.1965  0.0482 -1.3807
 4888TIP3    H236080   4.669   3.997   1.410  1.0934 -0.1370 -0.0979
 4889TIP3   OH236081   5.955   6.130   1.437  0.0632 -0.2642  0.3209
 4889TIP3    H136082   5.971   6.223   1.453  0.8125 -0.3756  0.2248
 4889TIP3    H236083   6.010   6.108   1.362  0.0113 -0.8230  0.4410
 4890TIP3   OH236084   4.435   5.443   4.368  0.4304 -0.0088  0.3636
 4890TIP3    H136085   4.402   5.531   4.390 -1.8053 -0.6006 -0.3333
 4890TIP3    H236086   4.368   5.384   4.401  1.6096 -1.4474  0.2727
 4891TIP3   OH236087   1.709   1.525   1.431  0.2236  0.9707  0.1346
 4891TIP3    H136088   1.702   1.431   1.448  1.5997  1.0018  1.0277
 4891TIP3    H236089   1.619   1.553   1.413 -0.3894 -0.2852  1.1016
 4892TIP3   OH236090   3.235   6.512  11.123  0.0346  0.4861  0.1613
 4892TIP3    H136091   3.194   6.430  11.151  1.0697 -0.6916 -1.6075
 4892TIP3    H236092   3.198   6.578  11.181  0.8174 -1.5185  3.2057
 4893TIP3   OH236093   4.142   6.116  11.016 -0.0954  0.0021  0.2864
 4893TIP3    H136094   4.205   6.055  11.054 -0.5546 -0.3441  0.5017
 4893TIP3    H236095   4.059   6.095  11.059 -0.2697  0.7498  0.3306
 4894TIP3   OH236096   3.348   1.296  16.049  0.3254 -0.5612 -0.1227
 4894TIP3    H136097   3.267   1.274  16.003  0.1772 -1.8059  0.6816
 4894TIP3    H236098   3.407   1.222  16.031  1.3418  0.3765 -0.7883
 4895TIP3   OH236099   3.853   4.312   1.996 -0.0779 -0.3904  0.3937
 4895TIP3    H136100   3.806   4.291   2.077  1.0602 -4.9077  0.1833
 4895TIP3    H236101   3.784   4.323   1.931 -0.9423  0.0995  1.3607
 4896TIP3   OH236102   4.393   1.546   0.430 -0.3015 -0.6355  0.0843
 4896TIP3    H136103   4.459   1.614   0.437 -1.7724  0.7861  0.6708
 4896TIP3    H236104   4.407   1.491   0.508  1.3802 -1.5223 -0.7914
 4897TIP3   OH236105   2.480   3.944   4.699  0.4738  0.2073 -0.0090
 4897TIP3    H136106   2.466   3.863   4.747 -0.4035  0.1450 -0.3541
 4897TIP3    H236107   2.554   3.925   4.640  1.6783  0.3450  1.3973
 4898TIP3   OH236108   2.311   1.732  12.530  0.4611 -0.0989 -0.5133
 4898TIP3    H136109   2.341   1.746  12.440  0.0997  3.1732 -0.2524
 4898TIP3    H236110   2.215   1.736  12.524  0.4423  0.3363  0.0164
 4899TIP3   OH236111   4.021   1.623   0.500  0.4471 -0.5774  0.3069
 4899TIP3    H136112   4.097   1.612   0.442 -0.4067  1.5805 -1.3641
 4899TIP3    H236113   4.059   1.640   0.586  1.9795  1.7649 -0.7382
 4900TIP3   OH236114   4.843   1.707   0.609 -0.2423 -0.7826  0.2390
 4900TIP3    H136115   4.790   1.695   0.529 -1.1617 -0.8126  0.8345
 4900TIP3    H236116   4.919   1.651   0.595  0.2852  0.2250 -1.1887
 4901TIP3   OH236117   3.482   1.407   5.590 -0.3016  0.0620  0.5465
 4901TIP3    H136118   3.475   1.408   5.685 -0.8836 -1.2674  0.5509
 4901TIP3    H236119   3.451   1.493   5.562  0.1668  0.5733  1.5725
 4902TIP3   OH236120   3.347   4.797   2.271  0.7534 -0.2874 -0.3012
 4902TIP3    H136121   3.434   4.764   2.247  0.2964 -2.0019  0.2416
 4902TIP3    H236122   3.290   4.721   2.262 -1.0326  1.1726 -2.1684
 4903TIP3   OH236123   0.667   5.231   4.430  0.3741  0.1925 -0.2493
 4903TIP3    H136124   0.708   5.259   4.512 -0.7790 -0.1468  0.4605
 4903TIP3    H236125   0.725   5.163   4.395  0.6731  0.0757  0.4741
 4904TIP3   OH236126   4.897   1.582   1.800 -0.1578  0.5191  0.2200
 4904TIP3    H136127   4.869   1.536   1.879 -1.4917  2.3575  0.8755
 4904TIP3    H236128   4.833   1.555   1.733  0.9421 -0.9978 -0.2850
 4905TIP3   OH236129   3.417   0.769  12.760  0.5215 -0.8829  0.1771
 4905TIP3    H136130   3.412   0.677  12.733  1.4986 -1.0845  0.6287
 4905TIP3    H236131   3.327   0.799  12.760  0.1992 -1.8175 -0.0768
 4906TIP3   OH236132   3.850   3.756  14.190  0.1479 -0.5901 -0.6551
 4906TIP3    H136133   3.861   3.787  14.100 -0.2694  0.5518 -0.3281
 4906TIP3    H236134   3.850   3.835  14.243  1.9140 -1.3162  0.5295
 4907TIP3   OH236135   1.070   2.783   4.676 -0.3077 -0.2094 -0.4778
 4907TIP3    H136136   1.116   2.777   4.592  0.6934 -1.4964  0.1220
 4907TIP3    H236137   1.033   2.695   4.689 -0.9396  0.1402  0.1613
 4908TIP3   OH236138   4.365   1.278  15.365  0.0014 -0.0388 -0.1608
 4908TIP3    H136139   4.442   1.288  15.420 -0.0197 -0.1883 -0.1045
 4908TIP3    H236140   4.399   1.273  15.275  0.0201  0.4339 -0.1814
 4909TIP3   OH236141   4.259   0.748   5.151 -0.2381 -0.0426 -0.2317
 4909TIP3    H136142   4.271   0.757   5.057  0.8973 -0.0832 -0.0984
 4909TIP3    H236143   4.165   0.763   5.164 -0.5795 -0.9139 -1.4586
 4910TIP3   OH236144   0.462   5.891  16.514 -0.0111 -0.0032 -0.3072
 4910TIP3    H136145   0.371   5.870  16.490  0.2820 -1.5102 -0.1998
 4910TIP3    H236146   0.498   5.808  16.546  1.4956  0.4972 -0.6236
 4911TIP3   OH236147   5.506   1.405  14.461  0.0581  0.1517  0.0658
 4911TIP3    H136148   5.535   1.482  14.510  0.2075 -0.0317  0.2657
 4911TIP3    H236149   5.585   1.375  14.415  0.2398 -0.4561  0.7527
 4912TIP3   OH236150   2.811   1.282  12.242  0.3900 -0.1083 -0.5025
 4912TIP3    H136151   2.851   1.292  12.156  0.3718  0.4189 -0.4540
 4912TIP3    H236152   2.885   1.271  12.302  0.4463  0.4087 -0.4722
 4913TIP3   OH236153   0.909   0.896  12.507  0.1836 -0.3341 -0.6394
 4913TIP3    H136154   0.925   0.883  12.413  1.2650  0.4781 -0.5889
 4913TIP3    H236155   0.929   0.988  12.522 -2.6036  0.2713 -0.0915
 4914TIP3   OH236156   6.320   2.455   2.153  0.3365  0.6887  0.5061
 4914TIP3    H136157   6.415   2.448   2.159  0.2488 -0.2466  0.8841
 4914TIP3    H236158   6.290   2.367   2.133 -0.5251  0.7767  1.3334
 4915TIP3   OH236159   4.399   5.984  11.068 -0.5844  0.6834  0.1646
 4915TIP3    H136160   4.402   5.951  10.978 -1.3196  1.5550 -0.2004
 4915TIP3    H236161   4.489   5.979  11.098 -0.4358 -0.2355 -0.3879
 4916TIP3   OH236162   1.229   3.978   2.748  0.3005  0.0904  0.1886
 4916TIP3    H136163   1.272   4.009   2.827 -0.3460 -1.6083  1.2795
 4916TIP3    H236164   1.271   3.894   2.729 -0.6752 -0.3125 -0.2917
 4917TIP3   OH236165   5.956   1.947  14.615  0.1140  0.2774  0.1338
 4917TIP3    H136166   5.915   1.929  14.699  0.8704 -1.0996  0.2297
 4917TIP3    H236167   6.008   2.026  14.630 -0.7806  0.7900  0.5898
 4918TIP3   OH236168   0.460   3.330   2.687  0.3225  0.2859  0.2974
 4918TIP3    H136169   0.385   3.277   2.711  0.7145  0.1902  1.3450
 4918TIP3    H236170   0.496   3.360   2.770  2.6081 -1.2900 -0.0218
 4919TIP3   OH236171   3.077   5.760  11.117 -0.0310  0.5539  0.1274
 4919TIP3    H136172   2.998   5.708  11.104  0.1083  0.2695  0.4129
 4919TIP3    H236173   3.135   5.703  11.167 -0.5100  1.5661  1.9349
 4920TIP3   OH236174   4.698   6.569   2.520  0.4257 -0.1427  0.6199
 4920TIP3    H136175   4.623   6.625   2.504  0.1237 -0.4948  0.7898
 4920TIP3    H236176   4.727   6.540   2.434  2.2127  2.3465  0.2667
 4921TIP3   OH236177   5.202   0.688  13.757  0.4440  0.1775  0.2411
 4921TIP3    H136178   5.220   0.751  13.827 -2.4489  0.2710  1.0458
 4921TIP3    H236179   5.191   0.604  13.802 -2.1996  0.3733  0.1343
 4922TIP3   OH236180   5.809   3.017  14.295 -0.2903 -0.1444 -0.8428
 4922TIP3    H136181   5.881   3.054  14.346 -0.5826 -0.7661  0.0454
 4922TIP3    H236182   5.847   2.942  14.250 -0.2047 -0.0100 -0.9984
 4923TIP3   OH236183   3.522   3.187  17.175  0.4781  0.0047 -0.2142
 4923TIP3    H136184   3.537   3.099  17.142  0.8207 -0.5822  1.4396
 4923TIP3    H236185   3.428   3.190  17.195  0.2385  0.4113 -1.2790
 4924TIP3   OH236186   0.912   0.245  11.271 -0.1961 -0.5386 -0.4853
 4924TIP3    H136187   0.906   0.210  11.182 -0.2096 -0.3498 -0.5587
 4924TIP3    H236188   0.837   0.208  11.317  0.2256 -1.2381 -0.3439
 4925TIP3   OH236189   6.700   3.984   2.002  0.3231  0.2476  0.4871
 4925TIP3    H136190   6.728   3.892   2.002  1.2090  0.5021 -0.1060
 4925TIP3    H236191   6.749   4.023   2.075  0.5232  0.4048  0.2711
 4926TIP3   OH236192   0.764   6.215   4.871  0.2148  0.2535  0.0536
 4926TIP3    H136193   0.855   6.214   4.901  0.2461  2.2959  0.1641
 4926TIP3    H236194   0.712   6.207   4.951  0.3072  1.2197  0.2186
 4927TIP3   OH236195   4.203   4.531  11.927  0.1588 -0.1841 -0.0973
 4927TIP3    H136196   4.250   4.566  12.003 -0.7234 -0.2464  0.4851
 4927TIP3    H236197   4.163   4.449  11.958  0.1928 -0.4665 -0.7669
 4928TIP3   OH236198   1.187   3.510   5.457 -0.0500  0.2063  0.2341
 4928TIP3    H136199   1.260   3.490   5.398  0.0166  1.2057 -0.0326
 4928TIP3    H236200   1.180   3.605   5.457 -1.2963  0.1406  0.3349
 4929TIP3   OH236201   3.386   3.845   6.082  0.2298  0.2772  0.5313
 4929TIP3    H136202   3.469   3.880   6.113  0.1950 -0.0556  1.0034
 4929TIP3    H236203   3.393   3.751   6.093  0.9336 -0.0835 -2.1854
 4930TIP3   OH236204   2.111   3.983   4.286  0.6294 -0.2018 -0.2056
 4930TIP3    H136205   2.155   4.063   4.260  0.0185 -0.4789 -2.2688
 4930TIP3    H236206   2.158   3.913   4.239  1.5331 -1.1622  2.0017
 4931TIP3   OH236207   4.264   2.965  12.787 -0.2728 -0.5227  0.0301
 4931TIP3    H136208   4.290   3.054  12.812 -0.8683 -0.5177  0.6920
 4931TIP3    H236209   4.177   2.976  12.749 -0.3407 -0.8172  0.0983
 4932TIP3   OH236210   2.701   1.134   1.109  0.0249  0.5507  0.7568
 4932TIP3    H136211   2.732   1.053   1.067  0.3782  1.7155 -1.3282
 4932TIP3    H236212   2.665   1.104   1.192 -0.1495 -1.8052 -0.0753
 4933TIP3   OH236213   5.457   0.045  15.695 -0.3838  0.3585 -0.2511
 4933TIP3    H136214   5.544   0.029  15.732 -0.1592  0.2880 -0.8043
 4933TIP3    H236215   5.397   0.033  15.769  0.0758  0.4429  0.1443
 4934TIP3   OH236216   2.658   5.845   2.621  0.0216 -0.0733  0.1018
 4934TIP3    H136217   2.656   5.872   2.712 -0.0939  0.6266 -0.1026
 4934TIP3    H236218   2.726   5.778   2.617  0.1811  0.0554  0.6534
 4935TIP3   OH236219   0.976   2.777  16.344  0.6256  0.3338 -0.4022
 4935TIP3    H136220   0.953   2.788  16.252 -2.0529 -1.2620 -0.0318
 4935TIP3    H236221   0.917   2.836  16.391  0.6472 -0.2401  0.3666
 4936TIP3   OH236222   3.114   4.413   4.351 -0.5882  0.0600 -0.4344
 4936TIP3    H136223   3.164   4.340   4.388  0.0579  0.4524 -0.5160
 4936TIP3    H236224   3.114   4.397   4.257  0.3014  0.6140 -0.5386
 4937TIP3   OH236225   1.366   3.209  11.985 -0.0851 -0.5627 -0.1908
 4937TIP3    H136226   1.451   3.176  11.953  0.6574  1.3037 -0.2641
 4937TIP3    H236227   1.314   3.219  11.906 -0.2751 -1.3564 -0.1823
 4938TIP3   OH236228   2.690   4.091  10.348 -0.0452 -0.4284  0.2854
 4938TIP3    H136229   2.743   4.165  10.319  0.8778 -1.1840 -0.0202
 4938TIP3    H236230   2.742   4.014  10.326 -1.2832 -1.2091 -0.0308
 4939TIP3   OH236231   6.152   2.870   1.671  0.3789  0.5326 -0.0024
 4939TIP3    H136232   6.242   2.887   1.642  0.1585  0.6717 -0.6032
 4939TIP3    H236233   6.150   2.904   1.761  1.5581 -1.4539  0.8512
 4940TIP3   OH236234   5.308   2.588  12.966 -0.1698 -0.1667 -0.4491
 4940TIP3    H136235   5.219   2.564  12.940 -0.3570  0.6242 -0.5671
 4940TIP3    H236236   5.335   2.653  12.901 -0.3610  1.2794  0.8744
 4941TIP3   OH236237   5.902   0.546   1.100 -0.8140 -0.6110 -0.1843
 4941TIP3    H136238   5.907   0.601   1.022 -0.3287 -1.0598 -0.4760
 4941TIP3    H236239   5.884   0.458   1.067 -1.6734 -0.6231  0.2868
 4942TIP3   OH236240   0.223   4.522  14.924  0.2259 -0.2590  0.1525
 4942TIP3    H136241   0.166   4.447  14.904  1.7451 -1.2435 -0.6855
 4942TIP3    H236242   0.254   4.552  14.838  0.3018  0.8208  0.5379
 4943TIP3   OH236243   0.015   2.453  16.688  0.5399 -0.1596 -0.1199
 4943TIP3    H136244   0.063   2.440  16.770  3.0125 -0.3778 -1.4897
 4943TIP3    H236245   0.007   2.548  16.679 -0.5914 -0.1523  0.7909
 4944TIP3   OH236246   0.120   4.414   5.341  0.0368  0.0941  0.2841
 4944TIP3    H136247   0.055   4.469   5.385  0.7062  0.3750  0.9357
 4944TIP3    H236248   0.129   4.338   5.399 -0.6562 -0.5758 -0.4564
 4945TIP3   OH236249   3.225   4.094   6.261  0.1563 -0.1914 -0.0439
 4945TIP3    H136250   3.156   4.114   6.197  1.9649  1.1378 -1.7185
 4945TIP3    H236251   3.232   4.173   6.314  1.1247  0.1385 -0.6363
 4946TIP3   OH236252   3.002   6.710   6.334  0.4956 -0.2590  0.1930
 4946TIP3    H136253   3.085   6.664   6.342  0.4444 -0.0517  2.7198
 4946TIP3    H236254   3.024   6.802   6.346  0.0454 -0.0687 -0.3896
 4947TIP3   OH236255   4.002   1.696   1.887 -0.1690  0.7934  0.4621
 4947TIP3    H136256   3.965   1.780   1.859 -1.7695  0.5241  1.6160
 4947TIP3    H236257   4.067   1.675   1.820 -0.0944  2.6921 -0.1318
 4948TIP3   OH236258   3.467   3.100   0.425  0.4902 -0.4486 -0.2732
 4948TIP3    H136259   3.402   3.078   0.492 -0.0750  0.3591 -0.5440
 4948TIP3    H236260   3.489   3.016   0.384 -0.7431 -0.6743 -0.5073
 4949TIP3   OH236261   3.797   3.227   5.847  0.1712  0.0700 -0.6196
 4949TIP3    H136262   3.858   3.168   5.803 -0.9152 -1.8455  0.3108
 4949TIP3    H236263   3.735   3.253   5.779  1.2874  1.0740 -1.2900
 4950TIP3   OH236264   5.030   6.388  15.629 -0.0648  0.0144 -0.1958
 4950TIP3    H136265   5.068   6.464  15.673  1.1487 -1.2803  1.1452
 4950TIP3    H236266   4.939   6.413  15.613 -0.1412  1.1923  1.6507
 4951TIP3   OH236267   1.739   2.660   1.289 -0.0714 -0.1128  0.1562
 4951TIP3    H136268   1.676   2.703   1.348 -1.3211  0.0301 -1.2158
 4951TIP3    H236269   1.823   2.701   1.310 -0.6311  0.5286  1.2499
 4952TIP3   OH236270   0.113   1.374   4.139 -0.2815 -0.2550 -0.0339
 4952TIP3    H136271   0.172   1.449   4.125 -1.9026  0.8740 -1.2446
 4952TIP3    H236272   0.150   1.304   4.085  0.7238 -0.0520  0.3604
 4953TIP3   OH236273   2.410   3.548   5.098  0.1697  0.0807 -0.4040
 4953TIP3    H136274   2.490   3.560   5.149 -0.0698 -1.0961  0.2828
 4953TIP3    H236275   2.439   3.505   5.017  0.3008  0.0886 -0.3606
 4954TIP3   OH236276   4.075   4.610   4.191 -0.0558 -0.3039 -0.9557
 4954TIP3    H136277   4.027   4.580   4.113 -0.4981 -0.9772 -0.4407
 4954TIP3    H236278   4.029   4.689   4.218  0.8768  0.6695 -2.0988
 4955TIP3   OH236279   3.233   1.375   2.266  0.8210 -0.3012  0.2935
 4955TIP3    H136280   3.252   1.287   2.300 -0.5980 -1.5898 -1.9690
 4955TIP3    H236281   3.138   1.374   2.250  0.9064  1.4061 -0.4902
 4956TIP3   OH236282   3.068   6.635   2.922  0.0839 -0.3859 -0.2029
 4956TIP3    H136283   3.076   6.561   2.982  1.8422  1.2145  1.7163
 4956TIP3    H236284   2.977   6.633   2.893 -0.6762 -1.6714  2.0104
 4957TIP3   OH236285   5.476   5.414   1.855 -0.5984  0.1843  0.0604
 4957TIP3    H136286   5.558   5.448   1.891 -0.4572  0.4531 -0.4907
 4957TIP3    H236287   5.434   5.490   1.816  0.1367 -0.3692 -1.9782
 4958TIP3   OH236288   6.525   3.997   2.640  0.2555 -0.0553  0.1225
 4958TIP3    H136289   6.452   4.002   2.579 -0.0522 -0.0800  0.4842
 4958TIP3    H236290   6.506   3.921   2.695  0.0616  0.4961  0.8353
 4959TIP3   OH236291   4.357   2.446  13.686  0.2919 -0.0016 -0.1777
 4959TIP3    H136292   4.359   2.518  13.749 -0.1417 -1.7646  1.9752
 4959TIP3    H236293   4.449   2.432  13.662  0.3580  1.3962 -0.8736
 4960TIP3   OH236294   0.997   4.145  14.501 -0.2675  0.4947 -0.4313
 4960TIP3    H136295   0.965   4.163  14.413 -0.7458 -0.7071 -0.5211
 4960TIP3    H236296   1.056   4.218  14.520  1.8447 -0.4751 -2.7173
 4961TIP3   OH236297   1.785   4.162   4.449  0.3837 -0.3166  0.3478
 4961TIP3    H136298   1.833   4.131   4.525 -2.4200 -1.8595  1.6555
 4961TIP3    H236299   1.794   4.092   4.384  1.7143  0.4235 -0.2967
 4962TIP3   OH236300   0.153   0.871  11.046  0.7804  0.2893 -0.1187
 4962TIP3    H136301   0.093   0.927  11.094  2.0958  2.0205 -0.3976
 4962TIP3    H236302   0.107   0.850  10.965 -0.5994 -0.8983  0.9175
 4963TIP3   OH236303   2.453   0.749  14.761  0.2694 -0.0348 -0.1955
 4963TIP3    H136304   2.462   0.675  14.700 -0.8623  0.3400 -0.8357
 4963TIP3    H236305   2.520   0.811  14.733  0.2371 -0.1780 -0.5980
 4964TIP3   OH236306   0.552   2.901   1.537  0.5920  0.2944 -0.1011
 4964TIP3    H136307   0.622   2.963   1.519 -0.5631  1.6331 -0.1288
 4964TIP3    H236308   0.549   2.845   1.460  3.1090 -1.2958  0.8367
 4965TIP3   OH236309   1.013   3.173   0.583 -0.0120 -0.9130 -0.5389
 4965TIP3    H136310   1.091   3.202   0.631 -0.0739 -1.0634 -0.3467
 4965TIP3    H236311   1.044   3.160   0.494  0.1535 -0.8371 -0.4930
 4966TIP3   OH236312   3.967   5.462   4.110 -0.2797  0.0083 -0.2337
 4966TIP3    H136313   4.027   5.387   4.109 -1.0666 -0.6252 -0.8710
 4966TIP3    H236314   4.011   5.529   4.056  1.3128  0.7542  1.8696
 4967TIP3   OH236315   3.933   3.751  12.764  0.1733  0.6176  0.6953
 4967TIP3    H136316   3.917   3.694  12.840  0.8665  0.7746  0.9571
 4967TIP3    H236317   4.028   3.763  12.762  0.0054  2.1114  0.8865
 4968TIP3   OH236318   4.177   5.958   2.719  0.5786  0.0809 -0.8919
 4968TIP3    H136319   4.244   5.937   2.785 -1.9486  0.8561  2.1513
 4968TIP3    H236320   4.156   6.050   2.735 -0.5691  0.1057 -2.3886
 4969TIP3   OH236321   0.250   4.687  15.265  0.0886  0.0778  0.2166
 4969TIP3    H136322   0.337   4.687  15.226 -0.8541  0.4430 -2.0598
 4969TIP3    H236323   0.208   4.609  15.229 -0.6037 -0.0114  1.1639
 4970TIP3   OH236324   5.529   0.988   6.652 -0.1503 -0.5169 -0.1192
 4970TIP3    H136325   5.502   0.906   6.612  0.5613 -0.1599 -1.3803
 4970TIP3    H236326   5.453   1.045   6.645 -0.6031 -1.0040  0.6455
 4971TIP3   OH236327   5.323   2.020   0.252  0.4311 -0.1690 -0.3170
 4971TIP3    H136328   5.261   2.030   0.325  0.8885  1.5270 -0.1166
 4971TIP3    H236329   5.338   2.109   0.221  1.4529 -0.7200 -1.4844
 4972TIP3   OH236330   0.777   1.561  15.512  0.1728  0.0384 -0.3137
 4972TIP3    H136331   0.759   1.655  15.511  1.2843  0.3081 -3.0950
 4972TIP3    H236332   0.734   1.527  15.434  0.9670 -1.5026 -0.1248
 4973TIP3   OH236333   4.656   0.719  12.200  0.2561  0.1607  0.5026
 4973TIP3    H136334   4.688   0.792  12.146 -1.2721  0.2421 -0.3522
 4973TIP3    H236335   4.668   0.642  12.145  0.0420  0.0470  0.6149
 4974TIP3   OH236336   0.099   5.074   3.489  0.2641  0.3073 -0.3796
 4974TIP3    H136337   0.023   5.021   3.511  0.4391 -0.2461 -1.0825
 4974TIP3    H236338   0.130   5.107   3.573  1.2226 -2.1547  0.3215
 4975TIP3   OH236339   6.597   3.787  16.608  0.2770  0.0694  0.4044
 4975TIP3    H136340   6.680   3.826  16.580 -0.2249  1.3712  0.6421
 4975TIP3    H236341   6.569   3.841  16.682  1.1876 -2.7940  3.0763
 4976TIP3   OH236342   6.200   4.667   1.670 -0.1413  0.2003 -0.5348
 4976TIP3    H136343   6.166   4.695   1.754 -0.3865  0.7105 -0.8010
 4976TIP3    H236344   6.294   4.686   1.674  0.2867 -1.8670  0.4706
 4977TIP3   OH236345   4.026   5.039  16.466 -0.3624 -0.2960  0.1742
 4977TIP3    H136346   4.081   5.107  16.505 -1.1511  0.2592  0.3259
 4977TIP3    H236347   4.037   5.051  16.371 -0.3148 -0.1137  0.2027
 4978TIP3   OH236348   0.323   6.789  15.571  0.1596 -0.0194 -0.7221
 4978TIP3    H136349   0.235   6.819  15.594 -0.3371 -0.8213 -1.5123
 4978TIP3    H236350   0.381   6.853  15.612 -0.7584  0.1219  0.4163
 4979TIP3   OH236351   3.833   1.547   4.866  0.4653 -0.2901 -0.0755
 4979TIP3    H136352   3.906   1.542   4.804  0.9446  1.7756  0.2475
 4979TIP3    H236353   3.827   1.640   4.889 -2.0656 -0.4347  0.1796
 4980TIP3   OH236354   2.964   4.907  16.048 -0.0379  0.2963 -0.0577
 4980TIP3    H136355   3.007   4.866  16.123 -2.1379 -0.5192  0.7677
 4980TIP3    H236356   2.961   5.000  16.069 -1.3253 -0.0179  1.3059
 4981TIP3   OH236357   1.619   2.336   1.893 -0.0001  1.5046  0.0350
 4981TIP3    H136358   1.673   2.334   1.815  0.2028  0.9109  0.1850
 4981TIP3    H236359   1.639   2.420   1.934  3.0083  0.1659  1.5939
 4982TIP3   OH236360   1.642   6.249   4.354  0.5262  0.1054 -0.1497
 4982TIP3    H136361   1.691   6.170   4.330 -0.2374 -0.3756 -0.1253
 4982TIP3    H236362   1.710   6.314   4.371  1.1619 -0.5349 -0.1951
 4983TIP3   OH236363   5.358   5.938  14.290 -0.0489  0.2144  0.3103
 4983TIP3    H136364   5.263   5.943  14.289  0.0235  3.2312 -0.1028
 4983TIP3    H236365   5.381   5.936  14.383 -0.5292  2.9387  0.5802
 4984TIP3   OH236366   5.184   5.739  15.864  0.0722  0.5013 -0.1057
 4984TIP3    H136367   5.260   5.770  15.815  0.2501 -0.3062 -0.3537
 4984TIP3    H236368   5.192   5.644  15.863 -0.0885  0.4589  1.2355
 4985TIP3   OH236369   4.464   0.029  11.931  0.4151  0.0767 -0.4197
 4985TIP3    H136370   4.423  -0.047  11.889 -1.0283 -0.2544  1.4576
 4985TIP3    H236371   4.397   0.097  11.927  1.8753  1.4949 -2.5446
 4986TIP3   OH236372   5.128   2.047   3.158  0.3584  0.2514 -0.1509
 4986TIP3    H136373   5.090   2.133   3.176  1.9571  0.7109  1.2488
 4986TIP3    H236374   5.084   1.988   3.219  0.6676  0.4532  0.2681
 4987TIP3   OH236375   6.644   1.420  12.922  0.1985  0.4217  0.4986
 4987TIP3    H136376   6.644   1.447  12.830  0.6276  1.3439  0.7489
 4987TIP3    H236377   6.552   1.425  12.949  0.0140 -0.2728  0.0114
 4988TIP3   OH236378   4.780   4.972   2.590 -0.1794  0.2710  0.3797
 4988TIP3    H136379   4.711   4.963   2.656 -1.5070 -0.0723 -1.0041
 4988TIP3    H236380   4.812   5.061   2.601 -1.6166  0.8231  0.3585
 4989TIP3   OH236381   6.515   2.173  14.574 -0.0941 -0.2138 -0.4262
 4989TIP3    H136382   6.457   2.173  14.498  0.9126 -0.1854 -1.2128
 4989TIP3    H236383   6.602   2.188  14.538  0.5793 -1.4189  0.6029
 4990TIP3   OH236384   6.645   1.297  13.240  0.5856  0.5579 -0.0278
 4990TIP3    H136385   6.598   1.215  13.224  0.9797  0.5886 -1.4842
 4990TIP3    H236386   6.628   1.316  13.332 -1.1194 -0.1516 -0.1431
 4991TIP3   OH236387   2.091   5.358  12.233  1.0523 -0.0943  0.2001
 4991TIP3    H136388   2.018   5.420  12.229  0.0138 -1.2742 -4.0180
 4991TIP3    H236389   2.055   5.282  12.280 -0.1094 -0.1549 -0.7217
 4992TIP3   OH236390   5.224   3.323  14.719  0.3237 -0.4715  0.6083
 4992TIP3    H136391   5.192   3.399  14.767  2.0196  0.6548  0.0271
 4992TIP3    H236392   5.238   3.256  14.786 -3.8809 -1.3805  0.8391
 4993TIP3   OH236393   1.796   4.611  12.342 -0.1550  0.0241 -0.0226
 4993TIP3    H136394   1.861   4.614  12.413  0.1974  1.9345 -0.3519
 4993TIP3    H236395   1.819   4.534  12.291  3.0774  1.5746 -1.1644
 4994TIP3   OH236396   4.873   6.492  14.589 -0.1341 -0.6116  0.3349
 4994TIP3    H136397   4.925   6.569  14.568 -0.6085  0.0432  1.4495
 4994TIP3    H236398   4.791   6.528  14.625  0.0398 -1.6215  1.8219
 4995TIP3   OH236399   0.097   2.096  12.489 -0.1866  0.0012 -0.4313
 4995TIP3    H136400   0.082   2.138  12.573  1.0554 -2.2652  1.0219
 4995TIP3    H236401   0.191   2.105  12.474 -0.0565 -1.3276 -0.5494
 4996TIP3   OH236402   6.758   6.048  13.751  0.1114  0.3255  0.0787
 4996TIP3    H136403   6.831   6.071  13.694  0.4692  0.6422  0.6607
 4996TIP3    H236404   6.713   6.131  13.767 -1.1993 -0.0605 -1.3846
 4997TIP3   OH236405   3.245   0.066  12.247 -0.4553 -0.0691  0.4056
 4997TIP3    H136406   3.247   0.154  12.284  0.0259 -0.2729  0.8694
 4997TIP3    H236407   3.245   0.081  12.152  2.2545  0.4251  0.3944
 4998TIP3   OH236408   6.740   0.410   1.659  0.2708  0.4742  0.0268
 4998TIP3    H136409   6.782   0.495   1.649 -0.6353  1.3645  2.7568
 4998TIP3    H236410   6.680   0.422   1.733 -1.1496 -2.0816 -0.5999
 4999TIP3   OH236411   1.548   0.329  15.064  0.7223  0.3652  0.5965
 4999TIP3    H136412   1.608   0.351  14.992  0.7107 -1.5065 -0.0305
 4999TIP3    H236413   1.467   0.303  15.020  0.7477 -0.8938  1.2817
 5000TIP3   OH236414   2.705   5.268  10.832 -0.1183 -0.0228  0.2469
 5000TIP3    H136415   2.672   5.341  10.780 -1.4303 -1.1322 -0.5471
 5000TIP3    H236416   2.786   5.301  10.871 -0.9750  2.0298  0.4001
 5001TIP3   OH236417   1.633   3.161  16.186  0.1301  0.6618  0.0443
 5001TIP3    H136418   1.720   3.128  16.207 -0.0950  0.1544  0.1813
 5001TIP3    H236419   1.573   3.093  16.217 -0.2762  0.5719 -0.8979
 5002TIP3   OH236420   3.863   6.161   6.313 -0.4453  0.0390 -0.0347
 5002TIP3    H136421   3.930   6.190   6.252  0.6364 -1.2944  0.4617
 5002TIP3    H236422   3.896   6.185   6.400 -1.1882  0.4466  0.1512
 5003TIP3   OH236423   2.710   3.073  16.157  0.3101 -0.5494 -0.8308
 5003TIP3    H136424   2.750   3.158  16.141  1.9002 -1.3742 -1.4809
 5003TIP3    H236425   2.617   3.086  16.141  0.5745  0.9821 -1.2258
 5004TIP3   OH236426   3.738   1.478   6.478 -0.4612 -0.1731 -0.0329
 5004TIP3    H136427   3.817   1.469   6.532  1.0787 -0.3154 -2.1506
 5004TIP3    H236428   3.719   1.388   6.450  0.6671  0.2004 -2.1753
 5005TIP3   OH236429   1.029   4.532  15.648 -0.4237  0.7378 -0.0750
 5005TIP3    H136430   1.023   4.470  15.576  3.6289  0.0605 -0.0750
 5005TIP3    H236431   1.000   4.483  15.725  2.8021 -1.4381 -0.0478
 5006TIP3   OH236432   0.171   2.690  12.261 -0.0370  0.5290 -0.2747
 5006TIP3    H136433   0.085   2.654  12.282  0.3620  0.3612  1.1767
 5006TIP3    H236434   0.221   2.615  12.229 -0.0735  0.3693  0.0354
 5007TIP3   OH236435   4.242   3.733  10.844 -0.1026 -0.1055  0.3710
 5007TIP3    H136436   4.303   3.672  10.803 -1.5266 -1.4426  0.1198
 5007TIP3    H236437   4.164   3.730  10.789 -0.0390  2.4085  0.0546
 5008TIP3   OH236438   4.784   5.709  11.524  0.0087  0.1702  0.0308
 5008TIP3    H136439   4.720   5.778  11.504  1.1198  1.0901 -0.4677
 5008TIP3    H236440   4.827   5.692  11.440 -1.4272 -2.4382 -0.2931
 5009TIP3   OH236441   2.359   0.021  14.947  0.1743 -0.3294  0.4984
 5009TIP3    H136442   2.320  -0.023  15.023  0.1705 -1.2706 -0.0235
 5009TIP3    H236443   2.365   0.113  14.972  0.2984 -0.6471  1.6852
 5010TIP3   OH236444   1.910   6.542   6.023  0.4611  0.8714 -0.1672
 5010TIP3    H136445   1.901   6.536   5.928 -1.2385  1.5653 -0.0833
 5010TIP3    H236446   1.826   6.513   6.057  1.3015 -0.1044  1.1927
 5011TIP3   OH236447   4.885   5.158  13.443  0.1865  0.0920 -0.4980
 5011TIP3    H136448   4.840   5.231  13.400 -1.6542  0.2864  1.5907
 5011TIP3    H236449   4.977   5.169  13.418 -0.4675  1.3796 -2.6036
 5012TIP3   OH236450   0.761   4.749   2.096  0.0764 -0.2322  0.4501
 5012TIP3    H136451   0.692   4.701   2.142 -1.2262  1.4977  0.4184
 5012TIP3    H236452   0.823   4.773   2.164  1.2999 -2.7427  0.3164
 5013TIP3   OH236453   5.351   4.087  14.395 -0.3319  0.1066  0.1550
 5013TIP3    H136454   5.371   4.104  14.303 -0.4358  0.0113  0.1149
 5013TIP3    H236455   5.274   4.139  14.414 -0.8895 -0.6174 -0.0761
 5014TIP3   OH236456   0.993   3.696   5.828  0.0298  0.0969  0.9416
 5014TIP3    H136457   0.929   3.643   5.781  1.4018 -1.3070  0.5476
 5014TIP3    H236458   0.960   3.702   5.917 -0.6334 -0.6220  0.7471
 5015TIP3   OH236459   2.764   1.148  15.097  0.0144  0.6170  0.4239
 5015TIP3    H136460   2.843   1.096  15.081 -1.4460 -1.0228 -1.9903
 5015TIP3    H236461   2.783   1.232  15.055  0.8407  0.6221  0.7823
 5016TIP3   OH236462   1.526   1.844   4.017 -0.5438 -0.1989  0.0065
 5016TIP3    H136463   1.577   1.895   4.080 -0.4269 -0.5981  0.2387
 5016TIP3    H236464   1.475   1.909   3.969 -1.1582  0.0554  0.9770
 5017TIP3   OH236465   1.122   5.420   5.161  0.1800 -0.0526 -0.2730
 5017TIP3    H136466   1.112   5.327   5.141 -0.3218  0.1230 -0.8660
 5017TIP3    H236467   1.213   5.439   5.138  0.9103 -0.8481  1.7707
 5018TIP3   OH236468   1.424   2.361  13.003  0.3601 -0.1443 -0.5340
 5018TIP3    H136469   1.390   2.281  13.042  0.6951 -0.9033 -1.7563
 5018TIP3    H236470   1.441   2.339  12.911  4.5779 -0.0285  0.0089
 5019TIP3   OH236471   1.536   3.696   6.016  0.3910 -0.2248  0.0795
 5019TIP3    H136472   1.445   3.668   6.029 -0.0217 -0.6366 -2.9967
 5019TIP3    H236473   1.529   3.783   5.977  1.1992 -0.8589 -1.5851
 5020TIP3   OH236474   3.415   4.638   3.758 -0.0763  0.3223  0.2035
 5020TIP3    H136475   3.337   4.693   3.764  0.1331  0.7112 -0.5525
 5020TIP3    H236476   3.434   4.632   3.664 -1.9833 -3.7365 -0.1067
 5021TIP3   OH236477   6.267   1.231  15.508 -0.2002  0.6019 -0.0031
 5021TIP3    H136478   6.288   1.139  15.525 -0.4085  0.4671 -0.4415
 5021TIP3    H236479   6.332   1.280  15.557  0.8760  0.2063 -0.9833
 5022TIP3   OH236480   1.002   3.967  14.835  0.6498 -0.2831 -0.2168
 5022TIP3    H136481   0.940   4.017  14.889 -1.2010 -1.1773 -1.4147
 5022TIP3    H236482   1.080   4.023  14.830 -0.0312  0.8821  1.3530
 5023TIP3   OH236483   5.468   0.687   0.861 -0.1697  0.1183  0.4934
 5023TIP3    H136484   5.513   0.771   0.867  0.2592  0.0177 -0.9512
 5023TIP3    H236485   5.392   0.704   0.807 -0.7880 -0.1662  1.2439
 5024TIP3   OH236486   4.467   4.446  11.970 -1.1748 -0.1024  0.0194
 5024TIP3    H136487   4.464   4.383  12.042 -0.8507 -1.1939 -0.8917
 5024TIP3    H236488   4.424   4.401  11.897  0.1063  0.2695 -0.9936
 5025TIP3   OH236489   2.511   1.716   2.691  0.2363 -0.1873  0.2645
 5025TIP3    H136490   2.571   1.644   2.710  1.1285 -0.3713 -2.7670
 5025TIP3    H236491   2.436   1.676   2.649  0.1928  0.5053 -0.3495
 5026TIP3   OH236492   5.025   1.023  12.722  0.0035  0.3629 -0.0545
 5026TIP3    H136493   5.119   1.005  12.713  0.0550  0.9270 -0.7152
 5026TIP3    H236494   5.002   0.985  12.806  0.9056  0.5288  0.2847
 5027TIP3   OH236495   2.613   2.099   4.634 -0.2495  0.4376 -0.3228
 5027TIP3    H136496   2.585   2.025   4.581 -0.6565  1.2727 -1.3098
 5027TIP3    H236497   2.532   2.147   4.653  0.0518  0.8525 -0.0539
 5028TIP3   OH236498   2.202   0.479  11.233  0.4128  0.0344 -0.0252
 5028TIP3    H136499   2.121   0.480  11.183 -0.0679 -1.8562  0.6521
 5028TIP3    H236500   2.190   0.547  11.300 -1.1208 -1.0145  0.8063
 5029TIP3   OH236501   4.895   2.913   6.543 -0.1875  0.2136 -0.1043
 5029TIP3    H136502   4.900   2.818   6.531  2.3593  0.1761  0.5211
 5029TIP3    H236503   4.940   2.928   6.627 -2.3024  1.8408  0.8132
 5030TIP3   OH236504   6.658   2.014  13.020 -0.2553 -0.4230  0.6154
 5030TIP3    H136505   6.627   2.104  13.023  1.1282  0.0669  0.8641
 5030TIP3    H236506   6.633   1.977  13.105 -0.2240 -0.0740  0.7770
 5031TIP3   OH236507   6.028   6.120   2.775  0.4280 -0.2020 -0.1972
 5031TIP3    H136508   6.004   6.029   2.755  1.2187 -0.3170 -0.6792
 5031TIP3    H236509   5.945   6.167   2.776  0.0632 -0.8173 -0.5418
 5032TIP3   OH236510   3.400   4.899   4.860 -0.5626  0.0855 -0.2323
 5032TIP3    H136511   3.367   4.919   4.773 -0.3396  1.5481  0.0011
 5032TIP3    H236512   3.492   4.925   4.858 -0.3466 -0.6026  0.2138
 5033TIP3   OH236513   0.138   3.957  14.183  0.3864 -0.0771  0.5983
 5033TIP3    H136514   0.144   4.040  14.137 -2.6536  0.2611  0.6394
 5033TIP3    H236515   0.083   3.902  14.128  2.5257 -2.2590  0.4345
 5034TIP3   OH236516   4.863   3.467  15.087 -0.0643 -0.4332  0.9432
 5034TIP3    H136517   4.824   3.396  15.138 -0.3834 -1.3709 -0.5451
 5034TIP3    H236518   4.947   3.433  15.059 -0.1171 -0.1314  0.4103
 5035TIP3   OH236519   2.177   3.455  12.487  0.0520 -0.1723  0.1880
 5035TIP3    H136520   2.104   3.482  12.543  0.1609  0.1406  0.1824
 5035TIP3    H236521   2.255   3.488  12.533  0.0230  2.2994 -1.3399
 5036TIP3   OH236522   0.790   0.332   3.638  0.0337 -0.4021  0.4531
 5036TIP3    H136523   0.756   0.401   3.695 -1.2619 -0.5688 -0.0886
 5036TIP3    H236524   0.879   0.317   3.670 -0.7246 -0.6943  2.6389
 5037TIP3   OH236525   2.536   0.682   2.620  0.2804  0.4338 -0.1693
 5037TIP3    H136526   2.460   0.629   2.643  1.2659 -0.4033  1.3182
 5037TIP3    H236527   2.562   0.651   2.533 -0.6701  0.2894 -0.4169
 5038TIP3   OH236528   5.430   0.633  11.981  0.0542 -0.0731 -0.6121
 5038TIP3    H136529   5.406   0.549  12.021  1.9395 -0.2414  0.2614
 5038TIP3    H236530   5.495   0.611  11.914  1.2282  0.7248  0.2210
 5039TIP3   OH236531   5.167   3.597  13.389 -0.3618  0.2868  0.0409
 5039TIP3    H136532   5.250   3.567  13.426 -0.7354 -0.4717  0.2889
 5039TIP3    H236533   5.106   3.596  13.463 -0.6247  0.6897 -0.1701
 5040TIP3   OH236534   1.840   5.975   4.756  0.1976 -0.0723  0.2194
 5040TIP3    H136535   1.790   6.057   4.750 -1.2897 -0.7546  2.0577
 5040TIP3    H236536   1.902   5.990   4.827 -1.1602 -0.9840  1.6728
 5041TIP3   OH236537   0.951   1.253  10.865  0.1297 -0.5603  0.2001
 5041TIP3    H136538   1.009   1.177  10.856  1.5815  0.5425 -0.2125
 5041TIP3    H236539   0.867   1.224  10.830  0.3155 -2.3084  1.0970
 5042TIP3   OH236540   2.625   4.200  12.987  0.2098  0.3644 -0.7852
 5042TIP3    H136541   2.649   4.228  12.899 -0.5820  0.3037 -1.0248
 5042TIP3    H236542   2.579   4.275  13.025  0.8015  0.4996 -0.3100
 5043TIP3   OH236543   2.190   3.453  15.493 -0.4164 -0.0135  0.1258
 5043TIP3    H136544   2.280   3.444  15.461 -0.1254 -1.0207  1.1652
 5043TIP3    H236545   2.137   3.408  15.427 -0.0871  0.0006 -0.1521
 5044TIP3   OH236546   5.036   1.391  15.947  0.6305 -0.4583 -0.3043
 5044TIP3    H136547   5.099   1.324  15.920  0.8931  0.1307 -1.1998
 5044TIP3    H236548   5.083   1.445  16.010  0.8856 -0.2778 -0.6475
 5045TIP3   OH236549   5.459   0.932  13.750  0.3286 -0.0368  0.7967
 5045TIP3    H136550   5.378   0.975  13.777  0.7522  0.1416  1.8090
 5045TIP3    H236551   5.519   0.944  13.823  1.2675 -0.2019  0.0789
 5046TIP3   OH236552   6.300   0.229   0.715 -0.3766  0.4286  0.1287
 5046TIP3    H136553   6.219   0.197   0.677  0.5472 -0.6073 -1.0515
 5046TIP3    H236554   6.322   0.164   0.783  0.0439  0.0725 -0.3401
 5047TIP3   OH236555   2.785   4.623  12.690  0.3513 -0.0663  0.4690
 5047TIP3    H136556   2.707   4.659  12.732  1.7335  2.5841  0.9552
 5047TIP3    H236557   2.843   4.599  12.762  1.9553  2.7110  0.2465
 5048TIP3   OH236558   1.360   0.472  16.795 -0.2021  0.1995 -0.1642
 5048TIP3    H136559   1.452   0.496  16.801  0.0420 -0.5898 -0.5879
 5048TIP3    H236560   1.328   0.476  16.885 -0.3856  2.7759 -0.2685
 5049TIP3   OH236561   0.241   3.546  14.925  0.1919 -0.2086 -0.3760
 5049TIP3    H136562   0.206   3.457  14.929  0.2556 -0.1992  1.3442
 5049TIP3    H236563   0.163   3.601  14.917 -0.0846 -0.3135  1.1625
 5050TIP3   OH236564   1.362   4.684  14.155  0.4658  0.2218 -0.2672
 5050TIP3    H136565   1.350   4.770  14.116 -0.3024  0.1572 -0.1872
 5050TIP3    H236566   1.303   4.683  14.230  1.7947  0.2776  0.8146
 5051TIP3   OH236567   3.113   0.575  13.920  0.1006 -0.1394  1.0165
 5051TIP3    H136568   3.209   0.573  13.922  0.1403  1.1046  1.8769
 5051TIP3    H236569   3.090   0.555  13.829  1.2263  0.6699  0.5295
 5052TIP3   OH236570   3.515   5.868  16.491  0.5141  0.6257 -0.1002
 5052TIP3    H136571   3.463   5.922  16.432  0.1391  1.6235  1.0890
 5052TIP3    H236572   3.476   5.882  16.577  1.7570  0.1295  0.5735
 5053TIP3   OH236573   2.646   0.990   2.219  0.5658 -0.6943 -0.1844
 5053TIP3    H136574   2.657   0.981   2.314  0.2406  0.1468 -0.0538
 5053TIP3    H236575   2.612   1.079   2.208  2.4463 -0.0655 -1.2495
 5054TIP3   OH236576   2.022   6.627   4.433  0.3591 -0.6483  0.4776
 5054TIP3    H136577   2.013   6.690   4.505 -1.1319 -1.3100  0.9059
 5054TIP3    H236578   1.995   6.675   4.355 -1.1278 -0.8243  0.8577
 5055TIP3   OH236579   4.331   2.893   4.318  0.7096 -0.7027  0.6153
 5055TIP3    H136580   4.413   2.927   4.282  0.7586 -0.6081  0.8176
 5055TIP3    H236581   4.282   2.864   4.241  0.1727  0.8829  0.3173
 5056TIP3   OH236582   2.001   2.349   3.952 -0.4413  0.1935  0.0970
 5056TIP3    H136583   1.964   2.392   4.029 -3.5234 -0.7465 -0.7119
 5056TIP3    H236584   2.087   2.318   3.980 -1.3179  0.1667  3.0394
 5057TIP3   OH236585   1.178   0.310  14.297  0.3609  0.0684  0.6691
 5057TIP3    H136586   1.208   0.313  14.388  3.2403 -0.4157 -0.1474
 5057TIP3    H236587   1.190   0.399  14.265 -2.3811  0.6993  1.1628
 5058TIP3   OH236588   6.034   5.240   3.192  0.0737 -0.3457  0.5005
 5058TIP3    H136589   5.969   5.243   3.261  1.5295 -1.3008  1.9919
 5058TIP3    H236590   6.037   5.148   3.165 -0.6049  0.0478 -0.9820
 5059TIP3   OH236591   0.702   3.804  10.939  0.0210  0.5022 -0.2102
 5059TIP3    H136592   0.715   3.774  11.029  0.1924  0.3187 -0.2941
 5059TIP3    H236593   0.607   3.810  10.929 -0.0193 -0.0955 -0.2133
 5060TIP3   OH236594   1.170   1.726  12.753 -0.1644 -0.4853 -0.4768
 5060TIP3    H136595   1.262   1.704  12.737  0.0489  0.7326 -1.0595
 5060TIP3    H236596   1.134   1.742  12.666 -0.5684  0.3743 -0.1633
 5061TIP3   OH236597   0.854   3.046   2.334  0.1314 -0.4206  0.4616
 5061TIP3    H136598   0.771   3.011   2.302  0.3058  0.2153 -0.7035
 5061TIP3    H236599   0.837   3.066   2.426 -2.0445  2.7698 -0.4756
 5062TIP3   OH236600   5.347   1.272   1.576 -0.0580 -0.6187  0.7948
 5062TIP3    H136601   5.378   1.280   1.486  0.9490 -3.6320  0.7919
 5062TIP3    H236602   5.260   1.312   1.575  0.8181  1.4430 -0.9227
 5063TIP3   OH236603   5.285   0.544   5.281 -0.7189  0.0181  0.0960
 5063TIP3    H136604   5.373   0.581   5.270 -1.5826  1.5249 -2.7039
 5063TIP3    H236605   5.300   0.450   5.292  1.2666 -0.1370 -2.6867
 5064TIP3   OH236606   6.244   2.647  12.553 -0.2867 -0.5123 -0.0464
 5064TIP3    H136607   6.271   2.727  12.508 -2.6716  0.2902 -0.2112
 5064TIP3    H236608   6.254   2.578  12.488 -0.0850 -0.0033 -0.5626
 5065TIP3   OH236609   0.865   6.656   0.814 -0.3417 -0.3875 -0.0156
 5065TIP3    H136610   0.905   6.738   0.787 -2.0718  0.0833 -1.4000
 5065TIP3    H236611   0.938   6.594   0.821  0.7600  0.7436 -1.0756
 5066TIP3   OH236612   2.028   1.294   2.718  0.3615  0.3705  0.3075
 5066TIP3    H136613   2.070   1.208   2.722  0.6606  0.5246  0.5291
 5066TIP3    H236614   2.059   1.340   2.796  0.1425  0.6508  0.2315
 5067TIP3   OH236615   4.684   5.611  11.140 -0.4891  0.6411  0.4070
 5067TIP3    H136616   4.617   5.550  11.169 -0.0416 -0.0747 -0.0134
 5067TIP3    H236617   4.765   5.579  11.181  0.0436 -0.0377 -1.0678
 5068TIP3   OH236618   5.071   0.773   3.955  0.5254 -0.0294  0.2157
 5068TIP3    H136619   5.053   0.785   3.862 -0.2344  1.3118  0.4956
 5068TIP3    H236620   5.007   0.707   3.984  0.7926 -0.4813 -0.2164
 5069TIP3   OH236621   5.316   0.461  16.042  0.2929  0.3094 -0.0272
 5069TIP3    H136622   5.273   0.421  16.117 -1.2193 -2.7981 -2.3188
 5069TIP3    H236623   5.388   0.401  16.021  1.3282  1.6670 -0.5054
 5070TIP3   OH236624   4.905   3.742   2.849 -0.0433 -0.2354  0.8342
 5070TIP3    H136625   4.927   3.832   2.824 -1.3149 -0.1032  0.1056
 5070TIP3    H236626   4.872   3.750   2.938 -2.4927  0.4522 -0.0487
 5071TIP3   OH236627   2.323   6.589  13.177 -0.2900 -0.0138  0.2273
 5071TIP3    H136628   2.361   6.671  13.211 -1.5827  1.5146 -1.8215
 5071TIP3    H236629   2.238   6.583  13.220 -0.5329  0.1414 -0.2346
 5072TIP3   OH236630   6.365   3.076  13.646  0.1307  0.1670 -0.1415
 5072TIP3    H136631   6.432   3.031  13.593  0.0294 -0.3364  0.1552
 5072TIP3    H236632   6.340   3.012  13.713 -0.7752  0.2817 -0.3532
 5073TIP3   OH236633   6.373   3.084  11.252  0.3807 -0.0112 -0.2340
 5073TIP3    H136634   6.285   3.048  11.253  0.3933 -0.4695  4.0997
 5073TIP3    H236635   6.424   3.025  11.197 -0.8947 -3.2302  1.7854
 5074TIP3   OH236636   6.115   1.776   6.536  0.0636 -0.3381 -0.1094
 5074TIP3    H136637   6.178   1.756   6.606 -1.2044 -2.4003  0.5144
 5074TIP3    H236638   6.048   1.829   6.580 -0.4446 -1.1584  0.1148
 5075TIP3   OH236639   5.651   0.631  10.972  0.5018 -0.1324 -0.7693
 5075TIP3    H136640   5.712   0.683  11.024  0.3428  0.5136 -1.2178
 5075TIP3    H236641   5.648   0.546  11.016 -0.6986  0.8138  1.1075
 5076TIP3   OH236642   1.459   3.141   2.968 -0.6309 -0.4339  0.1733
 5076TIP3    H136643   1.397   3.151   2.895  0.5385 -2.3563 -1.1959
 5076TIP3    H236644   1.414   3.085   3.031 -0.8356 -0.5966 -0.1167
 5077TIP3   OH236645   2.794   4.301  16.920  0.3073  0.0886  0.1465
 5077TIP3    H136646   2.833   4.306  17.007  0.6440 -0.2372  0.0135
 5077TIP3    H236647   2.801   4.390  16.886  0.2917  0.1884  0.3987
 5078TIP3   OH236648   3.394   0.356   5.688 -0.4668  0.1565 -0.2512
 5078TIP3    H136649   3.319   0.339   5.631  1.1821  0.1300 -2.5319
 5078TIP3    H236650   3.425   0.270   5.713 -0.7692  0.1593  0.1536
 5079TIP3   OH236651   3.656   6.433  11.169  0.5904 -0.9233 -0.1895
 5079TIP3    H136652   3.583   6.374  11.152  0.7692 -0.9941 -0.7315
 5079TIP3    H236653   3.668   6.480  11.086  0.8689 -0.5955  0.0360
 5080TIP3   OH236654   2.027   5.278  16.213  0.7794 -0.6693  0.1138
 5080TIP3    H136655   2.115   5.316  16.213  0.6936 -0.4520 -0.8501
 5080TIP3    H236656   2.040   5.186  16.189  0.9045 -1.0821  1.6617
 5081TIP3   OH236657   3.471   6.662  15.440 -0.1706  0.3157  0.2592
 5081TIP3    H136658   3.387   6.680  15.481  0.0402  0.7145  0.5205
 5081TIP3    H236659   3.530   6.728  15.476  0.1925  0.2000 -0.1180
 5082TIP3   OH236660   1.365   1.197   5.536  0.1550 -0.0324  0.5089
 5082TIP3    H136661   1.381   1.124   5.596 -1.9080  0.5373  1.8674
 5082TIP3    H236662   1.394   1.274   5.586 -1.1693  0.4031  0.6402
 5083TIP3   OH236663   1.152   2.613  14.677 -0.1607  0.1890 -0.0167
 5083TIP3    H136664   1.211   2.590  14.605 -1.1597 -0.4433 -0.6539
 5083TIP3    H236665   1.113   2.696  14.650  0.1114  0.3960  0.2137
 5084TIP3   OH236666   6.723   4.675  14.913 -0.1240 -0.3614 -0.1406
 5084TIP3    H136667   6.817   4.664  14.928 -0.0141  2.2755  2.0936
 5084TIP3    H236668   6.682   4.650  14.996 -1.0256  1.5021  0.0344
 5085TIP3   OH236669   0.626   6.463  15.380  0.1655 -0.2692  0.8349
 5085TIP3    H136670   0.555   6.488  15.439  0.0970  0.5672  0.4098
 5085TIP3    H236671   0.693   6.531  15.393  0.4619 -0.4914  0.4939
 5086TIP3   OH236672   1.531   0.988   0.698  0.0556 -0.2225 -0.6618
 5086TIP3    H136673   1.597   1.058   0.695  0.8360 -0.9272 -0.4018
 5086TIP3    H236674   1.546   0.946   0.782  1.5768 -2.5539 -1.9867
 5087TIP3   OH236675   3.620   4.321   2.191 -0.0617  0.2240 -0.0294
 5087TIP3    H136676   3.546   4.331   2.251 -0.5077 -2.0672 -0.1306
 5087TIP3    H236677   3.590   4.257   2.127  1.5507  0.2637 -0.8624
 5088TIP3   OH236678   3.367   6.629  11.979  0.0629 -0.2362 -0.1325
 5088TIP3    H136679   3.347   6.550  12.029  0.5393  0.3905  1.0976
 5088TIP3    H236680   3.461   6.625  11.964  0.5050  1.0641  1.7937
 5089TIP3   OH236681   5.776   0.566  16.691 -0.5108 -0.1807 -0.6608
 5089TIP3    H136682   5.704   0.535  16.745  0.5836  0.5059  1.3001
 5089TIP3    H236683   5.736   0.625  16.628 -1.4535  2.2559  2.0162
 5090TIP3   OH236684   2.866   5.953  15.644  0.4851  0.2471  0.3192
 5090TIP3    H136685   2.877   5.858  15.642 -1.0256 -0.0189  2.1125
 5090TIP3    H236686   2.934   5.985  15.702  0.8355  0.2483 -0.0859
 5091TIP3   OH236687   3.130   3.418   3.978  0.4439 -0.1355  0.2161
 5091TIP3    H136688   3.180   3.389   4.055  1.4423 -0.3371 -0.4933
 5091TIP3    H236689   3.143   3.513   3.975 -1.3499  0.1966  1.5007
 5092TIP3   OH236690   6.528   1.905  12.207 -0.9718  0.4104  0.0695
 5092TIP3    H136691   6.617   1.876  12.185 -1.3518  1.3915 -3.3259
 5092TIP3    H236692   6.540   1.988  12.252 -0.1024  1.3031 -1.7037
 5093TIP3   OH236693   4.237   6.668  14.003 -0.2383  0.1022  0.2534
 5093TIP3    H136694   4.143   6.685  14.003 -0.1854  0.4732 -0.6349
 5093TIP3    H236695   4.257   6.644  13.912  0.7181  1.2454  0.1298
 5094TIP3   OH236696   4.884   2.507   2.703 -0.4793 -0.6683  0.5173
 5094TIP3    H136697   4.911   2.597   2.719  2.6905 -0.9430 -2.1904
 5094TIP3    H236698   4.944   2.454   2.755  0.9144 -1.2027 -1.4933
 5095TIP3   OH236699   4.333   3.247   3.216  0.5582  0.4267 -0.2911
 5095TIP3    H136700   4.318   3.202   3.299  2.3274  1.2309  0.5197
 5095TIP3    H236701   4.245   3.266   3.183 -0.2560 -2.8642 -0.3170
 5096TIP3   OH236702   4.221   2.052   1.566 -0.0619 -0.2248 -0.0381
 5096TIP3    H136703   4.166   2.119   1.524  1.1059  0.6550 -0.2221
 5096TIP3    H236704   4.253   1.999   1.493 -0.4198 -0.5527  0.0410
 5097TIP3   OH236705   2.818   1.923   4.327  0.1011  0.5753  0.3034
 5097TIP3    H136706   2.754   1.971   4.274  0.0810  2.0212  1.5717
 5097TIP3    H236707   2.900   1.972   4.317  0.7200 -0.5427 -0.3039
 5098TIP3   OH236708   0.813   5.321  16.565 -0.2023 -0.7043  0.3171
 5098TIP3    H136709   0.873   5.249  16.548  0.5303  0.1249 -0.7529
 5098TIP3    H236710   0.851   5.366  16.641  1.0304  0.2795 -0.8277
 5099TIP3   OH236711   3.062   6.192  14.452  0.0809  0.4670  0.1566
 5099TIP3    H136712   2.977   6.212  14.412 -2.0878 -2.8098  2.6199
 5099TIP3    H236713   3.067   6.250  14.528 -0.4992 -0.0996  0.6309
 5100TIP3   OH236714   4.793   0.576   0.990 -0.0895  0.4698 -0.5520
 5100TIP3    H136715   4.731   0.503   0.983  0.6398 -0.2013 -0.2459
 5100TIP3    H236716   4.834   0.581   0.903  0.9915 -0.5581 -0.1478
 5101TIP3   OH236717   0.392   1.729   5.822  0.2129  0.7109 -0.2288
 5101TIP3    H136718   0.334   1.788   5.870 -1.9138 -0.7648 -0.8417
 5101TIP3    H236719   0.392   1.763   5.732  1.2168  1.3223 -0.0179
 5102TIP3   OH236720   2.929   4.056  15.378  0.2727 -0.3577 -0.0477
 5102TIP3    H136721   2.977   4.018  15.304 -0.2436 -1.5485  0.2100
 5102TIP3    H236722   2.958   4.007  15.454 -1.0760 -0.8876  0.1619
 5103TIP3   OH236723   1.486   0.610  15.156  0.2416  0.0757 -0.4730
 5103TIP3    H136724   1.505   0.667  15.230 -1.4077  1.2039 -0.8724
 5103TIP3    H236725   1.568   0.607  15.106  0.7585  0.9438  0.3005
 5104TIP3   OH236726   3.188   2.879   2.742  0.1427 -0.3498  0.4181
 5104TIP3    H136727   3.167   2.942   2.811  0.0997 -0.2862  0.3481
 5104TIP3    H236728   3.117   2.815   2.745  0.2934 -0.5083  0.6237
 5105TIP3   OH236729   1.519   1.057   3.004  0.2798  0.2078  0.2501
 5105TIP3    H136730   1.451   1.001   2.967 -3.4227  3.5210  1.3725
 5105TIP3    H236731   1.558   1.100   2.929  0.5116 -1.0118 -0.3587
 5106TIP3   OH236732   4.207   4.650  10.973 -0.1863 -0.1670  0.3659
 5106TIP3    H136733   4.240   4.675  11.060  0.3778 -0.0907  0.1351
 5106TIP3    H236734   4.192   4.556  10.979 -1.7515  0.0984  1.0604
 5107TIP3   OH236735   2.993   4.711   4.689 -0.0573  0.1357  0.1334
 5107TIP3    H136736   2.967   4.619   4.688  0.0048  0.0962  1.2325
 5107TIP3    H236737   2.932   4.754   4.629 -1.4484 -0.2719  1.1981
 5108TIP3   OH236738   2.740   5.724  11.512 -0.0071 -0.0520 -0.3115
 5108TIP3    H136739   2.822   5.771  11.528  0.0216 -0.3576  0.4737
 5108TIP3    H236740   2.759   5.633  11.535 -0.5571 -0.1325 -0.1504
 5109TIP3   OH236741   0.556   0.302   5.395 -0.6505 -0.5872  0.0516
 5109TIP3    H136742   0.628   0.363   5.405 -1.8885  0.6177  2.4345
 5109TIP3    H236743   0.578   0.227   5.451  0.3020 -1.9018 -1.9408
 5110TIP3   OH236744   4.808   2.800   2.228 -0.5881  0.0515 -0.2495
 5110TIP3    H136745   4.851   2.793   2.314  0.2057 -2.5926 -0.7842
 5110TIP3    H236746   4.715   2.812   2.248 -0.0819  2.7527  0.9231
 5111TIP3   OH236747   5.688   0.713   2.701 -0.5191  0.0215 -0.0880
 5111TIP3    H136748   5.704   0.621   2.720  0.6483  0.0747 -0.7278
 5111TIP3    H236749   5.724   0.760   2.776  1.2301  0.0629 -0.8939
 5112TIP3   OH236750   2.667   4.982  12.887  0.4398 -0.2381 -0.3249
 5112TIP3    H136751   2.579   4.952  12.865 -0.1673 -0.2187  1.8344
 5112TIP3    H236752   2.723   4.946  12.819 -0.7614 -3.2213  0.1066
 5113TIP3   OH236753   3.317   4.772   1.290 -0.7368  0.4820 -0.3926
 5113TIP3    H136754   3.284   4.716   1.360 -0.9571 -0.2436 -1.0629
 5113TIP3    H236755   3.249   4.771   1.223 -0.1360  0.4053 -1.0230
 5114TIP3   OH236756   3.494   2.590  16.685 -0.3243 -0.0315  0.2049
 5114TIP3    H136757   3.582   2.627  16.692 -0.1740 -0.4641  0.6447
 5114TIP3    H236758   3.453   2.611  16.769 -0.2417 -0.8563  0.4510
 5115TIP3   OH236759   4.162   5.034   6.309 -0.1221  0.6003 -0.1003
 5115TIP3    H136760   4.156   4.947   6.271  0.0692  1.4761 -2.2838
 5115TIP3    H236761   4.245   5.035   6.355 -0.9237 -0.8986  1.4761
 5116TIP3   OH236762   0.517   0.550  14.089  0.4600 -0.2616  0.5633
 5116TIP3    H136763   0.495   0.614  14.022 -1.1164 -0.2612  1.0328
 5116TIP3    H236764   0.518   0.600  14.171  1.8653 -0.3561  0.6313
 5117TIP3   OH236765   6.756   6.665   5.508 -0.3695  0.3938  0.0646
 5117TIP3    H136766   6.815   6.698   5.440 -0.0571 -0.8958 -0.3212
 5117TIP3    H236767   6.683   6.627   5.459 -0.5269  0.1736  0.4720
 5118TIP3   OH236768   2.886   6.170  11.431  0.2417 -0.0630 -0.2799
 5118TIP3    H136769   2.825   6.243  11.418 -0.7058 -0.5569  1.1675
 5118TIP3    H236770   2.856   6.103  11.370  1.1030  0.7047 -1.6028
 5119TIP3   OH236771   5.816   6.367  13.495  0.1820  0.5946  0.2396
 5119TIP3    H136772   5.869   6.394  13.570  1.1184  0.8083 -0.4810
 5119TIP3    H236773   5.813   6.272  13.501  0.0981  0.6217  0.6455
 5120TIP3   OH236774   2.394   2.454   1.335 -0.0174 -0.0233 -0.1086
 5120TIP3    H136775   2.320   2.398   1.358  0.1574 -0.9398 -1.6901
 5120TIP3    H236776   2.361   2.511   1.265  0.3808  0.5153  0.1336
 5121TIP3   OH236777   1.492   1.723   4.834  0.9469 -0.2402  0.2063
 5121TIP3    H136778   1.525   1.778   4.905  0.2641  0.8590 -0.3023
 5121TIP3    H236779   1.558   1.729   4.765  1.0970 -0.4376  0.3331
 5122TIP3   OH236780   4.123   3.423   4.730  0.0414 -0.0131 -0.1564
 5122TIP3    H136781   4.196   3.362   4.712  0.7011  0.5553  0.5212
 5122TIP3    H236782   4.131   3.442   4.824 -1.6085 -0.7273  0.1680
 5123TIP3   OH236783   3.308   5.805  12.347 -0.4432  0.6725  0.1605
 5123TIP3    H136784   3.395   5.778  12.377 -0.6107 -0.0021  0.0551
 5123TIP3    H236785   3.322   5.829  12.255 -0.6494 -0.9587 -0.3299
 5124TIP3   OH236786   2.706   3.252   0.812  0.9597  0.2408 -0.1683
 5124TIP3    H136787   2.614   3.255   0.837  0.8956  0.8357 -0.4752
 5124TIP3    H236788   2.731   3.160   0.824  0.2235 -0.0026 -0.4502
 5125TIP3   OH236789   5.673   2.497   4.637  0.0878  0.7533  0.2796
 5125TIP3    H136790   5.589   2.458   4.612  1.9622 -2.7994 -1.2350
 5125TIP3    H236791   5.702   2.446   4.712  0.8550  2.0885  0.9365
 5126TIP3   OH236792   0.997   0.030  11.433  0.0635  0.5516  0.3851
 5126TIP3    H136793   0.962  -0.026  11.363  1.3344  0.8290 -0.5116
 5126TIP3    H236794   1.019   0.112  11.389  3.0568 -0.0504  0.5849
 5127TIP3   OH236795   4.357   3.200  11.128  0.4210  0.0885 -0.1999
 5127TIP3    H136796   4.378   3.277  11.181  1.4941 -0.5745  0.3748
 5127TIP3    H236797   4.408   3.211  11.047 -1.2974  1.1528 -1.2079
 5128TIP3   OH236798   3.187   1.445  11.932 -0.1223  0.3757  0.0139
 5128TIP3    H136799   3.220   1.431  12.021 -0.0557  0.2353 -0.0319
 5128TIP3    H236800   3.253   1.500  11.891  0.6504 -0.8348 -0.4345
 5129TIP3   OH236801   2.415   3.917   3.037 -0.2154  0.3915 -0.1996
 5129TIP3    H136802   2.460   4.001   3.027  0.7685 -0.1879 -0.9355
 5129TIP3    H236803   2.387   3.895   2.949 -0.4897 -0.0375 -0.0044
 5130TIP3   OH236804   2.881   5.590  12.313 -0.7080  0.6351 -0.2055
 5130TIP3    H136805   2.906   5.518  12.254 -2.4005 -0.6257  0.5142
 5130TIP3    H236806   2.919   5.565  12.398  0.4263  1.6755 -0.3717
 5131TIP3   OH236807   2.262   4.597  11.101 -0.3368 -0.0951  0.3172
 5131TIP3    H136808   2.308   4.606  11.017  0.7745  0.2610  0.9376
 5131TIP3    H236809   2.205   4.521  11.089  0.0558 -0.2563 -0.6492
 5132TIP3   OH236810   6.630   2.790   1.402 -0.0463  0.0974 -0.3573
 5132TIP3    H136811   6.597   2.852   1.467  0.0314 -0.2879  0.0507
 5132TIP3    H236812   6.602   2.827   1.318 -0.4310  0.4239 -0.0897
 5133TIP3   OH236813   0.333   3.312  11.995 -0.4251 -0.1943 -0.0203
 5133TIP3    H136814   0.427   3.298  12.001  0.0487  2.8796  1.7879
 5133TIP3    H236815   0.322   3.378  11.926 -1.2943 -0.6146 -0.3064
 5134TIP3   OH236816   5.460   4.930  10.630 -0.4476  0.2349 -0.1044
 5134TIP3    H136817   5.376   4.968  10.654 -1.2312 -1.4273 -0.1024
 5134TIP3    H236818   5.443   4.836  10.623  1.3847 -0.1243 -0.2121
 5135TIP3   OH236819   1.268   5.038   5.753 -0.4963  0.4077 -0.2501
 5135TIP3    H136820   1.246   4.954   5.710  0.6142  0.1100 -0.2639
 5135TIP3    H236821   1.311   5.012   5.834  1.2555  0.9287 -0.9703
 5136TIP3   OH236822   4.647   3.493   2.017  0.2692 -0.5954 -0.0307
 5136TIP3    H136823   4.739   3.492   2.042  0.6797  1.4211 -1.2370
 5136TIP3    H236824   4.611   3.569   2.063 -0.4046 -0.4437 -0.7914
 5137TIP3   OH236825   4.087   0.548   4.780 -0.2587 -0.0522 -0.0799
 5137TIP3    H136826   4.032   0.541   4.859 -0.8693  0.3060 -0.4655
 5137TIP3    H236827   4.118   0.638   4.781 -0.9939  0.2119 -0.7210
 5138TIP3   OH236828   2.068   1.020   4.398 -0.2834  0.1918  0.1528
 5138TIP3    H136829   2.072   1.115   4.413  2.5985  0.2634 -0.5701
 5138TIP3    H236830   1.978   1.005   4.369 -1.4213  2.3681  2.1345
 5139TIP3   OH236831   6.194   1.749  12.565 -0.4683 -0.2010  0.3075
 5139TIP3    H136832   6.204   1.773  12.657 -0.3829  1.0320 -0.0065
 5139TIP3    H236833   6.099   1.742  12.552 -0.7508  3.2587 -0.3402
 5140TIP3   OH236834   5.494   5.395  13.753 -0.4486  0.1990  0.3095
 5140TIP3    H136835   5.508   5.417  13.845 -1.1217  0.8596  0.2616
 5140TIP3    H236836   5.579   5.360  13.723  0.0800  0.9535  0.9042
 5141TIP3   OH236837   6.565   6.615  15.499  0.6702 -0.0999 -0.1978
 5141TIP3    H136838   6.645   6.637  15.452  0.0894 -0.1272 -1.2369
 5141TIP3    H236839   6.584   6.635  15.591  1.9047 -0.2484 -0.4132
 5142TIP3   OH236840   4.443   4.320   4.167 -0.1774  0.0422  0.2434
 5142TIP3    H136841   4.353   4.347   4.148 -1.2568 -2.1128  1.8821
 5142TIP3    H236842   4.496   4.398   4.149 -2.5571  1.9251  0.9130
 5143TIP3   OH236843   2.859   0.714  10.769  0.4491 -0.0680 -0.0290
 5143TIP3    H136844   2.806   0.700  10.848  0.3972 -0.3849 -0.1162
 5143TIP3    H236845   2.868   0.626  10.731  1.6834 -0.1475  0.3923
 5144TIP3   OH236846   4.455   5.255  13.954 -0.4320 -0.3738 -0.6455
 5144TIP3    H136847   4.522   5.305  14.001 -0.6623 -0.8519  0.2177
 5144TIP3    H236848   4.500   5.177  13.922 -0.9314 -1.6578  1.5706
 5145TIP3   OH236849   6.712   4.815   2.412  0.4236  0.0809  0.1511
 5145TIP3    H136850   6.717   4.874   2.337 -0.8994 -0.3704 -0.3193
 5145TIP3    H236851   6.689   4.730   2.374 -1.7463  0.1533  1.1778
 5146TIP3   OH236852   5.609   0.509  11.830  0.6896  0.3718  0.3150
 5146TIP3    H136853   5.605   0.522  11.735 -0.0264  0.0536  0.2990
 5146TIP3    H236854   5.699   0.480  11.846  1.5372  2.6102  0.0280
 5147TIP3   OH236855   3.461   0.926  10.788 -0.4928  0.3825  0.8436
 5147TIP3    H136856   3.545   0.964  10.815 -1.1541  1.1004  1.9813
 5147TIP3    H236857   3.411   1.000  10.755 -1.1109  0.1728  1.3032
 5148TIP3   OH236858   0.330   2.935  15.872  0.1759 -0.1899  0.0475
 5148TIP3    H136859   0.245   2.891  15.881  0.5513 -0.6387  1.7490
 5148TIP3    H236860   0.383   2.901  15.944  1.1035  1.6321  0.3007
 5149TIP3   OH236861   5.670   4.102   5.307  0.0676  0.4536 -0.1223
 5149TIP3    H136862   5.690   4.187   5.270  2.1239  0.0351 -0.1172
 5149TIP3    H236863   5.577   4.105   5.328 -0.1810  2.2017 -1.3440
 5150TIP3   OH236864   2.295   6.406  12.476  0.4338  0.8351 -0.0959
 5150TIP3    H136865   2.261   6.326  12.517 -1.6142  2.1895  1.0046
 5150TIP3    H236866   2.390   6.399  12.485  0.2781 -1.1540  0.5341
 5151TIP3   OH236867   1.297   3.814  13.208 -0.0515 -0.0984 -0.7792
 5151TIP3    H136868   1.291   3.908  13.224 -2.0450 -0.1468 -0.9341
 5151TIP3    H236869   1.227   3.796  13.146 -0.5278 -1.8783  0.1927
 5152TIP3   OH236870   2.996   4.686   2.517  0.1202  0.3266 -0.0466
 5152TIP3    H136871   2.941   4.751   2.561 -0.1787  0.3459 -0.4491
 5152TIP3    H236872   2.987   4.607   2.570  0.1598  0.4913  0.2094
 5153TIP3   OH236873   1.043   0.767  12.250  0.0055 -0.2552 -0.0026
 5153TIP3    H136874   1.049   0.813  12.166 -0.2735 -1.7319 -0.8602
 5153TIP3    H236875   1.110   0.699  12.245  0.0857 -0.2670  1.0389
 5154TIP3   OH236876   1.336   0.698   4.650 -0.6894 -0.5301  0.1938
 5154TIP3    H136877   1.269   0.648   4.696  0.7189 -3.6323 -0.8164
 5154TIP3    H236878   1.292   0.731   4.572 -1.6102 -0.3412  0.7714
 5155TIP3   OH236879   3.747   3.486   3.768 -0.3812 -0.0029 -0.6171
 5155TIP3    H136880   3.696   3.565   3.752 -0.8461  0.1867  1.5453
 5155TIP3    H236881   3.832   3.503   3.726 -0.8155  1.2064 -1.0283
 5156TIP3   OH236882   5.875   3.055  16.045  0.4772 -0.4266 -0.2564
 5156TIP3    H136883   5.797   2.999  16.046  0.8251 -0.9377  0.8652
 5156TIP3    H236884   5.853   3.127  16.105 -0.0930  0.8618 -1.9436
 5157TIP3   OH236885   5.269   5.665   2.578  0.3362 -0.3537 -0.5765
 5157TIP3    H136886   5.281   5.720   2.656  1.1207 -1.0774 -0.1710
 5157TIP3    H236887   5.341   5.689   2.520 -0.5517  0.5649 -1.3239
 5158TIP3   OH236888   3.939   6.427  12.075  0.3848  0.0326 -0.2077
 5158TIP3    H136889   3.987   6.418  11.993  1.3414  2.7025 -0.0486
 5158TIP3    H236890   3.989   6.377  12.139  0.2624 -1.1229 -0.9935
 5159TIP3   OH236891   1.664   4.324  14.540  0.5958  0.5968  0.4438
 5159TIP3    H136892   1.744   4.325  14.591  0.1695 -2.6982  1.4323
 5159TIP3    H236893   1.595   4.309  14.604 -0.3259 -0.4967 -0.7359
 5160TIP3   OH236894   1.646   2.274   4.360 -0.2031  0.7052 -0.3320
 5160TIP3    H136895   1.725   2.327   4.365 -1.1016  2.1459 -0.7395
 5160TIP3    H236896   1.674   2.192   4.318  1.5041  0.2192  1.6225
 5161TIP3   OH236897   4.222   3.535   4.991  0.0700  0.3535  0.3309
 5161TIP3    H136898   4.234   3.541   5.086  1.7802  2.7033  0.0671
 5161TIP3    H236899   4.231   3.625   4.960  1.8551 -0.5754 -2.2539
 5162TIP3   OH236900   0.473   4.599   1.880 -0.1684 -0.1047  0.0292
 5162TIP3    H136901   0.486   4.680   1.831 -0.7508 -0.8130 -1.3355
 5162TIP3    H236902   0.516   4.532   1.828 -2.7491 -1.2502 -0.7856
 5163TIP3   OH236903   5.619   2.162   3.991  0.3738 -0.5142  0.6561
 5163TIP3    H136904   5.531   2.161   3.953  0.3707  1.1858  0.5359
 5163TIP3    H236905   5.618   2.236   4.053  1.3678 -1.2070  1.5470
 5164TIP3   OH236906   0.146   4.014   3.893 -0.1931  0.0538 -0.1625
 5164TIP3    H136907   0.157   3.933   3.843  1.5301  0.8080 -1.1052
 5164TIP3    H236908   0.106   3.987   3.975  0.6958 -1.8205 -0.2933
 5165TIP3   OH236909   4.365   4.450   6.177 -0.5486  0.1422 -0.3306
 5165TIP3    H136910   4.453   4.429   6.144  0.6847  0.3157  2.5220
 5165TIP3    H236911   4.326   4.364   6.195  0.0947  0.0400  0.7460
 5166TIP3   OH236912   4.840   0.064  12.024  0.2400  0.1886  0.6951
 5166TIP3    H136913   4.789   0.144  12.010  0.6604  0.3468  0.0131
 5166TIP3    H236914   4.828   0.044  12.117 -1.9221 -0.3700  0.3472
 5167TIP3   OH236915   0.255   5.326   2.821 -0.1169 -0.5147 -0.3936
 5167TIP3    H136916   0.335   5.274   2.808  0.4091  0.3293 -0.5967
 5167TIP3    H236917   0.271   5.373   2.903 -0.7616 -0.9595  0.0017
 5168TIP3   OH236918   6.596   3.969   1.303 -0.1159 -0.3986  0.0151
 5168TIP3    H136919   6.680   3.924   1.291 -0.2531 -0.6725  0.0782
 5168TIP3    H236920   6.612   4.031   1.374  0.1350 -0.1923 -0.2183
 5169TIP3   OH236921   3.412   3.657   5.098  0.2524  0.3563 -0.1443
 5169TIP3    H136922   3.343   3.606   5.055  0.5101  0.3061 -0.4963
 5169TIP3    H236923   3.404   3.745   5.061 -0.1219  0.5513  0.3846
 5170TIP3   OH236924   1.807   2.468  13.438  0.6110  0.0937  0.0308
 5170TIP3    H136925   1.735   2.487  13.499 -0.3077  0.0832 -1.0053
 5170TIP3    H236926   1.879   2.524  13.468 -0.2684  1.1278  0.3039
 5171TIP3   OH236927   4.817   1.413  14.976 -0.3978 -0.4928 -0.2222
 5171TIP3    H136928   4.892   1.369  15.017 -0.3912 -0.4439 -0.1812
 5171TIP3    H236929   4.741   1.379  15.023 -0.5535 -1.8054 -1.3500
 5172TIP3   OH236930   2.827   6.262  17.023  0.0471 -0.1448 -0.0326
 5172TIP3    H136931   2.894   6.294  17.084  0.1595 -1.3397  0.5078
 5172TIP3    H236932   2.872   6.260  16.938  0.4028 -0.0368  0.1489
 5173TIP3   OH236933   2.821   3.222   6.372 -0.0468  0.4123 -0.0449
 5173TIP3    H136934   2.736   3.262   6.391  0.1096  0.3941  0.7344
 5173TIP3    H236935   2.811   3.131   6.399 -0.0978  0.1416 -0.9274
 5174TIP3   OH236936   4.210   1.619   5.434 -0.0699  0.2180 -0.1927
 5174TIP3    H136937   4.278   1.568   5.391 -1.5903 -1.2923 -0.9301
 5174TIP3    H236938   4.154   1.649   5.362 -0.8327  0.4419  0.4830
 5175TIP3   OH236939   6.136   5.257   2.422 -0.0616 -0.2135 -0.3435
 5175TIP3    H136940   6.181   5.304   2.492 -2.2276  0.8800  0.4174
 5175TIP3    H236941   6.132   5.166   2.451 -1.0996  0.2606  1.0904
 5176TIP3   OH236942   4.616   1.344   3.508 -0.7363  0.0817  0.4954
 5176TIP3    H136943   4.629   1.434   3.539  0.9957  0.0074  0.0710
 5176TIP3    H236944   4.577   1.355   3.421 -1.0405  0.4068  0.6699
 5177TIP3   OH236945   5.553   5.558  11.648  0.2790  0.1687 -0.3567
 5177TIP3    H136946   5.593   5.566  11.735 -0.2870  2.9771 -0.2618
 5177TIP3    H236947   5.466   5.595  11.659 -0.0541 -0.0810 -1.9821
 5178TIP3   OH236948   4.861   6.729  12.700 -0.4488 -0.0586  0.5501
 5178TIP3    H136949   4.833   6.637  12.698 -2.2294  0.3419  2.7563
 5178TIP3    H236950   4.917   6.736  12.777  1.3081  0.3615 -0.7053
 5179TIP3   OH236951   0.049   3.974   4.145  0.5358  0.0392 -0.1541
 5179TIP3    H136952  -0.002   4.013   4.215 -0.3435  0.7377 -1.1505
 5179TIP3    H236953   0.133   3.952   4.185  0.1968  0.8000  1.0069
 5180TIP3   OH236954   4.816   1.873   5.525 -0.5736 -0.1477 -0.3985
 5180TIP3    H136955   4.860   1.835   5.602 -1.1321  1.6392  0.8709
 5180TIP3    H236956   4.755   1.805   5.496 -0.5122 -0.7795  0.8924
 5181TIP3   OH236957   3.515   0.924  11.862 -0.2608  0.8527  0.4100
 5181TIP3    H136958   3.568   0.954  11.788  0.4850  1.6686  1.2475
 5181TIP3    H236959   3.437   0.979  11.860 -0.4656  0.5501 -0.0432
 5182TIP3   OH236960   0.687   5.433   2.645  0.3857  0.0449 -0.5016
 5182TIP3    H136961   0.665   5.491   2.572  1.1201 -0.4616 -1.1338
 5182TIP3    H236962   0.638   5.353   2.627 -0.1543  0.2399  0.0555
 5183TIP3   OH236963   0.417   4.289   5.430 -0.7286  0.2523 -0.4473
 5183TIP3    H136964   0.413   4.240   5.348 -2.2763  0.7560 -0.7148
 5183TIP3    H236965   0.378   4.230   5.495  0.2583 -0.0474 -0.1187
 5184TIP3   OH236966   4.442   5.295   0.680 -0.0306 -0.1128 -0.1917
 5184TIP3    H136967   4.391   5.257   0.751 -1.6743  0.4864 -1.0138
 5184TIP3    H236968   4.423   5.389   0.684  0.3916  0.0165 -0.9938
 5185TIP3   OH236969   2.272   0.140   4.063 -0.4634  0.1381  0.2049
 5185TIP3    H136970   2.235   0.056   4.091  0.9197 -0.6374 -0.1725
 5185TIP3    H236971   2.322   0.119   3.984  0.2309  1.2411  0.3335
 5186TIP3   OH236972   5.148   2.661  11.499  0.1018 -0.0305 -0.7406
 5186TIP3    H136973   5.166   2.710  11.579 -0.5198 -0.5823 -0.2529
 5186TIP3    H236974   5.193   2.710  11.431 -0.4828  1.1941 -0.2675
 5187TIP3   OH236975   1.939   2.076  11.445 -0.9617 -0.3114  0.0713
 5187TIP3    H136976   1.851   2.113  11.449  0.1667  2.4740  2.7404
 5187TIP3    H236977   1.990   2.141  11.396  0.0764 -0.8276  0.4330
 5188TIP3   OH236978   4.992   5.904   2.921  0.0233  0.0396  0.1167
 5188TIP3    H136979   4.913   5.855   2.944  0.2298 -0.3255  0.0429
 5188TIP3    H236980   4.993   5.907   2.826 -0.0892  0.3544  0.1224
 5189TIP3   OH236981   2.044   2.702  12.168  0.3163 -0.2676 -0.2895
 5189TIP3    H136982   1.967   2.744  12.207 -0.9079 -3.0179  0.5088
 5189TIP3    H236983   2.016   2.678  12.079  0.2775 -1.0996 -0.0652
 5190TIP3   OH236984   4.906   3.769   5.877  0.5058 -0.3402  0.3646
 5190TIP3    H136985   4.850   3.702   5.917 -2.1354 -0.6690 -3.3679
 5190TIP3    H236986   4.878   3.851   5.917  1.2401 -0.9899  2.3587
 5191TIP3   OH236987   4.304   4.095   6.772 -0.0527  0.1316 -0.4308
 5191TIP3    H136988   4.237   4.148   6.730 -0.4629  0.3478  0.4600
 5191TIP3    H236989   4.387   4.138   6.750 -0.2627  0.2631 -0.9640
 5192TIP3   OH236990   4.483   3.104  11.687  0.3527 -0.2801 -0.2672
 5192TIP3    H136991   4.449   3.066  11.605  0.2882  0.0583 -0.3980
 5192TIP3    H236992   4.457   3.041  11.754  1.8165 -1.3898 -0.6962
 5193TIP3   OH236993   3.921   6.705   1.544 -0.1286 -0.1224  0.8217
 5193TIP3    H136994   3.877   6.649   1.607  0.4771 -1.0348  0.4473
 5193TIP3    H236995   3.850   6.753   1.501 -0.5883  0.0673  1.7511
 5194TIP3   OH236996   0.550   4.465   0.775  0.0415  0.1104 -0.5578
 5194TIP3    H136997   0.550   4.482   0.680  1.2253 -1.6427 -0.9166
 5194TIP3    H236998   0.589   4.378   0.784  2.2408  1.2219  1.7343
 5195TIP3   OH236999   0.493   5.947   3.411  0.1476 -0.1521  0.2176
 5195TIP3    H137000   0.457   5.880   3.469 -0.8492  0.7682  0.6952
 5195TIP3    H237001   0.421   6.008   3.397  1.0721  0.8939 -0.1041
 5196TIP3   OH237002   6.062   2.329   0.119  0.2088  0.6751  0.2270
 5196TIP3    H137003   6.121   2.348   0.192 -0.8213 -0.4602  1.4280
 5196TIP3    H237004   6.098   2.378   0.045  2.5497  0.1555  0.9236
 5197TIP3   OH237005   6.065   5.664  10.884 -0.4560 -0.2413 -0.0850
 5197TIP3    H137006   6.148   5.695  10.848  0.6289 -2.7112  0.1225
 5197TIP3    H237007   6.006   5.660  10.809 -0.1352  0.6211 -0.3985
 5198TIP3   OH237008   5.926   6.228  13.861 -0.5270 -0.2091 -0.3442
 5198TIP3    H137009   5.943   6.183  13.943 -2.2182 -1.3334 -0.5644
 5198TIP3    H237010   5.852   6.286  13.880  0.1147  0.7374 -0.6702
 5199TIP3   OH237011   0.278   0.654  10.732 -0.2628  0.4007 -0.1908
 5199TIP3    H137012   0.270   0.741  10.692  0.7446  1.5337  1.9421
 5199TIP3    H237013   0.358   0.618  10.695  0.0142  0.9279 -0.1100
 5200TIP3   OH237014   6.329   4.934  13.682  0.5040  0.6681 -0.1620
 5200TIP3    H137015   6.245   4.890  13.694  1.1676 -0.7685 -0.6208
 5200TIP3    H237016   6.311   5.002  13.618 -0.3091  0.3867 -0.2486
 5201TIP3   OH237017   1.436   4.164   5.361 -0.4409 -0.1176 -0.3416
 5201TIP3    H137018   1.481   4.100   5.305  1.1144 -0.6473  1.4200
 5201TIP3    H237019   1.502   4.191   5.424 -2.5139 -0.8014  2.3140
 5202TIP3   OH237020   3.799   2.329   1.585  0.2323 -0.1233 -0.4878
 5202TIP3    H137021   3.731   2.278   1.541 -0.3160 -1.5283  1.7635
 5202TIP3    H237022   3.752   2.400   1.629  0.4158 -0.1484 -0.2426
 5203TIP3   OH237023   3.217   1.429  14.480  0.1262  0.5909  0.5686
 5203TIP3    H137024   3.183   1.516  14.502 -0.7724  0.8833 -1.7749
 5203TIP3    H237025   3.157   1.395  14.414  1.2486 -1.2481  0.4290
 5204TIP3   OH237026   2.944   4.531   2.102  0.2193  0.2449 -0.4667
 5204TIP3    H137027   2.851   4.555   2.097  0.3669  0.8242 -0.4461
 5204TIP3    H237028   2.957   4.507   2.194  0.3825  1.4019 -0.1720
 5205TIP3   OH237029   5.552   5.086  11.094 -0.8214 -0.3172  0.2969
 5205TIP3    H137030   5.513   5.169  11.065 -1.7364 -1.3897 -1.7395
 5205TIP3    H237031   5.494   5.055  11.163 -0.2296  0.9076  1.3900
 5206TIP3   OH237032   4.912   1.631  17.133 -0.3762 -0.1019 -0.2189
 5206TIP3    H137033   4.871   1.713  17.163 -0.6083 -0.4557  0.4477
 5206TIP3    H237034   4.972   1.659  17.064  0.1277  0.7379  0.5326
 5207TIP3   OH237035   5.276   2.010   5.598  0.2551 -0.2530  0.6902
 5207TIP3    H137036   5.249   1.919   5.616  0.2472  0.0325  2.2953
 5207TIP3    H237037   5.198   2.050   5.560 -1.3395  0.1855  4.0135
 5208TIP3   OH237038   5.699   0.023  15.841 -0.0899  0.2716  0.3836
 5208TIP3    H137039   5.752   0.094  15.879  1.7095 -0.9956  0.3636
 5208TIP3    H237040   5.696  -0.043  15.910  0.9404 -0.9304 -0.6761
 5209TIP3   OH237041   5.114   2.012  15.779 -0.8008  0.3795  0.4152
 5209TIP3    H137042   5.151   2.099  15.761  1.2870  0.3593  3.7794
 5209TIP3    H237043   5.172   1.952  15.732 -0.8024  0.6600  0.0410
 5210TIP3   OH237044   0.635   4.681  11.646  0.1008 -0.4876  0.3442
 5210TIP3    H137045   0.611   4.724  11.564 -0.7376 -2.2613 -0.3962
 5210TIP3    H237046   0.731   4.678  11.644  0.1925  1.2597  0.4260
 5211TIP3   OH237047   0.934   6.203  14.476  0.5457 -0.3205  0.2060
 5211TIP3    H137048   0.841   6.213  14.454  0.5288  0.0022  0.4200
 5211TIP3    H237049   0.978   6.275  14.431  0.4171  0.7909  1.7901
 5212TIP3   OH237050   5.266   1.224   5.012 -0.0065 -0.2078  0.0256
 5212TIP3    H137051   5.271   1.135   5.046  1.7321 -0.0457  0.2686
 5212TIP3    H237052   5.289   1.280   5.086  5.1323  0.0930 -1.4360
 5213TIP3   OH237053   0.368   3.130  11.584  0.2278 -0.5591 -0.0590
 5213TIP3    H137054   0.298   3.164  11.528  0.6707 -1.9536 -1.5195
 5213TIP3    H237055   0.435   3.099  11.523  0.1681 -3.3492  1.1398
 5214TIP3   OH237056   2.786   1.947  15.457  0.3191  0.5778  0.8208
 5214TIP3    H137057   2.720   1.883  15.430  0.7535 -0.3273  1.8621
 5214TIP3    H237058   2.868   1.914  15.421  0.3533  1.2559  0.2517
 5215TIP3   OH237059   4.550   1.933   1.153  0.5525 -0.3840  0.3689
 5215TIP3    H137060   4.564   2.024   1.180 -1.7391  0.7609 -1.9460
 5215TIP3    H237061   4.594   1.926   1.068 -0.9050 -0.8106 -0.3847
 5216TIP3   OH237062   5.761   2.624   1.088  0.6174  0.1400 -0.1278
 5216TIP3    H137063   5.673   2.610   1.122  0.4446  1.1254 -0.1414
 5216TIP3    H237064   5.810   2.547   1.116 -0.3512 -0.6198 -0.4810
 5217TIP3   OH237065   0.523   5.682  11.535  0.2414 -0.2551  0.6128
 5217TIP3    H137066   0.596   5.668  11.476  1.4323 -0.1126  1.9887
 5217TIP3    H237067   0.518   5.602  11.587 -2.3082 -1.3793 -1.1710
 5218TIP3   OH237068   1.235   4.055  13.831 -0.7218  0.2962 -0.2716
 5218TIP3    H137069   1.198   3.993  13.767 -2.5000  1.1377 -0.1340
 5218TIP3    H237070   1.186   4.038  13.911  1.6209 -0.8735  1.0207
 5219TIP3   OH237071   2.654   2.704   5.371  0.1644  0.1900 -0.1468
 5219TIP3    H137072   2.717   2.633   5.355  1.1762  0.6561  1.4937
 5219TIP3    H237073   2.646   2.748   5.286 -0.5684 -1.8895 -1.2356
 5220TIP3   OH237074   6.662   1.682   1.843 -0.0940  0.2644  0.1058
 5220TIP3    H137075   6.726   1.702   1.912  1.3868  2.0485 -1.6577
 5220TIP3    H237076   6.577   1.689   1.887  0.8183 -0.9572  2.2482
 5221TIP3   OH237077   5.853   3.518  16.686  0.0173  0.0773  0.4848
 5221TIP3    H137078   5.932   3.483  16.726  1.2619  0.1846 -1.7285
 5221TIP3    H237079   5.862   3.498  16.593 -2.5361  0.1754  0.1283
 5222TIP3   OH237080   6.667   1.234  11.985 -0.5289 -0.9568 -0.1360
 5222TIP3    H137081   6.661   1.284  12.066  0.8846  0.0579 -0.6198
 5222TIP3    H237082   6.620   1.287  11.920 -0.6182 -1.1736 -0.2513
 5223TIP3   OH237083   3.266   2.967  15.627  0.1595  0.4064  0.2538
 5223TIP3    H137084   3.356   2.986  15.600  0.4333 -1.0996  0.0438
 5223TIP3    H237085   3.243   3.040  15.686  2.0400  0.0670  1.5046
 5224TIP3   OH237086   1.961   3.440  17.182 -0.8082  0.0595 -0.2477
 5224TIP3    H137087   1.983   3.349  17.201 -1.8856 -0.3494 -0.8617
 5224TIP3    H237088   2.033   3.491  17.219  2.7521 -1.2611 -4.4660
 5225TIP3   OH237089   6.269   0.189  11.710  0.2511 -0.0972  0.0373
 5225TIP3    H137090   6.268   0.281  11.736  1.5783 -0.1091  0.1930
 5225TIP3    H237091   6.176   0.167  11.698 -0.2033  0.8006  1.5610
 5226TIP3   OH237092   2.196   4.777   0.844 -1.1626 -0.3417  0.0994
 5226TIP3    H137093   2.109   4.745   0.822 -0.8282 -2.1607  1.2115
 5226TIP3    H237094   2.232   4.711   0.904  1.2270 -0.0177 -0.8376
 5227TIP3   OH237095   0.124   6.306  15.277  0.2616  0.4697 -0.0847
 5227TIP3    H137096   0.212   6.305  15.237 -0.1550  1.6046 -1.0827
 5227TIP3    H237097   0.083   6.226  15.243  0.0704  1.1896 -1.6408
 5228TIP3   OH237098   3.665   5.923   2.348 -0.4503  0.2056 -0.2318
 5228TIP3    H137099   3.594   5.889   2.402 -0.4157  0.5203  0.0144
 5228TIP3    H237100   3.719   5.847   2.328 -0.7375  0.0027 -0.2400
 5229TIP3   OH237101   5.953   1.192   2.221 -0.2264 -0.4729 -0.1132
 5229TIP3    H137102   5.917   1.183   2.133  0.1818 -0.6197 -0.2679
 5229TIP3    H237103   5.927   1.111   2.266  1.2000 -1.3042 -0.6995
 5230TIP3   OH237104   4.359   3.851  12.322 -0.7261 -0.2206  0.3688
 5230TIP3    H137105   4.427   3.793  12.356 -2.0709 -1.5503  0.8835
 5230TIP3    H237106   4.324   3.895  12.399  0.8515  2.0316 -0.0884
 5231TIP3   OH237107   4.867   5.709  14.353  0.0689  0.4472  0.5299
 5231TIP3    H137108   4.855   5.719  14.258  1.5397 -0.5049  0.2107
 5231TIP3    H237109   4.862   5.798  14.387 -2.3527  0.6412 -0.1620
 5232TIP3   OH237110   5.493   6.528   0.293  0.4056 -0.0049 -0.2107
 5232TIP3    H137111   5.460   6.488   0.213 -1.0852  2.6649 -1.0427
 5232TIP3    H237112   5.582   6.557   0.272  0.4238 -0.2886 -0.5242
 5233TIP3   OH237113   2.344   5.759   1.428 -0.9853 -0.0789  0.4781
 5233TIP3    H137114   2.316   5.776   1.518 -1.2888 -0.9547  0.5591
 5233TIP3    H237115   2.380   5.843   1.398 -1.3258  0.3559  1.2452
 5234TIP3   OH237116   1.347   6.308  10.514 -0.4306  0.4941  0.0960
 5234TIP3    H137117   1.295   6.231  10.537  0.2189  0.2093  0.6382
 5234TIP3    H237118   1.282   6.371  10.482 -1.3327  0.6706  2.0614
 5235TIP3   OH237119   5.939   0.574  13.639  0.3774  0.0271 -0.0235
 5235TIP3    H137120   5.915   0.513  13.709  1.0081 -0.7812 -0.4862
 5235TIP3    H237121   5.859   0.624  13.622  0.5218  1.0647  2.0666
 5236TIP3   OH237122   5.637   0.907   5.908 -0.4256 -0.1955 -0.1103
 5236TIP3    H137123   5.681   0.974   5.962  0.2326 -1.3380  0.8225
 5236TIP3    H237124   5.559   0.885   5.958 -0.9882  0.3228 -0.7419
 5237TIP3   OH237125   1.167   6.376  14.848  0.1165 -0.2716  0.0827
 5237TIP3    H137126   1.126   6.294  14.876 -1.6585  0.2217 -0.8998
 5237TIP3    H237127   1.227   6.349  14.778  0.3734 -0.8591  0.5229
 5238TIP3   OH237128   0.581   3.749   1.818 -0.3566  0.1969 -0.3746
 5238TIP3    H137129   0.537   3.781   1.897  1.5561 -0.5426  1.1016
 5238TIP3    H237130   0.648   3.815   1.799  1.0827 -0.9501  0.4159
 5239TIP3   OH237131   4.460   0.095   2.253  0.0828  0.1759  0.0272
 5239TIP3    H137132   4.497   0.179   2.280  2.5496 -0.8625  0.2142
 5239TIP3    H237133   4.531   0.053   2.204 -1.0851 -1.7884 -0.0972
 5240TIP3   OH237134   0.029   2.500  16.397  0.2660 -0.2310 -0.3138
 5240TIP3    H137135   0.047   2.439  16.468 -0.3526 -1.1497 -0.9325
 5240TIP3    H237136  -0.062   2.483  16.373  0.1420  0.8049 -0.6279
 5241TIP3   OH237137   4.332   6.376   1.622  0.1735  0.8609 -0.3537
 5241TIP3    H137138   4.255   6.320   1.637  0.5746  0.4641  0.3095
 5241TIP3    H237139   4.356   6.361   1.531  0.6082 -0.5129 -0.0402
 5242TIP3   OH237140   5.610   1.578  15.968 -0.0575 -0.1299  0.8233
 5242TIP3    H137141   5.689   1.530  15.943  0.0225  1.2174 -1.8633
 5242TIP3    H237142   5.552   1.511  16.006  0.8039 -1.9830 -0.9167
 5243TIP3   OH237143   3.547   6.006  14.981 -0.5116 -0.2065 -0.9313
 5243TIP3    H137144   3.596   6.085  14.961 -0.4712  0.5693  1.7502
 5243TIP3    H237145   3.605   5.955  15.038 -0.8554 -1.8001 -1.9423
 5244TIP3   OH237146   3.271   1.881  16.411  0.5438  0.1149 -0.3030
 5244TIP3    H137147   3.303   1.791  16.415  0.5392  0.1500  0.8680
 5244TIP3    H237148   3.336   1.932  16.459 -0.2685  0.4919  0.4233
 5245TIP3   OH237149   1.134   5.978  12.935 -0.0890  0.1939  0.5203
 5245TIP3    H137150   1.057   5.947  12.982 -0.7041 -1.5437 -1.4568
 5245TIP3    H237151   1.198   5.908  12.944 -0.5973 -0.6971 -1.9372
 5246TIP3   OH237152   3.353   1.185  16.583 -0.3087  0.2098 -0.0333
 5246TIP3    H137153   3.307   1.127  16.644  0.2245 -0.0415  0.1366
 5246TIP3    H237154   3.337   1.146  16.497 -0.1819 -0.0378  0.0539
 5247TIP3   OH237155   3.858   2.673   5.720 -0.2366 -0.3256  0.3126
 5247TIP3    H137156   3.909   2.668   5.800 -0.1383  0.1399  0.2858
 5247TIP3    H237157   3.775   2.715   5.747  0.4485  1.3960 -0.1113
 5248TIP3   OH237158   0.338   3.522   0.563 -0.8998  0.6430 -0.4891
 5248TIP3    H137159   0.340   3.433   0.527 -0.6891  0.0209  0.9921
 5248TIP3    H237160   0.403   3.570   0.512 -0.2699 -0.3354 -0.6283
 5249TIP3   OH237161   2.377   0.872   3.361 -0.0402 -0.1106  0.0382
 5249TIP3    H137162   2.304   0.922   3.397  0.2560 -0.6370  1.4232
 5249TIP3    H237163   2.384   0.902   3.270 -0.8173  1.2425  0.4003
 5250TIP3   OH237164   5.468   1.896   5.305  0.1892  0.4762 -0.1451
 5250TIP3    H137165   5.472   1.970   5.244 -1.2986  2.3276  1.8361
 5250TIP3    H237166   5.540   1.912   5.366  0.1214  0.0285  0.0524
 5251TIP3   OH237167   2.262   1.083  14.228  0.4599 -0.2657  0.3770
 5251TIP3    H137168   2.233   1.099  14.138  1.5027  1.3890  0.2905
 5251TIP3    H237169   2.298   0.994  14.226 -0.6120 -0.7006 -0.5337
 5252TIP3   OH237170   6.458   2.686   2.573 -0.1339 -0.4906  0.0086
 5252TIP3    H137171   6.467   2.596   2.542  0.0028 -0.8004  0.9350
 5252TIP3    H237172   6.538   2.730   2.543  0.5236 -1.0760  0.8812
 5253TIP3   OH237173   1.203   5.068   1.501  0.0163  0.6020 -0.4659
 5253TIP3    H137174   1.244   5.062   1.587 -1.2857  1.0602  0.2271
 5253TIP3    H237175   1.196   4.978   1.470  0.2510  0.4089  0.0410
 5254TIP3   OH237176   6.396   1.596   4.562 -0.7567  0.5373 -0.0291
 5254TIP3    H137177   6.425   1.607   4.653  1.5473  1.0140 -0.7549
 5254TIP3    H237178   6.377   1.503   4.554  0.2177  0.2632  0.6370
 5255TIP3   OH237179   0.916   6.761   5.565  0.7430 -0.1095 -0.1470
 5255TIP3    H137180   0.851   6.781   5.632  1.9299 -1.1485  1.3682
 5255TIP3    H237181   0.975   6.836   5.565  0.0607  0.4577 -0.9520
 5256TIP3   OH237182   2.879   6.246   0.642 -0.5024  0.7656 -0.0752
 5256TIP3    H137183   2.968   6.212   0.632 -0.8767 -0.0571 -0.6996
 5256TIP3    H237184   2.879   6.286   0.729 -0.5861 -2.6228  1.6592
 5257TIP3   OH237185   4.080   5.225  12.065 -0.2785 -0.5463 -0.0052
 5257TIP3    H137186   4.020   5.171  12.116  0.8720 -2.0771 -0.1613
 5257TIP3    H237187   4.135   5.269  12.130 -0.7591 -0.1213  0.1144
 5258TIP3   OH237188   6.738   0.536  16.917  0.3197 -0.7140  0.1610
 5258TIP3    H137189   6.711   0.502  17.002 -0.8731 -2.1125 -0.7290
 5258TIP3    H237190   6.775   0.460  16.872  1.0751  0.0431 -0.5230
 5259TIP3   OH237191   4.700   1.708   4.038  0.3139 -0.1318 -0.2182
 5259TIP3    H137192   4.738   1.659   4.111 -1.5393 -0.5477  0.5151
 5259TIP3    H237193   4.710   1.649   3.963  2.1157  0.2481 -0.3419
 5260TIP3   OH237194   6.066   1.382  14.745  0.5940 -0.6603 -0.0191
 5260TIP3    H137195   6.117   1.461  14.763  1.2723 -1.3054  1.0449
 5260TIP3    H237196   6.067   1.374  14.650  0.4159  0.6584 -0.1605
 5261TIP3   OH237197   0.374   2.758  11.215  0.2745 -0.5565  0.0758
 5261TIP3    H137198   0.402   2.848  11.201  1.8414 -0.8860  0.7443
 5261TIP3    H237199   0.282   2.756  11.189 -0.2451  1.5856  1.4736
 5262TIP3   OH237200   5.942   2.639  11.787 -0.0934 -0.0689 -0.1447
 5262TIP3    H137201   6.001   2.709  11.814  0.5900 -0.1376 -1.4364
 5262TIP3    H237202   5.974   2.562  11.834  0.9126 -0.1245 -0.8941
 5263TIP3   OH237203   0.515   5.423  12.625  0.2086 -0.3873 -0.5033
 5263TIP3    H137204   0.585   5.482  12.652  0.3834 -0.7417 -0.1779
 5263TIP3    H237205   0.435   5.465  12.657  0.0415  1.0798 -2.6790
 5264TIP3   OH237206   6.215   3.348  15.609 -0.1625  0.1722  0.3399
 5264TIP3    H137207   6.209   3.364  15.515  0.6740  0.2134  0.2818
 5264TIP3    H237208   6.304   3.376  15.632 -0.1786 -0.3252  1.0433
 5265TIP3   OH237209   4.030   6.285   2.433  0.6248  0.4761  0.5232
 5265TIP3    H137210   4.108   6.233   2.413  0.1422  0.0790 -0.3816
 5265TIP3    H237211   3.959   6.221   2.438 -0.6687  1.2326 -4.1554
 5266TIP3   OH237212   1.531   5.575   4.357  0.0032 -0.2270  0.9283
 5266TIP3    H137213   1.566   5.546   4.441 -0.8143  1.5536  1.9410
 5266TIP3    H237214   1.440   5.545   4.356  0.8388 -3.1093 -0.8348
 5267TIP3   OH237215   3.830   4.348  11.835 -0.4243  0.6064  0.0973
 5267TIP3    H137216   3.791   4.358  11.748 -2.4744  0.0111  0.8914
 5267TIP3    H237217   3.806   4.260  11.862  1.7281  0.1065  0.5897
 5268TIP3   OH237218   4.851   5.100   1.636  0.4531 -0.3831 -0.7100
 5268TIP3    H137219   4.937   5.058   1.624  0.5635 -0.0620 -1.0841
 5268TIP3    H237220   4.872   5.189   1.664  0.1976 -1.1752  2.2793
 5269TIP3   OH237221   5.854   6.590   5.434  0.4276  0.1115 -0.3575
 5269TIP3    H137222   5.815   6.504   5.416  0.3030  0.2822 -0.9411
 5269TIP3    H237223   5.944   6.570   5.461  0.0927 -0.2563  0.4976
 5270TIP3   OH237224   0.515   4.405  15.639  0.2894  0.1277 -0.0291
 5270TIP3    H137225   0.425   4.406  15.606  0.9953 -0.3542 -2.1160
 5270TIP3    H237226   0.557   4.332  15.594  1.6713  0.1522  1.1230
 5271TIP3   OH237227   4.107   4.304   1.927  0.4330  0.5996 -0.2380
 5271TIP3    H137228   4.131   4.366   1.995  0.3360  0.1075  0.2595
 5271TIP3    H237229   4.012   4.299   1.932  0.4845 -0.0732  0.1705
 5272TIP3   OH237230   1.245   1.133   0.102  0.2687 -0.5052  0.0327
 5272TIP3    H137231   1.252   1.052   0.050 -0.6243 -0.9618  0.6039
 5272TIP3    H237232   1.153   1.136   0.128  0.1808  0.9650 -0.3898
 5273TIP3   OH237233   4.736   1.513   6.638  0.6537  0.6590 -0.2927
 5273TIP3    H137234   4.690   1.590   6.603  0.8513  0.8552 -0.1267
 5273TIP3    H237235   4.666   1.453   6.663  0.4588  1.1819  0.4712
 5274TIP3   OH237236   3.450   6.616  13.400  0.6546 -0.1913  0.0792
 5274TIP3    H137237   3.508   6.680  13.358 -0.0447  1.3603  1.3797
 5274TIP3    H237238   3.365   6.659  13.402  0.7341  0.0180  3.4356
 5275TIP3   OH237239   0.149   5.432  13.145  0.1112 -0.6631 -0.1714
 5275TIP3    H137240   0.165   5.439  13.051  0.4053 -0.0334 -0.0802
 5275TIP3    H237241   0.061   5.467  13.157  0.0345 -0.8388 -0.2285
 5276TIP3   OH237242   1.050   4.309   0.087 -0.7139 -0.1684 -0.1715
 5276TIP3    H137243   1.053   4.372   0.159 -0.0983 -1.5220  1.0458
 5276TIP3    H237244   0.970   4.258   0.104 -1.1053  0.1364 -1.0334
 5277TIP3   OH237245   4.918   3.103   3.903  0.2566  0.0233  0.2030
 5277TIP3    H137246   4.946   3.055   3.825 -1.5066  0.9271 -1.0585
 5277TIP3    H237247   4.903   3.193   3.872 -3.3560 -0.2068  0.7770
 5278TIP3   OH237248   4.199   1.245  12.031  0.4744  0.3709  0.3921
 5278TIP3    H137249   4.256   1.207  12.098 -0.0140  0.1172  0.6769
 5278TIP3    H237250   4.127   1.182  12.023  1.2690 -0.3645 -1.4691
 5279TIP3   OH237251   1.846   6.786  11.767 -0.1764 -0.1013  0.0445
 5279TIP3    H137252   1.818   6.877  11.756 -0.4169 -0.2665 -0.7572
 5279TIP3    H237253   1.905   6.771  11.693  1.3698 -0.0316  1.1956
 5280TIP3   OH237254   2.963   0.815   3.617  0.2145  0.2249 -0.2945
 5280TIP3    H137255   2.939   0.848   3.704 -0.4199  1.7923 -1.0109
 5280TIP3    H237256   2.955   0.892   3.560 -0.7050 -1.0441 -1.9742
 5281TIP3   OH237257   4.410   3.015  11.441  0.0571  0.1492 -0.7555
 5281TIP3    H137258   4.488   3.001  11.388 -0.0044  0.8497 -1.0398
 5281TIP3    H237259   4.352   3.067  11.385 -0.0288  0.8612 -0.0157
 5282TIP3   OH237260   2.280   5.485   1.002  0.2743  0.0782  0.4641
 5282TIP3    H137261   2.343   5.556   1.014  2.1102 -1.4633  0.4451
 5282TIP3    H237262   2.260   5.455   1.090 -1.0998  1.0824  0.5141
 5283TIP3   OH237263   3.413   3.292   3.436 -0.6344 -0.4909 -0.3458
 5283TIP3    H137264   3.394   3.226   3.369 -1.5404 -0.1813 -0.4117
 5283TIP3    H237265   3.369   3.260   3.515  0.6858 -1.0104  0.2083
 5284TIP3   OH237266   3.530   4.648  11.656 -0.2499 -0.0790  0.0563
 5284TIP3    H137267   3.572   4.632  11.741  0.4058 -0.1972 -0.2836
 5284TIP3    H237268   3.500   4.561  11.628 -1.2871  0.0883  0.5732
 5285TIP3   OH237269   1.807   3.523   5.474 -0.1445 -0.1182 -0.6925
 5285TIP3    H137270   1.866   3.483   5.409  0.3885 -0.3913 -0.0545
 5285TIP3    H237271   1.750   3.452   5.501 -1.7486  0.4618 -2.3355
 5286TIP3   OH237272   5.470   1.093  12.956  0.1853  0.1869  0.0828
 5286TIP3    H137273   5.386   1.112  12.997 -2.1783 -1.3812 -3.5617
 5286TIP3    H237274   5.477   1.156  12.885  2.0996  0.2017  0.2356
 5287TIP3   OH237275   5.128   5.172   5.938  0.1101 -0.4407  0.0999
 5287TIP3    H137276   5.173   5.087   5.929 -0.7423 -0.9187  0.2589
 5287TIP3    H237277   5.047   5.151   5.983  0.1257  0.5525  0.6054
 5288TIP3   OH237278   2.547   1.991  16.667  0.1982 -0.4823 -0.2849
 5288TIP3    H137279   2.493   2.004  16.589 -1.9427 -3.2398  0.5588
 5288TIP3    H237280   2.490   2.017  16.740  1.1946 -0.4562  0.5064
 5289TIP3   OH237281   2.697   1.453   5.915  0.2441 -0.8435  0.0148
 5289TIP3    H137282   2.689   1.535   5.963 -1.3262  0.0696 -1.6623
 5289TIP3    H237283   2.792   1.438   5.908  0.6688  1.7027 -0.9647
 5290TIP3   OH237284   4.500   6.594  15.877  0.1407  0.2648  0.0916
 5290TIP3    H137285   4.520   6.651  15.952  1.3797 -1.1162  0.8662
 5290TIP3    H237286   4.585   6.572  15.840 -0.2458 -1.6363  0.2455
 5291TIP3   OH237287   4.703   2.405   1.395 -0.1548  0.6911 -0.7129
 5291TIP3    H137288   4.698   2.407   1.491 -2.7702 -0.4884 -0.7449
 5291TIP3    H237289   4.797   2.413   1.376  0.4403  0.9705  1.9190
 5292TIP3   OH237290   5.502   3.375   5.879  0.1774  0.7186  0.6939
 5292TIP3    H137291   5.595   3.353   5.872 -0.1437 -0.2837 -0.8194
 5292TIP3    H237292   5.484   3.428   5.802 -0.7490 -0.0511  0.3690
 5293TIP3   OH237293   0.481   0.731   4.971 -0.1919  0.3452 -0.1360
 5293TIP3    H137294   0.532   0.718   5.051 -0.6910 -0.2247  0.0925
 5293TIP3    H237295   0.436   0.648   4.957 -0.8442  0.7508 -0.4849
 5294TIP3   OH237296   2.302   0.083  15.865  0.0398 -0.3252  0.1031
 5294TIP3    H137297   2.261   0.094  15.780 -0.9923  0.0436  0.6385
 5294TIP3    H237298   2.350   0.001  15.857 -1.0953 -0.9616 -0.4280
 5295TIP3   OH237299   5.674   0.104  11.042  0.9336  0.4565  0.2174
 5295TIP3    H137300   5.654   0.137  10.955 -1.4079  0.0253  0.5326
 5295TIP3    H237301   5.641   0.171  11.102  0.0238 -0.4705  0.7891
 5296TIP3   OH237302   2.039   5.940   1.265 -0.1087  0.0653 -0.1640
 5296TIP3    H137303   2.010   5.934   1.356 -0.0233 -0.3919 -0.1642
 5296TIP3    H237304   1.964   5.909   1.214 -0.3746  0.8906 -0.2884
 5297TIP3   OH237305   1.398   2.557  16.853  0.3886  0.0174  0.2499
 5297TIP3    H137306   1.449   2.511  16.920  1.2991  0.9921  0.2519
 5297TIP3    H237307   1.332   2.493  16.826  1.4130 -1.1927  0.4701
 5298TIP3   OH237308   5.920   0.586   0.556 -0.2786 -0.8731 -0.3103
 5298TIP3    H137309   5.914   0.545   0.469  0.9437  0.7098 -1.1996
 5298TIP3    H237310   5.840   0.637   0.564 -0.7230 -1.5719 -0.1853
 5299TIP3   OH237311   4.995   6.277  15.284  0.2327 -0.3345  0.1812
 5299TIP3    H137312   4.927   6.274  15.217 -0.9743  1.2575  1.2380
 5299TIP3    H237313   4.952   6.244  15.363  0.9064  0.0103  0.7056
 5300TIP3   OH237314   6.625   1.519   6.418  0.4100 -0.0506  0.3093
 5300TIP3    H137315   6.557   1.452   6.419 -0.0562  0.3777 -0.8436
 5300TIP3    H237316   6.577   1.602   6.421  0.9758  0.2685  1.8037
 5301TIP3   OH237317   1.483   4.489   0.488 -0.5554 -0.3326  0.5387
 5301TIP3    H137318   1.555   4.490   0.550 -0.0125  1.5247 -0.0636
 5301TIP3    H237319   1.513   4.432   0.417 -0.1196 -0.4049  0.7803
 5302TIP3   OH237320   5.882   2.780   4.210 -0.1198  0.5646  0.6062
 5302TIP3    H137321   5.835   2.852   4.168 -0.2264  0.2506  0.1791
 5302TIP3    H237322   5.902   2.720   4.138 -2.4410 -1.1736  1.3380
 5303TIP3   OH237323   3.287   2.423   3.505 -0.9759 -0.0508  0.0058
 5303TIP3    H137324   3.340   2.394   3.580 -1.2472  1.1802  0.6914
 5303TIP3    H237325   3.313   2.364   3.434  0.5704 -0.1362  0.5955
 5304TIP3   OH237326   3.060   2.208  14.942  0.1176  0.5788  0.2609
 5304TIP3    H137327   3.038   2.185  15.032  1.9754 -0.3404  0.5321
 5304TIP3    H237328   2.977   2.205  14.895 -0.6755 -0.3245  1.6519
 5305TIP3   OH237329   1.735   1.774  15.958 -0.4185  0.3023 -0.1410
 5305TIP3    H137330   1.680   1.819  15.893 -2.7519 -0.2336  1.3306
 5305TIP3    H237331   1.716   1.819  16.041  1.6029  0.2311  0.4065
 5306TIP3   OH237332   5.355   0.766  10.576 -0.2511 -0.6385 -0.0637
 5306TIP3    H137333   5.287   0.727  10.521 -0.2494 -2.1155  0.9341
 5306TIP3    H237334   5.370   0.702  10.645  0.8313  0.5038  0.8028
 5307TIP3   OH237335   0.571   4.497   0.522  0.1566 -0.4418  0.1974
 5307TIP3    H137336   0.525   4.425   0.478  0.0153 -0.8840  1.0345
 5307TIP3    H237337   0.635   4.527   0.459 -0.5589 -0.5447 -0.5914
 5308TIP3   OH237338   0.428   2.688  11.963 -0.0262 -0.4124  0.3396
 5308TIP3    H137339   0.380   2.605  11.960  0.0463 -0.4578  0.4609
 5308TIP3    H237340   0.453   2.698  12.054  0.8821 -0.7791  0.1406
 5309TIP3   OH237341   5.023   5.801   1.790 -0.0814 -0.1322 -0.2324
 5309TIP3    H137342   4.979   5.801   1.875 -1.4315  0.9468 -0.8829
 5309TIP3    H237343   5.015   5.892   1.759  1.6907 -0.1437 -0.8796
 5310TIP3   OH237344   4.622   1.820   6.549  0.2140 -0.1727  0.3703
 5310TIP3    H137345   4.563   1.789   6.480 -0.0748 -0.8956  0.9243
 5310TIP3    H237346   4.584   1.785   6.630  0.0822  1.3523  0.9998
 5311TIP3   OH237347   1.964   5.644   2.486  0.0197  0.2477  0.6595
 5311TIP3    H137348   2.020   5.664   2.410 -0.0418 -1.3040  0.1690
 5311TIP3    H237349   1.989   5.709   2.552  2.3570 -0.3027  0.4128
 5312TIP3   OH237350   4.317   6.653   0.713 -0.3448 -0.2535  0.1729
 5312TIP3    H137351   4.246   6.715   0.731 -0.6588 -0.7613  0.7189
 5312TIP3    H237352   4.395   6.698   0.744 -0.6088 -0.2468  0.8394
 5313TIP3   OH237353   2.881   0.114   2.686 -0.2151  0.9451  0.1610
 5313TIP3    H137354   2.827   0.123   2.764 -1.9238 -0.5682 -0.7773
 5313TIP3    H237355   2.875   0.199   2.643 -0.8286  1.1854  0.7021
 5314TIP3   OH237356   6.102   2.222  12.671 -0.4607 -0.0092  0.1757
 5314TIP3    H137357   6.144   2.287  12.729  0.9549 -1.1046  0.4274
 5314TIP3    H237358   6.016   2.259  12.653 -0.0715  1.4670  1.1277
 5315TIP3   OH237359   1.693   4.997  15.677  0.6038  0.3988  0.3621
 5315TIP3    H137360   1.670   5.034  15.592 -3.3860  0.9656  1.4661
 5315TIP3    H237361   1.666   4.905  15.672  2.5240 -0.2168  0.3685
 5316TIP3   OH237362   5.236   0.061  15.156  0.2716  0.4951  0.0558
 5316TIP3    H137363   5.257   0.101  15.240 -0.2324 -1.0167  0.9515
 5316TIP3    H237364   5.141   0.067  15.149  0.2491  0.0516 -0.0818
 5317TIP3   OH237365   2.489   3.100   2.163  0.3804  0.1764  0.0400
 5317TIP3    H137366   2.460   3.038   2.230 -1.8418  0.8941 -0.1847
 5317TIP3    H237367   2.467   3.057   2.080 -1.2956  1.2872 -0.1144
 5318TIP3   OH237368   6.021   1.169   3.042  0.0506 -0.5345 -0.9833
 5318TIP3    H137369   6.005   1.088   3.089  0.9792 -0.6071 -0.7592
 5318TIP3    H237370   6.042   1.142   2.953  0.4541 -0.5522 -0.8850
 5319TIP3   OH237371   4.701   3.340  15.809  0.3744 -0.0759  0.6364
 5319TIP3    H137372   4.753   3.372  15.735  1.5532 -1.2662  0.9090
 5319TIP3    H237373   4.663   3.419  15.848  1.3250  0.7514 -0.0715
 5320TIP3   OH237374   3.619   4.026   4.866 -0.0876  0.3290 -0.1515
 5320TIP3    H137375   3.691   4.062   4.917 -0.9352  0.8095  0.7582
 5320TIP3    H237376   3.623   4.071   4.782  2.6793 -2.0279 -1.4693
 5321TIP3   OH237377   0.795   0.746  12.698  0.5758  0.5983 -0.9833
 5321TIP3    H137378   0.821   0.793  12.777  1.4359  1.0860 -1.5400
 5321TIP3    H237379   0.837   0.794  12.627 -1.1462  0.8895 -1.8588
 5322TIP3   OH237380   2.274   0.297   4.303 -0.0897  0.0411  0.0570
 5322TIP3    H137381   2.272   0.228   4.369  2.0443 -0.1114  0.0422
 5322TIP3    H237382   2.264   0.251   4.219 -0.9459  0.0292  0.1575
 5323TIP3   OH237383   5.118   1.761   1.838 -0.1528  1.3560 -0.1906
 5323TIP3    H137384   5.039   1.708   1.827  1.3716 -0.6373 -2.7310
 5323TIP3    H237385   5.183   1.699   1.874  0.2374  3.0501  2.2775
 5324TIP3   OH237386   5.991   4.373  10.920 -0.5179 -0.1505  0.3478
 5324TIP3    H137387   5.977   4.283  10.888  2.5492 -1.0511  1.2703
 5324TIP3    H237388   5.980   4.367  11.015 -0.4377  0.4845  0.4006
 5325TIP3   OH237389   5.952   0.668   2.507  0.0969  0.0844  0.3247
 5325TIP3    H137390   5.904   0.734   2.557  0.8455 -0.2183  1.4701
 5325TIP3    H237391   5.895   0.648   2.433 -0.6746  1.1302  0.6151
 5326TIP3   OH237392   1.459   0.568  11.705 -0.7596 -0.0790 -0.1826
 5326TIP3    H137393   1.437   0.474  11.705 -1.4849  0.0111  2.5939
 5326TIP3    H237394   1.553   0.570  11.686 -0.8464 -1.3035 -0.8829
 5327TIP3   OH237395   5.919   0.228  16.585  0.0137  0.2294 -0.5861
 5327TIP3    H137396   5.839   0.248  16.537  0.3035  0.7402 -0.8629
 5327TIP3    H237397   5.904   0.263  16.673 -0.5435 -0.7688 -0.2694
 5328TIP3   OH237398   4.333   1.418   5.825  0.4143  0.2541 -0.4013
 5328TIP3    H137399   4.396   1.384   5.889 -0.3746 -2.5079 -0.9821
 5328TIP3    H237400   4.376   1.407   5.741  0.6450  2.0312 -0.5663
 5329TIP3   OH237401   0.979   2.260   3.758 -0.3913  0.5639  0.1565
 5329TIP3    H137402   1.007   2.225   3.842 -1.2846 -0.2887  0.1277
 5329TIP3    H237403   1.033   2.337   3.744 -1.1870  1.5672  2.1788
 5330TIP3   OH237404   0.018   3.077   2.053  0.4741  0.5631 -0.3116
 5330TIP3    H137405  -0.023   3.114   2.131 -0.5906 -1.4515  0.1545
 5330TIP3    H237406  -0.040   3.005   2.027  2.2053 -0.5447 -1.3555
 5331TIP3   OH237407   3.437   0.412  14.963  0.4452 -0.3917  0.4184
 5331TIP3    H137408   3.371   0.356  15.003 -1.2306  1.2762  0.1266
 5331TIP3    H237409   3.451   0.375  14.876 -0.0843 -0.7977  0.5043
 5332TIP3   OH237410   6.667   5.955   4.831 -0.2490  0.0787  0.3473
 5332TIP3    H137411   6.685   5.909   4.913 -2.6737 -0.3269  0.7295
 5332TIP3    H237412   6.571   5.958   4.825 -0.1670  0.0603 -2.4980
 5333TIP3   OH237413   5.053   4.363   4.779  0.4781 -0.3004 -0.0529
 5333TIP3    H137414   4.986   4.431   4.776 -1.2308 -1.8586  0.7151
 5333TIP3    H237415   5.059   4.331   4.689 -1.6981 -1.8241  0.2797
 5334TIP3   OH237416   3.841   3.209  15.556 -0.1357 -0.7625  0.5941
 5334TIP3    H137417   3.782   3.241  15.624 -0.9656  1.7782 -1.1633
 5334TIP3    H237418   3.785   3.200  15.479  0.8615 -3.1101  0.0570
 5335TIP3   OH237419   2.448   3.742   4.881  0.3351  0.3323  0.4184
 5335TIP3    H137420   2.378   3.685   4.848  1.1691 -0.2373 -0.4212
 5335TIP3    H237421   2.489   3.691   4.951 -0.3890  0.8716  1.2551
 5336TIP3   OH237422   4.651   1.012   1.619 -0.1994  0.0098 -0.3015
 5336TIP3    H137423   4.646   1.087   1.560  2.1598  0.8722  0.5052
 5336TIP3    H237424   4.583   1.029   1.684  0.1897  1.3952 -0.2235
 5337TIP3   OH237425   5.124   5.769   3.810  0.2878  0.1827  0.3385
 5337TIP3    H137426   5.146   5.830   3.740  1.7458 -1.7007 -0.9727
 5337TIP3    H237427   5.125   5.683   3.767 -3.1644 -0.7030  1.7535
 5338TIP3   OH237428   1.569   6.212   2.265  0.5005  1.0063  0.3919
 5338TIP3    H137429   1.598   6.284   2.209  1.9306 -0.6011 -1.0624
 5338TIP3    H237430   1.474   6.206   2.249  0.9235  0.2091 -2.4928
 5339TIP3   OH237431   3.179   2.038   2.724  0.0986 -0.7718  0.3033
 5339TIP3    H137432   3.213   2.019   2.812  2.3312 -1.0948 -0.5645
 5339TIP3    H237433   3.232   1.983   2.666  0.1978  1.0514 -1.4243
 5340TIP3   OH237434   0.936   6.227   6.677  0.0294 -0.1698 -0.7315
 5340TIP3    H137435   1.027   6.199   6.665  0.5803  1.4804 -0.5980
 5340TIP3    H237436   0.940   6.295   6.744 -1.6370 -1.6784  1.0337
 5341TIP3   OH237437   0.034   1.866  14.002  0.0983  0.1639  0.2272
 5341TIP3    H137438   0.024   1.881  14.096  0.2054 -0.0280  0.2688
 5341TIP3    H237439   0.124   1.892  13.984 -0.0351  0.5442  0.1108
 5342TIP3   OH237440   6.343   1.953   1.476 -0.1257 -0.7555  0.1572
 5342TIP3    H137441   6.420   2.009   1.484 -1.2307  0.8652 -0.2092
 5342TIP3    H237442   6.315   1.964   1.385 -1.4303 -0.4384  0.5785
 5343TIP3   OH237443   0.231   6.342  17.051  0.1619  0.6427 -0.0694
 5343TIP3    H137444   0.176   6.304  16.983  1.4606 -0.0918 -0.7486
 5343TIP3    H237445   0.171   6.392  17.105 -0.9603  1.0146 -1.5881
 5344TIP3   OH237446   5.399   4.605  12.493 -0.0192 -0.2814 -0.1197
 5344TIP3    H137447   5.310   4.587  12.462  0.7330 -0.4819 -2.3920
 5344TIP3    H237448   5.419   4.693  12.462  1.2147 -0.9580 -1.4111
 5345TIP3   OH237449   0.163   1.128   3.130  0.5665 -0.1024  0.2948
 5345TIP3    H137450   0.074   1.094   3.128  0.9186 -1.0245 -0.4314
 5345TIP3    H237451   0.200   1.092   3.211  1.4465 -2.9296 -1.2190
 5346TIP3   OH237452   2.818   2.008   2.828 -0.0338 -0.0787  0.0141
 5346TIP3    H137453   2.727   1.991   2.805 -0.2073  1.2375 -0.3396
 5346TIP3    H237454   2.815   2.076   2.895  0.6386 -1.3236  1.3695
 5347TIP3   OH237455   1.485   1.169  16.570  0.3089 -1.0218  0.2310
 5347TIP3    H137456   1.392   1.191  16.568  0.4395 -0.5096 -0.2671
 5347TIP3    H237457   1.488   1.085  16.617 -0.2328 -0.2045  1.8182
 5348TIP3   OH237458   2.186   0.676   2.218 -1.0866  0.4054 -0.3674
 5348TIP3    H137459   2.174   0.673   2.123  1.1192 -1.7599 -0.6522
 5348TIP3    H237460   2.256   0.740   2.231 -1.1441  0.4387 -0.2264
 5349TIP3   OH237461   2.742   3.251  11.582 -0.1055 -0.1240 -0.9339
 5349TIP3    H137462   2.804   3.308  11.627 -0.5945 -0.1750 -0.1787
 5349TIP3    H237463   2.796   3.200  11.521  0.2954  1.4012 -1.9184
 5350TIP3   OH237464   4.441   3.774  16.664 -0.0905  0.3223  0.3821
 5350TIP3    H137465   4.461   3.867  16.677 -1.3587  0.2307  4.0580
 5350TIP3    H237466   4.346   3.770  16.662 -0.0532 -0.7628 -1.8982
 5351TIP3   OH237467   3.795   5.464  11.703 -0.1714 -0.7458 -0.1691
 5351TIP3    H137468   3.884   5.444  11.673  0.2228  0.1817  0.3586
 5351TIP3    H237469   3.774   5.394  11.765  0.1556 -1.0126 -0.3598
 5352TIP3   OH237470   0.611   5.111  11.405 -0.0606  0.2176  0.1738
 5352TIP3    H137471   0.706   5.098  11.402  0.1475  1.6744 -0.3424
 5352TIP3    H237472   0.575   5.037  11.357  0.6782 -1.3298  1.8671
 5353TIP3   OH237473   3.005   3.798   3.237  0.1544 -0.0849  0.1223
 5353TIP3    H137474   2.969   3.886   3.239  1.3006  0.3894  1.4348
 5353TIP3    H237475   2.928   3.740   3.244 -0.7460  0.7138 -2.2617
 5354TIP3   OH237476   1.614   3.028   5.159 -0.3266 -0.6885  0.2488
 5354TIP3    H137477   1.557   2.969   5.110  0.1469 -0.9191 -0.0280
 5354TIP3    H237478   1.663   2.971   5.218 -1.3330 -0.3608  1.4674
 5355TIP3   OH237479   4.752   0.836   3.177  0.4237  0.1593 -0.5243
 5355TIP3    H137480   4.752   0.743   3.155  0.2841  0.3092 -1.1859
 5355TIP3    H237481   4.825   0.873   3.127  0.5003  0.3977 -0.2376
 5356TIP3   OH237482   2.702   6.117  11.911  0.2031  0.3787  0.0148
 5356TIP3    H137483   2.699   6.056  11.985 -0.0529  0.5110  0.1155
 5356TIP3    H237484   2.724   6.062  11.836  2.3134  0.5083  0.4664
 5357TIP3   OH237485   1.941   2.520  16.789  0.2421 -0.2889  0.2871
 5357TIP3    H137486   1.908   2.461  16.857  0.2585 -0.7085 -0.0694
 5357TIP3    H237487   1.895   2.603  16.805  1.3420  0.0884  1.7464
 5358TIP3   OH237488   6.306   5.238  14.437 -0.3300 -0.4827  0.2969
 5358TIP3    H137489   6.343   5.327  14.444 -0.7592 -0.2939  0.1973
 5358TIP3    H237490   6.382   5.180  14.448 -0.0119 -0.1019  0.1518
 5359TIP3   OH237491   4.667   6.291  11.084  0.3720  0.2291  0.3950
 5359TIP3    H137492   4.630   6.374  11.054 -1.4885 -0.8435 -0.4456
 5359TIP3    H237493   4.697   6.248  11.003  0.8794 -0.1324  0.7683
 5360TIP3   OH237494   5.716   2.714  13.942 -0.6255  0.2719 -0.2652
 5360TIP3    H137495   5.727   2.695  14.035 -2.0459  0.6593  0.0085
 5360TIP3    H237496   5.707   2.809  13.937  0.6776  0.3798 -0.9550
 5361TIP3   OH237497   1.886   2.688   0.574  0.4532 -0.3863 -0.0334
 5361TIP3    H137498   1.808   2.708   0.523  1.0566  1.7290 -0.2211
 5361TIP3    H237499   1.882   2.747   0.650  1.0351 -1.4347  0.8523
 5362TIP3   OH237500   1.566   1.977  16.159 -0.0579  0.0171  0.4622
 5362TIP3    H137501   1.563   1.991  16.254 -1.9228  0.5576  0.3531
 5362TIP3    H237502   1.495   2.031  16.124  0.3878 -0.4222 -1.2259
 5363TIP3   OH237503   4.798   2.438  12.891 -0.1658 -0.3736  0.4332
 5363TIP3    H137504   4.891   2.424  12.911 -0.3779 -0.2553  1.5920
 5363TIP3    H237505   4.785   2.398  12.805  1.1296  0.2988 -0.0967
 5364TIP3   OH237506   4.868   6.657  11.564  0.3876 -0.2197 -0.0789
 5364TIP3    H137507   4.887   6.720  11.494 -2.5347 -1.0883 -1.8504
 5364TIP3    H237508   4.819   6.707  11.629  1.4750  0.1704  0.4569
 5365TIP3   OH237509   1.392   6.414  16.507  0.3568 -0.3929 -0.1634
 5365TIP3    H137510   1.464   6.383  16.452 -0.4239 -1.3309 -0.6875
 5365TIP3    H237511   1.328   6.448  16.444 -0.4029 -1.1770  0.1772
 5366TIP3   OH237512   0.852   5.195  12.504  0.0771  0.1382  0.3363
 5366TIP3    H137513   0.924   5.149  12.462 -0.5611  0.0421 -0.6774
 5366TIP3    H237514   0.869   5.287  12.487  0.8186  0.2415  1.5097
 5367TIP3   OH237515   1.626   2.687   4.225  0.3305 -0.7231 -0.3430
 5367TIP3    H137516   1.584   2.609   4.187  0.3629 -0.6830 -0.4609
 5367TIP3    H237517   1.606   2.757   4.163 -1.1851 -0.2552  0.6267
 5368TIP3   OH237518   5.837   5.146  10.492  0.2777 -0.1127  0.3007
 5368TIP3    H137519   5.851   5.240  10.492  0.6427 -0.1619 -0.1898
 5368TIP3    H237520   5.804   5.126  10.580 -0.0189  0.4976  0.3313
 5369TIP3   OH237521   6.496   6.422  15.045 -0.2745 -0.1749 -0.2298
 5369TIP3    H137522   6.574   6.467  15.011 -1.2154  1.5076 -0.2557
 5369TIP3    H237523   6.466   6.477  15.117 -0.1140 -2.0616  1.3546
 5370TIP3   OH237524   3.390   4.086  11.907  0.0097 -0.0100  0.0817
 5370TIP3    H137525   3.464   4.105  11.964 -0.0776 -0.3088  0.2955
 5370TIP3    H237526   3.316   4.129  11.949 -0.3683 -1.5455  1.0518
 5371TIP3   OH237527   5.278   4.325   4.929  0.7020 -0.3199  0.4520
 5371TIP3    H137528   5.216   4.338   4.857  1.5830  1.1188 -0.0965
 5371TIP3    H237529   5.229   4.274   4.994 -1.1346  0.9165  0.1274
 5372TIP3   OH237530   4.615   4.341   4.791 -0.1687  0.7244 -0.0129
 5372TIP3    H137531   4.624   4.267   4.852 -0.5192  0.1831 -0.6119
 5372TIP3    H237532   4.528   4.329   4.753  0.0871  1.0151 -0.6852
 5373TIP3   OH237533   4.622   5.458  13.042  0.1231  0.0365 -0.7279
 5373TIP3    H137534   4.567   5.516  13.094 -0.6183 -0.6764 -0.6828
 5373TIP3    H237535   4.673   5.516  12.985  0.1609  0.7651  0.0376
 5374TIP3   OH237536   4.758   5.040  11.713 -0.5667  0.1431 -0.4640
 5374TIP3    H137537   4.712   5.123  11.718 -0.0947  0.3488  0.8431
 5374TIP3    H237538   4.729   4.992  11.791 -0.4659 -0.7305 -0.9469
 5375TIP3   OH237539   5.494   6.684  14.809 -0.1638  0.6709  0.4899
 5375TIP3    H137540   5.563   6.628  14.772 -0.0499  1.6212 -0.7801
 5375TIP3    H237541   5.417   6.627  14.813 -0.2769  0.6160 -1.5680
 5376TIP3   OH237542   1.742   2.565   2.020  0.4415 -0.1972  0.6256
 5376TIP3    H137543   1.751   2.657   2.044  0.0055 -0.4575  1.8518
 5376TIP3    H237544   1.729   2.519   2.103 -2.4158 -0.9858 -0.1170
 5377TIP3   OH237545   3.817   0.205  15.503 -0.0296  0.3334 -0.3952
 5377TIP3    H137546   3.911   0.190  15.492 -0.0185 -0.8225  0.8956
 5377TIP3    H237547   3.777   0.164  15.427  0.5723  2.5768 -2.0144
 5378TIP3   OH237548   2.805   2.417  14.305  0.2019  0.2219 -0.1541
 5378TIP3    H137549   2.832   2.384  14.391 -2.4133  1.4883  1.2816
 5378TIP3    H237550   2.802   2.340  14.249  0.1208 -0.9631  1.4090
 5379TIP3   OH237551   0.108   3.608  10.674 -0.5625 -0.0046 -0.1583
 5379TIP3    H137552   0.065   3.525  10.654 -1.9926  0.4947  0.6635
 5379TIP3    H237553   0.061   3.672  10.621  0.3653  0.3231 -0.5984
 5380TIP3   OH237554   2.428   6.407  16.753 -0.5524  0.3762 -0.6749
 5380TIP3    H137555   2.468   6.370  16.831 -2.6608 -2.0076 -0.5977
 5380TIP3    H237556   2.433   6.502  16.765 -0.9595  0.0871  2.4512
 5381TIP3   OH237557   6.066   3.845   2.344 -0.2250 -0.0540 -0.2928
 5381TIP3    H137558   6.079   3.767   2.398  0.0346 -0.6367 -1.1739
 5381TIP3    H237559   5.991   3.889   2.384  1.8577  1.2902  2.5175
 5382TIP3   OH237560   2.894   0.560   3.489 -0.0458  0.5616  0.2829
 5382TIP3    H137561   2.968   0.620   3.502  1.4608 -1.2787  0.6346
 5382TIP3    H237562   2.848   0.595   3.413  1.4837  1.4901 -0.2563
 5383TIP3   OH237563   4.646   5.583   3.719  0.0990 -0.0854 -0.4393
 5383TIP3    H137564   4.623   5.569   3.627 -1.0366  0.0531 -0.1934
 5383TIP3    H237565   4.645   5.678   3.730 -0.9788 -0.1380 -0.0033
 5384TIP3   OH237566   3.281   1.050  12.391 -0.0159 -0.0685 -0.0357
 5384TIP3    H137567   3.262   0.959  12.412 -1.0003  0.2274  0.3798
 5384TIP3    H237568   3.280   1.095  12.476  1.5048  0.1657 -0.1022
 5385TIP3   OH237569   0.945   3.037  14.278  0.7791  1.0462 -0.1756
 5385TIP3    H137570   0.940   3.068  14.187  2.6069 -2.0459 -1.4967
 5385TIP3    H237571   0.859   2.998  14.294  0.6678  0.9847 -0.8674
 5386TIP3   OH237572   0.136   4.789  12.922 -0.4394  0.5597  0.0253
 5386TIP3    H137573   0.134   4.757  12.832  0.1357  2.0452 -0.5482
 5386TIP3    H237574   0.201   4.734  12.965  1.0919  1.3803 -1.1292
 5387TIP3   OH237575   3.231   0.804  11.255 -0.1782  0.8058  0.6351
 5387TIP3    H137576   3.324   0.798  11.232  0.0595 -0.0218  1.7018
 5387TIP3    H237577   3.213   0.722  11.302 -1.6022  0.6896 -0.0437
 5388TIP3   OH237578   1.267   0.744   2.484 -0.1499  0.0267  0.2318
 5388TIP3    H137579   1.234   0.679   2.423  1.6109  0.8497 -1.7251
 5388TIP3    H237580   1.269   0.825   2.433  1.0519  0.8298  1.4940
 5389TIP3   OH237581   0.312   3.514   5.712 -0.1674 -0.2833  0.2246
 5389TIP3    H137582   0.299   3.433   5.761  1.8033 -0.1541  1.0814
 5389TIP3    H237583   0.286   3.493   5.623 -2.6332 -0.9047  1.0164
 5390TIP3   OH237584   0.887   1.443  16.050  0.4724 -0.6468  1.0780
 5390TIP3    H137585   0.811   1.436  16.107  0.6842  1.2043  1.6603
 5390TIP3    H237586   0.882   1.532  16.013  0.8592 -1.4505 -1.0718
 5391TIP3   OH237587   5.693   1.356   5.643 -0.4338 -0.0786 -0.4378
 5391TIP3    H137588   5.643   1.380   5.565 -1.5917 -2.2383 -0.4150
 5391TIP3    H237589   5.631   1.311   5.699  0.6418  0.5272  1.3239
 5392TIP3   OH237590   5.637   5.057   2.649 -0.0875  0.7311  0.1389
 5392TIP3    H137591   5.635   5.150   2.672  1.8559  0.7015  0.6211
 5392TIP3    H237592   5.728   5.040   2.628 -0.5303 -0.9424 -0.5603
 5393TIP3   OH237593   2.113   0.646   2.981 -0.4180  0.5750 -0.2841
 5393TIP3    H137594   2.178   0.697   2.933  2.5985 -1.4791  1.2935
 5393TIP3    H237595   2.108   0.564   2.934  1.4647 -0.8899  1.8192
 5394TIP3   OH237596   4.654   5.081   3.536  0.3745  0.3698 -0.1950
 5394TIP3    H137597   4.685   5.170   3.553 -0.8050  1.0128 -1.2224
 5394TIP3    H237598   4.605   5.087   3.454  2.6210 -1.8180 -1.8402
 5395TIP3   OH237599   5.277   2.671  16.033  0.2444 -0.1693 -0.3068
 5395TIP3    H137600   5.187   2.695  16.057  0.0085 -1.3570  0.0525
 5395TIP3    H237601   5.332   2.728  16.087 -0.2952 -0.5781  0.7055
 5396TIP3   OH237602   5.195   0.123  13.596  0.1337 -0.3145  0.9999
 5396TIP3    H137603   5.138   0.110  13.520 -1.2896 -0.5130  2.0637
 5396TIP3    H237604   5.226   0.213  13.588  0.6856 -0.5903 -0.2369
 5397TIP3   OH237605   2.733   0.491  13.432 -0.2901  0.4609 -0.1919
 5397TIP3    H137606   2.733   0.419  13.494 -2.3878  1.6794  1.3594
 5397TIP3    H237607   2.801   0.469  13.369  1.6125 -1.0976  2.2389
 5398TIP3   OH237608   6.389   1.196   3.495  0.4499  0.2816  0.6888
 5398TIP3    H137609   6.426   1.283   3.508 -0.1216  0.3998  1.6219
 5398TIP3    H237610   6.314   1.193   3.554 -1.2673  0.1943 -1.3450
 5399TIP3   OH237611   0.433   5.105   4.559 -0.6605  0.1330 -0.0588
 5399TIP3    H137612   0.502   5.169   4.576 -1.5590  0.5726  2.3450
 5399TIP3    H237613   0.448   5.077   4.469  2.8364 -0.0530  0.4518
 5400TIP3   OH237614   5.584   0.144  14.133 -0.3009 -0.2137  0.3116
 5400TIP3    H137615   5.558   0.225  14.176 -1.4305 -0.0243 -0.6509
 5400TIP3    H237616   5.540   0.075  14.184  0.1491 -0.1765  0.7557
 5401TIP3   OH237617   5.491   2.594   2.373 -0.7494  0.0184 -0.3860
 5401TIP3    H137618   5.422   2.656   2.395 -1.4115 -1.3268  1.6550
 5401TIP3    H237619   5.518   2.618   2.284 -1.5357  2.6458  0.0163
 5402TIP3   OH237620   3.944   1.311   2.876  0.1016 -0.5124 -0.5814
 5402TIP3    H137621   3.950   1.368   2.952 -0.4904  0.3993 -1.1894
 5402TIP3    H237622   3.943   1.223   2.911 -3.0720 -0.0734  0.6982
 5403TIP3   OH237623   3.133   0.247   0.993  0.0431 -0.0680 -0.0803
 5403TIP3    H137624   3.189   0.253   1.070  2.7037 -0.4939 -1.8374
 5403TIP3    H237625   3.100   0.336   0.981  2.1092  0.7612 -0.1392
 5404TIP3   OH237626   3.315   6.394  12.128  0.0210 -0.0504  0.0363
 5404TIP3    H137627   3.277   6.457  12.189 -1.8774 -1.8839  0.8663
 5404TIP3    H237628   3.380   6.346  12.181 -0.6335 -0.7115  0.2587
 5405TIP3   OH237629   0.447   4.682   1.565  0.1002 -0.2777 -0.1075
 5405TIP3    H137630   0.389   4.615   1.601  0.6340 -0.3437  0.6525
 5405TIP3    H237631   0.423   4.687   1.472 -0.6874 -0.7391  0.0631
 5406TIP3   OH237632   3.879   3.879  15.490  0.6596 -0.7977 -0.0168
 5406TIP3    H137633   3.899   3.917  15.405  0.5338  0.3048  0.4329
 5406TIP3    H237634   3.904   3.946  15.553 -2.9395  0.1122  0.6772
 5407TIP3   OH237635   4.442   0.521  16.806 -0.2608 -0.1334 -0.5093
 5407TIP3    H137636   4.532   0.490  16.813 -0.0602  0.2945 -1.1332
 5407TIP3    H237637   4.407   0.513  16.895  0.5309  0.1199 -0.1674
 5408TIP3   OH237638   2.489   0.046  15.483  0.5235  0.1823 -0.0427
 5408TIP3    H137639   2.413  -0.011  15.474  1.3096 -0.8134 -0.6482
 5408TIP3    H237640   2.507   0.076  15.394  1.9409 -1.1192 -0.2506
 5409TIP3   OH237641   2.511   6.702  16.884 -0.2536 -0.3898 -0.0384
 5409TIP3    H137642   2.603   6.724  16.874 -0.1269 -1.5541 -1.8057
 5409TIP3    H237643   2.498   6.694  16.979  0.6403  2.9411  0.4811
 5410TIP3   OH237644   3.275   4.804   6.740  0.2847 -0.6884 -0.4635
 5410TIP3    H137645   3.365   4.777   6.755  0.2613 -0.3866  0.2471
 5410TIP3    H237646   3.278   4.900   6.741 -0.4694 -0.6046  2.4603
 5411TIP3   OH237647   4.705   0.718   2.259 -0.3777  0.0070 -0.1338
 5411TIP3    H137648   4.764   0.793   2.258  0.2975 -0.5159 -0.1245
 5411TIP3    H237649   4.671   0.712   2.170  0.4459 -0.3510 -0.4377
 5412TIP3   OH237650   2.187   3.717   3.710  0.1628 -0.4926  0.3372
 5412TIP3    H137651   2.101   3.746   3.678  0.6499  0.5140 -0.0867
 5412TIP3    H237652   2.222   3.665   3.638 -0.2771 -1.3037  0.6948
 5413TIP3   OH237653   0.056   3.851   1.644  0.0413 -0.2160  0.3725
 5413TIP3    H137654   0.085   3.763   1.620  0.2628 -0.0175 -0.1015
 5413TIP3    H237655  -0.039   3.847   1.642 -0.0125 -0.9060  2.0381
 5414TIP3   OH237656   3.305   3.025  11.704 -0.5529  0.2440 -0.3768
 5414TIP3    H137657   3.270   3.114  11.700 -1.7771 -0.1695  0.5288
 5414TIP3    H237658   3.399   3.036  11.690 -0.6854  1.6660 -0.3601
 5415TIP3   OH237659   1.255   3.047   1.711  0.1175  0.4809  0.1742
 5415TIP3    H137660   1.337   3.064   1.666 -0.1247  1.1669 -0.0256
 5415TIP3    H237661   1.226   3.133   1.741 -0.4459  0.2245  0.3833
 5416TIP3   OH237662   0.517   4.900  12.242 -0.3374  0.8525 -0.5144
 5416TIP3    H137663   0.496   4.828  12.183  1.4223 -2.6842  2.7463
 5416TIP3    H237664   0.573   4.958  12.190  0.0504 -1.3343 -2.7135
 5417TIP3   OH237665   1.909   5.002   1.957  0.1738 -0.5637 -0.1049
 5417TIP3    H137666   1.966   4.997   1.880  0.8361  0.6620  0.2747
 5417TIP3    H237667   1.954   5.062   2.016 -0.2457 -1.6114  1.3247
 5418TIP3   OH237668   2.593   0.756   1.329 -0.2297  0.3440 -0.6573
 5418TIP3    H137669   2.510   0.716   1.305  0.0206 -0.7290  0.1859
 5418TIP3    H237670   2.574   0.850   1.334 -1.1821  0.1948 -1.2746
 5419TIP3   OH237671   5.358   4.327   2.978 -0.1534  0.6179  0.3312
 5419TIP3    H137672   5.432   4.303   2.921 -0.5905 -0.5527  0.2101
 5419TIP3    H237673   5.354   4.422   2.974  0.3325  0.6095 -0.9759
 5420TIP3   OH237674   5.891   6.062  11.678 -0.6017  0.4566 -0.0209
 5420TIP3    H137675   5.936   6.077  11.762 -0.0677  0.2430 -0.2620
 5420TIP3    H237676   5.815   6.120  11.681 -0.0269  1.2102  0.1795
 5421TIP3   OH237677   4.164   4.968  16.853  0.2629  0.0864  0.4895
 5421TIP3    H137678   4.093   4.936  16.797  1.0128 -0.2300 -0.3004
 5421TIP3    H237679   4.143   4.933  16.940 -0.3504 -0.3079  0.1919
 5422TIP3   OH237680   6.167   0.472   2.868 -0.3385 -0.5215 -0.4424
 5422TIP3    H137681   6.241   0.418   2.896  0.0974 -0.0893 -0.7417
 5422TIP3    H237682   6.092   0.435   2.914 -0.1729 -1.8165 -1.1416
 5423TIP3   OH237683   0.115   1.548   3.581  0.2260  0.0198  0.4282
 5423TIP3    H137684   0.116   1.566   3.487 -1.5035 -1.6639  0.0433
 5423TIP3    H237685   0.207   1.535   3.604  0.6521  0.2434 -1.0632
 5424TIP3   OH237686   4.387   0.341  15.214 -0.2803  0.1691  0.4746
 5424TIP3    H137687   4.428   0.284  15.279 -0.8818 -1.3721 -0.4415
 5424TIP3    H237688   4.293   0.321  15.221 -0.5056  1.0534  0.1231
 5425TIP3   OH237689   5.469   2.048  16.529  0.5494  0.2521  0.6324
 5425TIP3    H137690   5.392   2.102  16.513  1.2172  1.1602  0.4103
 5425TIP3    H237691   5.450   1.965  16.485 -0.4097  0.3589  0.8206
 5426TIP3   OH237692   5.909   5.981  16.376  0.0681  0.8696 -0.2806
 5426TIP3    H137693   5.986   6.007  16.325  0.5009 -0.9302 -0.6196
 5426TIP3    H237694   5.936   5.902  16.422 -0.4790  2.1580  2.4272
 5427TIP3   OH237695   3.961   0.346   2.112 -0.0785  0.0733 -0.4172
 5427TIP3    H137696   3.976   0.437   2.140 -1.1415  0.2092 -0.2707
 5427TIP3    H237697   4.049   0.312   2.097  0.4197  0.6888  0.9077
 5428TIP3   OH237698   3.197   2.212  12.986  0.2937  0.1851  0.1674
 5428TIP3    H137699   3.167   2.285  13.041  0.5529  1.8107 -1.7323
 5428TIP3    H237700   3.292   2.218  12.988  0.3142 -0.0679 -0.0489
 5429TIP3   OH237701   2.635   5.117  13.606  0.3211  0.3845  0.7438
 5429TIP3    H137702   2.672   5.172  13.537 -0.1306  0.2943  0.4270
 5429TIP3    H237703   2.644   5.028  13.573  0.7942  0.2797  1.1336
 5430TIP3   OH237704   4.487   1.507   0.153 -0.5750 -0.1522  0.1227
 5430TIP3    H137705   4.411   1.451   0.167 -1.0333  0.3982 -0.1087
 5430TIP3    H237706   4.489   1.565   0.228 -1.3011  0.8498 -0.6036
 5431TIP3   OH237707   5.238   5.421  13.603  0.5436 -0.2239 -0.5330
 5431TIP3    H137708   5.207   5.345  13.552 -0.0659 -1.6832  1.8593
 5431TIP3    H237709   5.316   5.389  13.649 -1.3441 -0.4744  2.7963
 5432TIP3   OH237710   5.877   2.216   3.315 -0.0706 -0.1745 -0.1603
 5432TIP3    H137711   5.786   2.223   3.345 -0.4853 -0.1104 -1.3719
 5432TIP3    H237712   5.910   2.306   3.317  0.4083 -0.3674  1.5536
 5433TIP3   OH237713   5.339   3.075  12.878 -0.0597  0.6043 -0.0779
 5433TIP3    H137714   5.401   3.095  12.807  0.2011  0.0682 -0.0064
 5433TIP3    H237715   5.385   3.010  12.932 -0.7810  0.0084 -0.1684
 5434TIP3   OH237716   0.140   3.247   1.872 -0.2563  0.1459 -0.5466
 5434TIP3    H137717   0.103   3.205   1.949 -0.6454  0.6500 -0.4625
 5434TIP3    H237718   0.204   3.183   1.840 -0.5262 -0.3273 -0.1644
 5435TIP3   OH237719   4.756   0.726   0.149  0.1961 -0.2222  0.3611
 5435TIP3    H137720   4.748   0.674   0.069 -0.8375  3.4708 -2.2211
 5435TIP3    H237721   4.666   0.738   0.180  0.2175  1.1267  0.0004
 5436TIP3   OH237722   2.203   0.720  10.421 -0.1884  0.5593 -0.2695
 5436TIP3    H137723   2.198   0.787  10.489  0.7189 -0.4779  0.8580
 5436TIP3    H237724   2.293   0.727  10.387 -0.4941  0.7640 -1.0660
 5437TIP3   OH237725   5.373   6.303   5.055  0.4412  0.7425  0.1063
 5437TIP3    H137726   5.337   6.352   5.129  3.0159 -0.7254  2.4950
 5437TIP3    H237727   5.298   6.254   5.020 -0.8125  1.2953  1.8823
 5438TIP3   OH237728   0.286   2.628   0.685 -0.4698 -0.0009 -0.3932
 5438TIP3    H137729   0.326   2.588   0.608  0.6679  0.1059  0.1212
 5438TIP3    H237730   0.360   2.655   0.739 -1.2140 -1.5293  1.5118
 5439TIP3   OH237731   0.190   1.233  15.330 -0.5507 -0.5603  0.1520
 5439TIP3    H137732   0.255   1.202  15.394 -0.7940  2.4790  2.0708
 5439TIP3    H237733   0.241   1.286  15.268 -0.6660 -1.5200 -0.7844
 5440TIP3   OH237734   0.533   0.834   0.073  0.2783 -0.6128  0.1739
 5440TIP3    H137735   0.622   0.859   0.097 -1.2262  2.6254  3.2431
 5440TIP3    H237736   0.505   0.901   0.012 -0.7336 -0.3198  0.9428
 5441TIP3   OH237737   1.460   2.415   0.351  0.3065 -0.0158  0.3057
 5441TIP3    H137738   1.554   2.395   0.349 -0.0530 -1.8874 -0.4614
 5441TIP3    H237739   1.421   2.339   0.394 -1.0350 -0.2898 -1.2998
 5442TIP3   OH237740   1.510   1.167  16.156 -0.0093  0.1658 -0.1461
 5442TIP3    H137741   1.455   1.096  16.190 -0.3911  0.8469  0.6786
 5442TIP3    H237742   1.586   1.123  16.118  0.4991 -0.6118  1.7099
 5443TIP3   OH237743   0.100   3.991  16.004  0.3347  0.0833  0.2336
 5443TIP3    H137744   0.188   3.971  15.970  0.8545  0.1701  1.4662
 5443TIP3    H237745   0.066   3.906  16.032 -0.4159 -0.1087 -1.1930
 5444TIP3   OH237746   4.721   6.276  14.349 -0.0662 -0.2711 -0.0362
 5444TIP3    H137747   4.814   6.278  14.369  0.0785  2.1781 -0.5990
 5444TIP3    H237748   4.680   6.236  14.426  1.4169 -1.5264  0.1520
 5445TIP3   OH237749   4.880   4.454  14.976  0.1954  0.1541 -0.1976
 5445TIP3    H137750   4.868   4.500  15.059  2.2548 -0.9575  0.7991
 5445TIP3    H237751   4.966   4.481  14.945 -0.3357  0.1651 -1.7418
 5446TIP3   OH237752   3.038   5.348  15.598 -0.0432 -0.0840  0.5418
 5446TIP3    H137753   3.001   5.432  15.627  1.2329  0.3076  1.0687
 5446TIP3    H237754   2.962   5.289  15.597 -0.6202  0.5694  2.0803
 5447TIP3   OH237755   5.935   3.206  12.727 -0.4260 -0.0693  0.1032
 5447TIP3    H137756   5.840   3.214  12.728 -0.3096  2.8260 -1.2084
 5447TIP3    H237757   5.956   3.161  12.809 -2.8398  0.3302  1.0385
 5448TIP3   OH237758   0.535   5.494   4.370 -1.0044 -0.1750 -0.2201
 5448TIP3    H137759   0.617   5.530   4.403 -1.9643  1.8519  0.1202
 5448TIP3    H237760   0.547   5.400   4.374  0.6383  0.0384  1.5496
 5449TIP3   OH237761   6.558   3.891   5.948  0.4764  0.6201 -0.2015
 5449TIP3    H137762   6.557   3.846   6.033 -3.1972 -1.4646 -1.1011
 5449TIP3    H237763   6.629   3.849   5.899 -0.4541 -1.6372  0.2840
 5450TIP3   OH237764   4.242   5.718  12.194  0.1519 -0.1530 -0.1199
 5450TIP3    H137765   4.324   5.669  12.200 -0.9281 -1.9389  1.1099
 5450TIP3    H237766   4.203   5.688  12.112 -0.3435 -1.1645  0.4593
 5451TIP3   OH237767   3.161   6.050  11.090 -0.4696 -0.4700 -0.1673
 5451TIP3    H137768   3.131   5.962  11.068  0.5138 -0.7581 -0.4347
 5451TIP3    H237769   3.225   6.071  11.022 -0.0344  0.0881  0.4021
 5452TIP3   OH237770   6.769   3.367  15.527 -0.2351 -0.6774  0.2823
 5452TIP3    H137771   6.741   3.276  15.536 -2.7209 -0.1386 -1.1427
 5452TIP3    H237772   6.699   3.409  15.476  1.1426  1.8900  0.3438
 5453TIP3   OH237773   6.675   2.423   6.156  0.8104 -0.4831  0.2099
 5453TIP3    H137774   6.724   2.470   6.223  1.6331 -0.1736 -0.5939
 5453TIP3    H237775   6.670   2.333   6.189 -0.6973  0.0966  1.7116
 5454TIP3   OH237776   1.179   3.726  14.335  0.3643 -0.3779  0.5396
 5454TIP3    H137777   1.177   3.789  14.407 -0.8648  0.1820  0.0298
 5454TIP3    H237778   1.197   3.642  14.377 -4.2482 -0.8146  2.1200
 5455TIP3   OH237779   4.424   4.041   5.973 -0.2072 -0.0276  0.3054
 5455TIP3    H137780   4.440   4.134   5.960 -0.0633 -0.2221 -1.0256
 5455TIP3    H237781   4.330   4.035   5.989  0.0844  0.5446  2.6765
 5456TIP3   OH237782   0.599   5.430  13.095 -0.5956  0.0942 -0.0419
 5456TIP3    H137783   0.622   5.342  13.125 -0.0998  0.1040 -0.3771
 5456TIP3    H237784   0.575   5.418  13.003  0.1705  0.4126 -0.2911
 5457TIP3   OH237785   0.196   0.702   0.096 -0.3825 -0.3112 -0.0917
 5457TIP3    H137786   0.152   0.629   0.139  0.1178  0.0918  1.1327
 5457TIP3    H237787   0.269   0.723   0.153  0.3373  0.2132 -1.1760
 5458TIP3   OH237788   1.901   5.954  16.821  0.7143  0.2361  0.0106
 5458TIP3    H137789   1.888   6.030  16.766  2.1238 -0.5571 -1.5046
 5458TIP3    H237790   1.867   5.880  16.769  0.6897 -0.3586  0.8414
 5459TIP3   OH237791   0.921   4.565   2.533  0.5663  0.0838 -0.4688
 5459TIP3    H137792   0.961   4.544   2.617  1.9761  2.9044 -0.3207
 5459TIP3    H237793   0.830   4.535   2.541  0.0825  1.9791  2.8860
 5460TIP3   OH237794   5.190   1.925  13.176 -0.1200 -0.2910 -0.1001
 5460TIP3    H137795   5.229   1.959  13.257 -0.5180  1.1141 -0.4800
 5460TIP3    H237796   5.188   2.000  13.117  0.5093 -1.3864 -1.5680
 5461TIP3   OH237797   0.541   1.878   4.114 -0.0552  0.2005 -0.2430
 5461TIP3    H137798   0.615   1.917   4.161  0.9407 -0.8534 -0.8636
 5461TIP3    H237799   0.524   1.938   4.042  0.3244  0.3678 -0.1968
 5462TIP3   OH237800   3.487   5.571   2.668 -0.9671  0.2188 -0.6608
 5462TIP3    H137801   3.573   5.540   2.699 -0.5926 -0.1263 -1.9935
 5462TIP3    H237802   3.435   5.578   2.748  0.2336  0.2364  0.1621
 5463TIP3   OH237803   4.038   4.128  12.377  0.0911 -0.0747  0.0731
 5463TIP3    H137804   3.978   4.089  12.314  2.0835 -1.3716 -1.1465
 5463TIP3    H237805   4.013   4.091  12.461 -0.1808 -1.4088 -0.5646
 5464TIP3   OH237806   5.392   2.095   2.175  0.0936 -0.7720  0.0847
 5464TIP3    H137807   5.320   2.125   2.230 -1.0124 -1.9280 -0.6728
 5464TIP3    H237808   5.470   2.140   2.210 -1.1391  1.4163  0.2016
 5465TIP3   OH237809   1.183   5.404  12.481 -0.4995  0.3723 -0.5664
 5465TIP3    H137810   1.157   5.449  12.561  1.5806  1.2195 -0.2967
 5465TIP3    H237811   1.152   5.461  12.410 -0.7185  0.5805 -0.3057
 5466TIP3   OH237812   4.601   3.517   0.636 -0.0433 -0.2325  0.7988
 5466TIP3    H137813   4.655   3.512   0.715 -1.7359 -0.0196  2.0160
 5466TIP3    H237814   4.554   3.600   0.644 -0.6598 -0.4718 -0.1537
 5467TIP3   OH237815   0.843   2.339  17.083 -0.6109 -0.5576  0.0914
 5467TIP3    H137816   0.891   2.419  17.062  1.0833 -1.4751  0.3033
 5467TIP3    H237817   0.812   2.306  16.999 -1.5123  0.4152  0.0271
 5468TIP3   OH237818   1.852   4.003   2.901 -0.5840 -0.3337  0.7885
 5468TIP3    H137819   1.872   3.917   2.866 -1.4004 -0.6058  0.9703
 5468TIP3    H237820   1.832   4.056   2.824  2.4680  0.4605  0.4003
 5469TIP3   OH237821   5.795   0.995  11.139 -0.4154 -0.5397  0.2636
 5469TIP3    H137822   5.752   1.080  11.151 -0.6003 -0.3569 -1.4293
 5469TIP3    H237823   5.857   1.010  11.067  0.5814 -1.4903  0.8952
 5470TIP3   OH237824   4.648   6.113   0.837  0.2383  0.1286 -0.0388
 5470TIP3    H137825   4.732   6.124   0.794  0.2902 -3.3258 -1.1145
 5470TIP3    H237826   4.666   6.060   0.915 -0.8202 -0.1527  0.0428
 5471TIP3   OH237827   1.098   6.033   4.946  0.9766 -0.7488  0.0680
 5471TIP3    H137828   1.016   5.998   4.913 -0.2348  0.6193  1.4186
 5471TIP3    H237829   1.136   6.082   4.872 -0.0874 -0.3341 -0.2148
 5472TIP3   OH237830   2.731   4.659   3.393 -0.0514  0.4110 -0.2569
 5472TIP3    H137831   2.658   4.606   3.422 -0.1137  0.7672  0.2506
 5472TIP3    H237832   2.790   4.663   3.468  0.7622 -0.3296 -0.8388
 5473TIP3   OH237833   4.699   1.738  11.280 -0.1670  0.0827  0.0607
 5473TIP3    H137834   4.657   1.668  11.331 -0.9806  0.1438 -0.5072
 5473TIP3    H237835   4.771   1.768  11.336 -0.3755 -0.5815  0.7073
 5474TIP3   OH237836   4.686   3.521  14.853  0.1305 -0.5362  0.0914
 5474TIP3    H137837   4.599   3.504  14.888 -0.2350 -0.5503 -0.8113
 5474TIP3    H237838   4.745   3.499  14.925 -0.6291  0.0245  0.9099
 5475TIP3   OH237839   0.054   2.086  12.019  0.1234  0.4154 -0.1249
 5475TIP3    H137840   0.054   2.001  11.975 -2.0268  0.5259 -0.4177
 5475TIP3    H237841  -0.010   2.077  12.090  0.2853  1.6247  0.2052
 5476TIP3   OH237842   0.704   4.008   2.243  0.4873 -0.4112 -0.1638
 5476TIP3    H137843   0.797   4.009   2.265  0.3081  0.8446  0.6342
 5476TIP3    H237844   0.663   4.064   2.309 -0.8981 -1.2501 -0.2683
 5477TIP3   OH237845   6.191   1.736   0.756 -0.2542 -0.3880 -0.1404
 5477TIP3    H137846   6.236   1.698   0.681  0.1254 -2.4846  1.0610
 5477TIP3    H237847   6.099   1.739   0.730 -0.0613 -0.6221 -0.8682
 5478TIP3   OH237848   4.155   2.077   3.195  0.5764  0.6138  0.1215
 5478TIP3    H137849   4.079   2.131   3.175 -0.0281 -0.2154  0.1315
 5478TIP3    H237850   4.226   2.118   3.145  0.6027  2.5561  1.6368
 5479TIP3   OH237851   0.899   2.722   0.556  0.0716 -0.5668  0.6007
 5479TIP3    H137852   0.867   2.636   0.527  1.0863 -0.7426 -0.0317
 5479TIP3    H237853   0.861   2.784   0.494  0.8651 -0.7677 -0.1021
 5480TIP3   OH237854   2.805   5.046   2.018  0.6358 -0.0969  0.1736
 5480TIP3    H137855   2.784   5.045   2.112 -0.2539 -0.6835 -0.0169
 5480TIP3    H237856   2.739   5.105   1.980  1.6229  0.9476  0.0451
 5481TIP3   OH237857   1.836   3.793  15.969  0.3955 -0.2320 -0.3639
 5481TIP3    H137858   1.796   3.756  15.891 -0.7815  0.5910 -0.1734
 5481TIP3    H237859   1.885   3.869  15.937 -1.9289  1.4798 -0.0941
 5482TIP3   OH237860   0.844   5.085  14.840  0.0872 -0.1026  0.6363
 5482TIP3    H137861   0.921   5.135  14.815 -0.3574  0.9134  1.2403
 5482TIP3    H237862   0.822   5.116  14.927 -1.1416 -0.2010  0.3831
 5483TIP3   OH237863   5.005   5.280  16.843  0.3952 -0.2245 -0.4905
 5483TIP3    H137864   5.021   5.366  16.883  0.3238 -1.1965  1.7873
 5483TIP3    H237865   5.091   5.254  16.808  0.3454  0.8770 -1.5144
 5484TIP3   OH237866   5.435   1.254   2.968 -0.1854 -0.3111 -0.1203
 5484TIP3    H137867   5.457   1.339   2.929  1.0654  0.4304  2.0181
 5484TIP3    H237868   5.518   1.209   2.976 -0.8069 -1.6808 -0.9878
 5485TIP3   OH237869   4.095   4.902   3.327  0.4591 -0.1377 -0.6172
 5485TIP3    H137870   3.999   4.905   3.324  0.4407 -1.0703 -1.3033
 5485TIP3    H237871   4.116   4.830   3.386  0.7421  0.1040 -0.4203
 5486TIP3   OH237872   3.619   3.651  15.851 -0.4610  0.0894 -0.2215
 5486TIP3    H137873   3.575   3.728  15.814 -2.4113 -0.9826 -0.2212
 5486TIP3    H237874   3.612   3.584  15.784 -1.4247 -0.9847  0.9232
 5487TIP3   OH237875   6.354   5.724  14.351 -0.1649  0.5046  0.6305
 5487TIP3    H137876   6.416   5.737  14.280  1.3856  1.5016  2.0931
 5487TIP3    H237877   6.281   5.784  14.331 -1.6635 -1.9537 -2.0376
 5488TIP3   OH237878   5.123   5.959   6.274  0.1930  0.5182  0.0729
 5488TIP3    H137879   5.067   5.970   6.351  1.0569  1.0521  0.6436
 5488TIP3    H237880   5.170   6.042   6.266  0.0299  0.5107 -1.1073
 5489TIP3   OH237881   0.156   2.370  13.098  0.4792  0.2866  0.5664
 5489TIP3    H137882   0.223   2.438  13.101 -0.7830  1.5652  0.9244
 5489TIP3    H237883   0.168   2.329  13.012  0.9018  1.3464  0.0940
 5490TIP3   OH237884   4.344   5.999   3.377  0.7381  0.3129  0.1245
 5490TIP3    H137885   4.392   5.918   3.363  0.3192  0.3643 -1.9156
 5490TIP3    H237886   4.388   6.062   3.320 -1.6386  0.3865 -1.7550
 5491TIP3   OH237887   0.984   6.006  15.227  0.8236 -0.6035  0.1879
 5491TIP3    H137888   0.975   5.919  15.187  1.1606  0.1180 -1.5569
 5491TIP3    H237889   1.060   5.998  15.285  1.4891 -1.2366 -0.7295
 5492TIP3   OH237890   2.242   3.006   1.995  0.0346  0.7424 -0.4497
 5492TIP3    H137891   2.197   2.924   1.971  3.3061 -1.4118  0.1591
 5492TIP3    H237892   2.202   3.031   2.079 -0.6929 -0.5530 -0.3758
 5493TIP3   OH237893   6.621   3.768   2.458 -0.0391 -0.1700  0.3322
 5493TIP3    H137894   6.630   3.691   2.514 -0.0311 -0.6896 -0.3635
 5493TIP3    H237895   6.653   3.841   2.511  4.4659 -1.2515 -0.4447
 5494TIP3   OH237896   5.553   0.551   2.151  0.2453  0.1485  0.3405
 5494TIP3    H137897   5.562   0.597   2.234 -1.5453  1.1307  0.0275
 5494TIP3    H237898   5.463   0.520   2.149  0.1834  0.3121 -1.3162
 5495TIP3   OH237899   6.275   4.613  17.111  0.2175  0.0303  0.0317
 5495TIP3    H137900   6.283   4.520  17.092  1.2146  0.0405  0.3523
 5495TIP3    H237901   6.267   4.618  17.206 -1.1282  0.2056 -0.0701
 5496TIP3   OH237902   5.735   2.511  11.919 -0.1237  0.1065  0.4584
 5496TIP3    H137903   5.789   2.581  11.883 -0.4036 -1.4659 -3.4751
 5496TIP3    H237904   5.645   2.533  11.893 -0.0554 -2.3051 -2.3110
 5497TIP3   OH237905   6.684   1.344   5.842  0.1895 -0.1150 -0.1266
 5497TIP3    H137906   6.655   1.253   5.839  1.0888 -0.4007 -1.1618
 5497TIP3    H237907   6.657   1.376   5.928 -1.5712 -0.8573 -0.3566
 5498TIP3   OH237908   5.750   4.798  15.668 -0.3233 -0.4292  0.0412
 5498TIP3    H137909   5.798   4.715  15.661  0.2165 -0.2023  0.9147
 5498TIP3    H237910   5.797   4.857  15.609  0.3094 -0.2853  0.6827
 5499TIP3   OH237911   6.158   0.174   4.073  0.5591  0.4159 -0.5757
 5499TIP3    H137912   6.081   0.201   4.125  0.7889  1.0993 -0.5724
 5499TIP3    H237913   6.154   0.230   3.995 -1.1092 -2.1690 -2.5079
 5500TIP3   OH237914   5.710   1.637   6.412 -0.5107 -0.2052  0.0656
 5500TIP3    H137915   5.790   1.588   6.392 -1.8533 -2.1545 -0.8071
 5500TIP3    H237916   5.740   1.728   6.422  1.7430 -0.8017 -0.5846
 5501TIP3   OH237917   1.392   3.590   2.651  0.2348 -0.0274 -0.5692
 5501TIP3    H137918   1.331   3.645   2.601  1.4917  1.4954 -0.5198
 5501TIP3    H237919   1.377   3.614   2.742 -0.0193 -0.6557 -0.4385
 5502TIP3   OH237920   1.997   2.096  15.958 -0.1096 -0.1020 -0.3189
 5502TIP3    H137921   1.905   2.112  15.934  0.2740  2.7730 -0.2876
 5502TIP3    H237922   2.034   2.051  15.882 -1.4773 -1.0809 -0.4345
 5503TIP3   OH237923   6.252   6.049   5.144 -0.8377 -0.0000 -0.2173
 5503TIP3    H137924   6.293   5.963   5.157 -0.2920  0.3278  0.2493
 5503TIP3    H237925   6.288   6.080   5.061  1.0215  0.9284  0.8919
 5504TIP3   OH237926   1.904   5.303  10.864  0.3309  0.3544 -0.4850
 5504TIP3    H137927   1.972   5.307  10.797  0.2206 -0.0824 -0.6315
 5504TIP3    H237928   1.823   5.319  10.816  0.1521 -0.8612 -0.6397
 5505TIP3   OH237929   6.542   2.195   2.843  0.6616 -0.5831  0.4160
 5505TIP3    H137930   6.522   2.167   2.753  0.7485  1.1385 -0.1678
 5505TIP3    H237931   6.459   2.185   2.890  0.5556 -1.2649  0.1004
 5506TIP3   OH237932   6.746   1.254   0.444  0.1623 -0.4319 -0.1712
 5506TIP3    H137933   6.807   1.324   0.424 -0.2573 -0.0953 -0.2943
 5506TIP3    H237934   6.799   1.174   0.444  0.7102 -0.0758  0.3150
 5507TIP3   OH237935   4.686   5.660  12.863 -0.4206  0.0171 -0.7572
 5507TIP3    H137936   4.698   5.721  12.790  0.9099 -0.4024 -0.9198
 5507TIP3    H237937   4.720   5.577  12.830  2.8869  0.4346  1.2001
 5508TIP3   OH237938   2.351   4.793  15.263  0.2591  0.3623  0.1060
 5508TIP3    H137939   2.394   4.788  15.178 -0.6525  0.3381 -0.3734
 5508TIP3    H237940   2.264   4.756  15.248 -1.0074  3.0073  0.2916
 5509TIP3   OH237941   1.633   2.958   3.512 -0.3086  0.8452  0.3864
 5509TIP3    H137942   1.652   2.876   3.558 -0.2798  0.3133 -0.5386
 5509TIP3    H237943   1.719   2.999   3.499 -0.2243  0.5616  0.0319
 5510TIP3   OH237944   2.838   1.906   4.771 -0.3023  0.1274 -0.4176
 5510TIP3    H137945   2.913   1.942   4.723  0.2691 -3.1150 -2.2438
 5510TIP3    H237946   2.849   1.938   4.860  2.7539  0.4735 -0.8096
 5511TIP3   OH237947   2.735   0.284  16.661 -0.0631  0.0401  0.5604
 5511TIP3    H137948   2.675   0.243  16.598 -0.3051 -0.7948  1.3081
 5511TIP3    H237949   2.781   0.351  16.610 -1.2348  0.3250 -0.1654
 5512TIP3   OH237950   2.445   5.899   5.329  0.9301  0.2015 -0.5139
 5512TIP3    H137951   2.404   5.886   5.414 -1.7567 -0.0370 -1.7418
 5512TIP3    H237952   2.533   5.861   5.338  0.9544  0.7027  2.2623
 5513TIP3   OH237953   5.707   4.145   1.782 -0.0756 -0.0378  0.3316
 5513TIP3    H137954   5.718   4.187   1.696 -1.3922 -0.2462  0.0351
 5513TIP3    H237955   5.790   4.160   1.826  0.9906 -0.7360 -1.3298
 5514TIP3   OH237956   4.421   3.325   5.864  0.2402  0.1459  0.5712
 5514TIP3    H137957   4.411   3.419   5.878 -0.0724  0.1590  0.2823
 5514TIP3    H237958   4.367   3.306   5.787  0.7099 -0.1788  0.3121
 5515TIP3   OH237959   6.744   5.128  16.332 -0.0233 -0.0509  0.2111
 5515TIP3    H137960   6.657   5.104  16.300 -0.4752  1.0962  0.5450
 5515TIP3    H237961   6.743   5.103  16.425 -1.5960  3.7651  1.4227
 5516TIP3   OH237962   3.034   1.649   3.576 -0.0841 -0.8259 -0.2654
 5516TIP3    H137963   2.985   1.731   3.577 -1.3994 -1.5378 -1.6502
 5516TIP3    H237964   2.978   1.588   3.625 -0.4655 -1.5690 -1.5870
 5517TIP3   OH237965   5.222   5.025  14.954  0.1035  0.2966 -0.7696
 5517TIP3    H137966   5.243   4.999  14.865 -3.1394 -3.0268 -0.8321
 5517TIP3    H237967   5.143   4.976  14.975 -1.0395  3.2578  2.9366
 5518TIP3   OH237968   5.708   6.365   3.814 -0.3794 -0.3892 -0.4988
 5518TIP3    H137969   5.631   6.309   3.816 -0.3539 -0.4014  0.3963
 5518TIP3    H237970   5.779   6.306   3.787 -0.2859 -0.8949  0.7713
 5519TIP3   OH237971   5.009   4.464  15.622  0.3308  0.0894  0.6351
 5519TIP3    H137972   5.028   4.429  15.709 -0.3136 -2.0230 -0.0094
 5519TIP3    H237973   5.075   4.425  15.565  0.9097  1.6525  0.1822
 5520TIP3   OH237974   1.831   6.604  14.370  0.1470  0.7066 -0.1564
 5520TIP3    H137975   1.867   6.519  14.396 -0.9879  0.3331  0.2599
 5520TIP3    H237976   1.788   6.588  14.286 -0.2059  0.8172 -0.0028
 5521TIP3   OH237977   5.591   6.255  16.958  0.1367 -0.1680  0.7061
 5521TIP3    H137978   5.566   6.345  16.938  0.6967  0.6686  3.2713
 5521TIP3    H237979   5.681   6.248  16.925 -0.0268  0.1036  0.1960
 5522TIP3   OH237980   1.592   3.112  13.362 -0.4696  0.5387  0.0388
 5522TIP3    H137981   1.613   3.073  13.447 -0.9314  1.1938  0.4688
 5522TIP3    H237982   1.505   3.078  13.342  0.3305 -0.9897 -1.0211
 5523TIP3   OH237983   4.263   5.082  12.310  0.2440 -0.0618  0.1143
 5523TIP3    H137984   4.338   5.022  12.312 -0.1551 -0.5510  1.2237
 5523TIP3    H237985   4.303   5.169  12.306  0.9371 -0.2499  1.8109
 5524TIP3   OH237986   1.958   1.891   1.588 -0.0134 -0.2185 -0.5563
 5524TIP3    H137987   2.001   1.937   1.516 -0.2780  0.0647 -0.5364
 5524TIP3    H237988   1.865   1.909   1.576 -0.0565 -0.1424 -0.1278
 5525TIP3   OH237989   2.865   3.220   3.596 -0.0737  0.4418  0.1939
 5525TIP3    H137990   2.822   3.297   3.634 -0.2709 -0.3915  1.7313
 5525TIP3    H237991   2.932   3.196   3.660 -1.5562 -2.0485  0.9352
 5526TIP3   OH237992   5.880   1.609   4.182  0.0693 -0.2387 -0.6613
 5526TIP3    H137993   5.874   1.704   4.178 -0.3520 -0.1991  0.6080
 5526TIP3    H237994   5.965   1.592   4.224  0.8439 -0.4698 -2.2531
 5527TIP3   OH237995   4.246   4.855  15.159  0.6176  0.1429  0.2900
 5527TIP3    H137996   4.198   4.850  15.242  0.3816  0.0217  0.1466
 5527TIP3    H237997   4.249   4.764  15.128  1.8966 -0.0235  0.8358
 5528TIP3   OH237998   4.756   1.921   3.382 -0.6127  0.2600  0.2468
 5528TIP3    H137999   4.753   1.902   3.475 -0.6601 -1.9256 -0.1478
 5528TIP3    H238000   4.669   1.955   3.361 -0.7481  0.3153  0.8962
 5529TIP3   OH238001   2.290   1.087  15.307 -0.2981  1.1529  0.8902
 5529TIP3    H138002   2.379   1.096  15.342  0.9471  3.3045 -2.4160
 5529TIP3    H238003   2.241   1.160  15.346 -0.3184  0.6737  1.7884
 5530TIP3   OH238004   0.430   3.976  13.362  0.4652 -0.3561  0.4645
 5530TIP3    H138005   0.386   3.944  13.441 -1.0607 -0.2680 -0.3311
 5530TIP3    H238006   0.361   4.019  13.311  1.1870 -1.3117 -1.4105
 5531TIP3   OH238007   3.374   1.415   0.387 -0.3279 -0.2773  0.1909
 5531TIP3    H138008   3.397   1.438   0.477  1.6954 -0.9050 -0.1007
 5531TIP3    H238009   3.334   1.329   0.393 -0.4762 -0.1838  0.5276
 5532TIP3   OH238010   5.422   6.665  12.220 -0.0323 -0.1212 -0.2982
 5532TIP3    H138011   5.335   6.628  12.240 -0.8857  0.9004 -1.8734
 5532TIP3    H238012   5.466   6.596  12.170 -0.9193  0.2681 -1.6568
 5533TIP3   OH238013   0.978   4.507   5.620 -0.1088  0.1253 -0.1375
 5533TIP3    H138014   1.009   4.537   5.535 -0.2987 -1.5826 -0.8622
 5533TIP3    H238015   1.058   4.492   5.670 -0.0115  1.6658  0.2099
 5534TIP3   OH238016   0.895   6.688  14.357 -0.3723  0.0794 -0.1273
 5534TIP3    H138017   0.905   6.644  14.441  0.8639 -0.2116 -0.4014
 5534TIP3    H238018   0.851   6.625  14.301  2.2226 -1.2923 -0.8052
 5535TIP3   OH238019   2.019   0.208   0.691 -0.0172  0.2586 -0.5688
 5535TIP3    H138020   2.033   0.137   0.628  1.2759 -0.3057  0.3070
 5535TIP3    H238021   1.973   0.166   0.764  1.3446  0.1336  0.2442
 5536TIP3   OH238022   4.359   1.261   1.899  0.7143  0.1289 -0.5846
 5536TIP3    H138023   4.370   1.354   1.879 -0.0511  0.4442  0.3463
 5536TIP3    H238024   4.391   1.252   1.989 -2.5080  0.2810  0.7076
 5537TIP3   OH238025   1.844   6.664  17.034  0.2050 -0.0370  0.2138
 5537TIP3    H138026   1.767   6.694  16.986 -0.8442 -1.5716  0.8592
 5537TIP3    H238027   1.814   6.586  17.081  1.1959  1.2623  3.2482
 5538TIP3   OH238028   0.626   2.588   6.679  0.1629  0.1889  0.6127
 5538TIP3    H138029   0.563   2.622   6.616 -0.0839 -0.8794  0.2516
 5538TIP3    H238030   0.704   2.570   6.627  0.1726 -0.1045  0.7265
 5539TIP3   OH238031   3.523   3.925   5.312  0.3167  0.5775 -0.2959
 5539TIP3    H138032   3.528   3.942   5.218 -1.4564  1.8528 -0.2096
 5539TIP3    H238033   3.430   3.908   5.328  0.1667  2.6843  1.5489
 5540TIP3   OH238034   4.620   0.330   3.451 -0.0103 -0.1362 -0.2205
 5540TIP3    H138035   4.533   0.293   3.467 -0.7103  1.0418 -1.1789
 5540TIP3    H238036   4.673   0.255   3.425 -1.1215 -0.6558 -1.0549
 5541TIP3   OH238037   0.284   1.900  15.022 -0.2366 -0.0890  0.2589
 5541TIP3    H138038   0.264   1.987  15.057 -0.8138  0.6952 -1.8690
 5541TIP3    H238039   0.234   1.895  14.941  0.1489 -2.2456  0.1157
 5542TIP3   OH238040   3.152   0.198  14.538 -0.0683  0.1771  0.1055
 5542TIP3    H138041   3.147   0.211  14.444 -0.1110  0.7855  0.1863
 5542TIP3    H238042   3.192   0.279  14.571 -0.8708  0.3410  0.7028
 5543TIP3   OH238043   6.637   5.529   6.321  0.1874  0.2793 -0.1926
 5543TIP3    H138044   6.700   5.466   6.288  1.3254  1.4943 -0.4122
 5543TIP3    H238045   6.590   5.482   6.390  0.6004 -0.9701 -0.7399
 5544TIP3   OH238046   4.514   3.570  13.231 -0.1063 -0.1637  0.0702
 5544TIP3    H138047   4.439   3.511  13.227 -1.3804  1.4436 -1.5633
 5544TIP3    H238048   4.531   3.580  13.325 -1.1553 -1.4943  0.4344
 5545TIP3   OH238049   0.318   5.455  11.269 -0.8241  0.2084  0.4324
 5545TIP3    H138050   0.293   5.469  11.177 -0.2460 -3.2406 -0.3784
 5545TIP3    H238051   0.237   5.469  11.318 -1.0144  2.7198 -0.4365
 5546TIP3   OH238052   2.788   0.710   2.177 -0.3105 -0.6502 -0.0887
 5546TIP3    H138053   2.707   0.672   2.214 -0.2566 -0.7853 -0.1095
 5546TIP3    H238054   2.759   0.792   2.137 -0.1168  0.3399  1.6921
 5547TIP3   OH238055   6.751   3.713   2.032  0.0478  0.0064 -0.0569
 5547TIP3    H138056   6.824   3.652   2.035  1.4215  1.5193 -1.1778
 5547TIP3    H238057   6.694   3.679   1.963  0.0886 -0.7394  0.2688
 5548TIP3   OH238058   6.244   1.159   1.746 -0.0354 -0.3736  0.6263
 5548TIP3    H138059   6.176   1.209   1.792 -0.9058 -2.0464  1.2272
 5548TIP3    H238060   6.324   1.209   1.761 -0.7790  0.5645  1.6431
 5549TIP3   OH238061   2.018   1.799   3.754  0.1120  0.2544 -0.6768
 5549TIP3    H138062   1.924   1.811   3.760  0.0921 -0.4372  0.6180
 5549TIP3    H238063   2.030   1.741   3.679 -0.2427  2.6015 -2.7064
 5550TIP3   OH238064   1.267   0.346  11.931  0.0329 -0.2625  0.7507
 5550TIP3    H138065   1.261   0.265  11.982 -0.4320 -0.8860 -0.2521
 5550TIP3    H238066   1.337   0.329  11.868 -2.1213 -1.1736 -1.5779
 5551TIP3   OH238067   4.487   6.419  12.100 -0.0979  0.2020 -0.2661
 5551TIP3    H138068   4.460   6.372  12.179 -2.9777  1.1795 -0.5681
 5551TIP3    H238069   4.524   6.501  12.132 -1.5453  0.7343  0.1054
 5552TIP3   OH238070   1.164   0.252  13.656  0.5070 -0.2009  0.3727
 5552TIP3    H138071   1.108   0.175  13.665 -0.7784  0.7494  0.7966
 5552TIP3    H238072   1.253   0.218  13.666 -0.0145 -1.6479  0.3592
 5553TIP3   OH238073   5.483   3.139  16.242  0.2842 -0.2191  0.2664
 5553TIP3    H138074   5.526   3.223  16.254  2.0919 -0.8731 -1.1303
 5553TIP3    H238075   5.389   3.159  16.243  0.6363  1.5899  1.2004
 5554TIP3   OH238076   5.752   6.717   4.021 -0.1691  0.2959 -0.3431
 5554TIP3    H138077   5.796   6.669   3.950 -0.7489 -1.4698  0.4444
 5554TIP3    H238078   5.743   6.806   3.987 -0.1938 -0.4333 -2.3892
 5555TIP3   OH238079   5.941   5.612   6.403 -0.3325  0.3982 -0.2918
 5555TIP3    H138080   5.854   5.645   6.378 -2.5212 -1.8258  3.3877
 5555TIP3    H238081   5.946   5.525   6.364  1.8803  1.6900 -3.2418
 5556TIP3   OH238082   2.819   6.559  15.534 -0.3577 -0.0229 -0.1588
 5556TIP3    H138083   2.860   6.483  15.576 -3.4814 -2.0676 -0.4907
 5556TIP3    H238084   2.800   6.531  15.445 -1.0542  1.3665 -0.4816
 5557TIP3   OH238085   6.247   4.410   5.480  0.8121  0.3733  0.6255
 5557TIP3    H138086   6.234   4.504   5.486  1.3871  0.4335  1.0323
 5557TIP3    H238087   6.204   4.375   5.558  1.9915  0.4601  1.3349
 5558TIP3   OH238088   3.697   3.849   5.865 -0.3634 -0.4594 -0.1972
 5558TIP3    H138089   3.655   3.882   5.945  0.4536 -0.6336  0.3127
 5558TIP3    H238090   3.646   3.888   5.794 -1.8023 -1.1668  0.3919
 5559TIP3   OH238091   1.486   0.329   4.801  0.6510 -0.6561  0.3251
 5559TIP3    H138092   1.516   0.396   4.740 -0.7918 -0.1829  0.0837
 5559TIP3    H238093   1.505   0.246   4.758  2.3460 -0.4308  0.5692
 5560TIP3   OH238094   6.614   5.266   1.775 -0.1657 -0.1449  0.0693
 5560TIP3    H138095   6.628   5.322   1.851  0.7029  0.5657 -0.5965
 5560TIP3    H238096   6.540   5.305   1.729  1.5542  1.5962 -1.3720
 5561TIP3   OH238097   1.567   4.349   3.420 -0.6998 -0.0704  0.2010
 5561TIP3    H138098   1.640   4.331   3.361 -2.2904 -0.8482 -1.6113
 5561TIP3    H238099   1.548   4.442   3.408 -0.8656 -0.1742 -0.3612
 5562TIP3   OH238100   4.618   0.938   0.525  0.4777 -0.0375  0.4587
 5562TIP3    H138101   4.603   0.985   0.607 -1.3497  1.4844 -0.6585
 5562TIP3    H238102   4.710   0.955   0.505  0.8398 -0.0865  1.9608
 5563TIP3   OH238103   4.824   0.321  15.303 -0.7235 -0.2347 -0.0436
 5563TIP3    H138104   4.915   0.346  15.315 -0.8295  1.0005 -1.4315
 5563TIP3    H238105   4.802   0.269  15.380  0.7927  0.4744  0.9114
 5564TIP3   OH238106   1.300   6.432  13.347 -0.4777 -0.1840 -0.1847
 5564TIP3    H138107   1.280   6.390  13.430 -2.4015 -1.1387 -1.0845
 5564TIP3    H238108   1.233   6.400  13.286  1.0911  0.1812 -2.2162
 5565TIP3   OH238109   2.874   6.532   1.594 -0.0153 -0.0432  0.1186
 5565TIP3    H138110   2.792   6.532   1.642 -0.4581  0.9350 -0.5822
 5565TIP3    H238111   2.937   6.489   1.652 -1.0567 -0.9790  0.5832
 5566TIP3   OH238112   6.672   6.225   5.364  0.0483  0.5495  0.1797
 5566TIP3    H138113   6.735   6.290   5.331 -0.5264  0.5680 -0.9071
 5566TIP3    H238114   6.667   6.159   5.295  1.8745 -1.5938  1.9335
 5567TIP3   OH238115   0.660   0.533  11.634 -0.5321  0.6344 -0.9393
 5567TIP3    H138116   0.566   0.521  11.643 -0.6349  0.8731 -1.5875
 5567TIP3    H238117   0.669   0.621  11.598  0.0961  1.9217  2.0429
 5568TIP3   OH238118   2.347   1.142  16.964 -0.6695 -0.0395 -0.0393
 5568TIP3    H138119   2.257   1.132  16.997 -1.4291 -0.9924 -2.2214
 5568TIP3    H238120   2.372   1.054  16.936  2.1076 -0.4380  3.0715
 5569TIP3   OH238121   1.484   3.999   4.467 -0.6881 -0.1617  0.4660
 5569TIP3    H138122   1.516   3.964   4.550  1.0182 -0.6433 -0.3416
 5569TIP3    H238123   1.443   3.924   4.424 -1.4480  0.0546  0.7977
 5570TIP3   OH238124   4.830   0.841  12.632 -0.1743  0.3212 -0.2144
 5570TIP3    H138125   4.867   0.908  12.688 -1.2103  0.0241  0.8703
 5570TIP3    H238126   4.832   0.879  12.544  1.5076  0.7758 -0.0173
 5571TIP3   OH238127   6.148   5.393  11.259 -0.0004  0.0119 -0.0118
 5571TIP3    H138128   6.166   5.299  11.248 -0.5775 -0.0516 -0.4307
 5571TIP3    H238129   6.137   5.426  11.170  2.5004  0.9602 -0.0477
 5572TIP3   OH238130   6.090   5.508  12.596  0.0324 -0.4027 -0.2888
 5572TIP3    H138131   6.013   5.477  12.547 -0.2878  0.6366 -0.4651
 5572TIP3    H238132   6.054   5.565  12.664  0.5977 -0.5494  0.1394
 5573TIP3   OH238133   2.252   2.145  13.307  0.3207  0.4575  0.6161
 5573TIP3    H138134   2.285   2.231  13.332 -0.3316  1.5087 -1.8149
 5573TIP3    H238135   2.292   2.129  13.221 -1.2484 -0.6795  0.0611
 5574TIP3   OH238136   3.185   0.358   5.489 -0.5695  0.1421  0.1239
 5574TIP3    H138137   3.147   0.413   5.421  0.2996  0.2210 -0.3006
 5574TIP3    H238138   3.110   0.308   5.523 -1.6184  2.3384  1.2901
 5575TIP3   OH238139   1.108   2.112   5.197 -0.1775  0.3593  0.5809
 5575TIP3    H138140   1.024   2.090   5.156 -0.1375  0.5906  0.3771
 5575TIP3    H238141   1.109   2.207   5.200  0.3413  0.3777  0.0348
 5576TIP3   OH238142   1.279   4.365  16.647 -0.0361 -0.4726 -0.1684
 5576TIP3    H138143   1.267   4.281  16.691 -1.5776 -1.5914 -2.5508
 5576TIP3    H238144   1.366   4.360  16.608  0.0511 -0.7847  0.0654
 5577TIP3   OH238145   0.313   2.905   6.215 -0.0153 -0.1715 -0.6901
 5577TIP3    H138146   0.283   2.982   6.264  0.3306 -0.5224  0.0868
 5577TIP3    H238147   0.280   2.830   6.264  0.8650 -0.5383 -0.6302
 5578TIP3   OH238148   6.203   2.721  11.856  0.2137 -0.2331  0.2038
 5578TIP3    H138149   6.220   2.678  11.773 -1.4015  0.0158 -0.2925
 5578TIP3    H238150   6.289   2.724  11.900  1.4330  1.0011 -2.0825
 5579TIP3   OH238151   0.957   2.348   1.262  0.4694 -0.2845 -0.2360
 5579TIP3    H138152   1.023   2.300   1.212 -0.4369 -1.2006 -0.5890
 5579TIP3    H238153   1.004   2.380   1.339  1.4453 -0.4561 -0.7475
 5580TIP3   OH238154   5.311   2.607   3.880 -0.4295 -0.0639  0.0057
 5580TIP3    H138155   5.403   2.585   3.895 -0.4690  0.6194  1.3813
 5580TIP3    H238156   5.313   2.683   3.823 -0.0797  0.7704  1.0986
 5581TIP3   OH238157   4.087   5.363  16.155  0.4367  0.1694 -0.1507
 5581TIP3    H138158   4.062   5.439  16.207  1.7496  0.5638 -0.0502
 5581TIP3    H238159   4.060   5.385  16.066  0.7698  0.7588 -0.1156
 5582TIP3   OH238160   6.721   3.096   1.631  0.0719  0.4503 -0.3761
 5582TIP3    H138161   6.801   3.138   1.600 -0.0271  1.9305  1.2353
 5582TIP3    H238162   6.745   3.004   1.644  0.8590  0.3878 -2.0220
 5583TIP3   OH238163   3.576   2.840   3.791  0.0032 -0.1061  0.2977
 5583TIP3    H138164   3.538   2.756   3.767 -1.4399  0.7351 -0.5245
 5583TIP3    H238165   3.638   2.820   3.861 -0.1671 -1.8579 -0.0118
 5584TIP3   OH238166   3.087   6.733   5.448  0.5733 -0.5512 -1.2978
 5584TIP3    H138167   3.088   6.680   5.527  1.5033  0.5260 -0.5538
 5584TIP3    H238168   3.073   6.670   5.377 -1.4594 -1.3920 -0.2101
 5585TIP3   OH238169   3.240   0.798   2.851 -0.0751 -0.2156  0.2470
 5585TIP3    H138170   3.273   0.733   2.790  0.5913  0.6217 -0.3199
 5585TIP3    H238171   3.296   0.791   2.928 -0.3185 -0.6396  0.3857
 5586TIP3   OH238172   3.605   3.007  14.812  0.1721 -0.2077  0.7907
 5586TIP3    H138173   3.573   2.916  14.817 -1.1460  0.1565 -0.4362
 5586TIP3    H238174   3.693   3.003  14.848 -0.1378 -1.8384  1.4817
 5587TIP3   OH238175   3.390   1.570   3.156 -0.5330  0.6631  0.1885
 5587TIP3    H138176   3.301   1.605   3.160 -0.2430  1.4547 -0.1685
 5587TIP3    H238177   3.444   1.644   3.130 -0.1045 -0.3692 -2.0344
 5588TIP3   OH238178   4.704   2.750  16.036  0.0250  0.0941 -0.1459
 5588TIP3    H138179   4.779   2.748  15.977  0.6221 -1.2899  0.5948
 5588TIP3    H238180   4.639   2.693  15.995  0.0265 -0.0153  0.0005
 5589TIP3   OH238181   1.595   4.731   4.683 -0.3104 -0.5454  0.4414
 5589TIP3    H138182   1.596   4.808   4.628 -0.0754 -1.1076 -0.3539
 5589TIP3    H238183   1.535   4.753   4.755 -0.9890  0.0207 -0.2914
 5590TIP3   OH238184   4.161   2.571  17.086  0.4664  0.0984 -0.0508
 5590TIP3    H138185   4.088   2.549  17.144 -0.1940  0.9304 -0.5322
 5590TIP3    H238186   4.163   2.667  17.087  0.4636  0.1306 -1.3554
 5591TIP3   OH238187   3.969   3.641   1.470  0.4192  0.0564 -0.1091
 5591TIP3    H138188   3.957   3.565   1.413 -1.4414 -0.3421  0.7562
 5591TIP3    H238189   3.953   3.716   1.413  1.0780 -0.2276 -0.6832
 5592TIP3   OH238190   2.246   3.784   2.449 -0.5303  0.0721 -0.6492
 5592TIP3    H138191   2.153   3.783   2.475 -0.2074 -3.3708  0.9903
 5592TIP3    H238192   2.292   3.756   2.528  1.4840 -2.2687 -2.5272
 5593TIP3   OH238193   5.033   2.575  15.309 -0.1014 -0.2538 -0.6020
 5593TIP3    H138194   4.985   2.648  15.271 -2.2272 -0.3605  1.6045
 5593TIP3    H238195   5.013   2.579  15.402  2.7674 -1.4721  0.1876
 5594TIP3   OH238196   2.609   2.761  11.868  0.3023  0.5980 -0.1252
 5594TIP3    H138197   2.639   2.679  11.829 -1.2706 -0.1245  0.1073
 5594TIP3    H238198   2.596   2.819  11.794  1.6265  0.7461 -0.2766
 5595TIP3   OH238199   2.176   1.210  10.821  1.1289  0.5221  0.1740
 5595TIP3    H138200   2.255   1.179  10.865  0.6689 -0.0200  0.6526
 5595TIP3    H238201   2.141   1.277  10.879  0.8756  0.2718  0.3170
 5596TIP3   OH238202   0.162   6.770  12.646 -0.5823  0.0986 -0.0177
 5596TIP3    H138203   0.173   6.675  12.637 -1.3372  0.0603 -0.6452
 5596TIP3    H238204   0.227   6.807  12.587  0.5749  0.0088  1.1602
 5597TIP3   OH238205   2.165   3.070   4.401  0.5327 -0.3688  0.1790
 5597TIP3    H138206   2.227   3.115   4.343  0.6917  0.5315  1.0264
 5597TIP3    H238207   2.158   3.127   4.477 -1.0515 -0.6405  0.2715
 5598TIP3   OH238208   5.379   4.465   3.784  0.0200  0.0813  0.6532
 5598TIP3    H138209   5.317   4.414   3.836  0.1423 -0.0632  0.6591
 5598TIP3    H238210   5.417   4.528   3.845 -0.7875  0.7853  0.4493
 5599TIP3   OH238211   2.562   0.268  17.023  0.2478  0.1281 -0.3852
 5599TIP3    H138212   2.620   0.226  16.961 -1.0567 -0.2610 -1.3896
 5599TIP3    H238213   2.476   0.268  16.980 -0.3677  1.2680  0.7617
 5600TIP3   OH238214   6.730   6.097  11.996  0.4002 -0.4737  0.9375
 5600TIP3    H138215   6.685   6.140  12.069 -1.3495 -2.1158  0.8972
 5600TIP3    H238216   6.778   6.025  12.036 -0.8602 -1.6084  0.4912
 5601TIP3   OH238217   3.299   0.973   3.554 -0.1265  0.3242 -0.1401
 5601TIP3    H138218   3.275   0.987   3.645 -2.5366 -0.6651 -0.5398
 5601TIP3    H238219   3.375   1.028   3.540  0.8079 -0.1069  2.6665
 5602TIP3   OH238220   2.693   6.348  12.093 -0.1352  0.2897  0.1246
 5602TIP3    H138221   2.604   6.314  12.104  0.1991 -0.7393 -0.2359
 5602TIP3    H238222   2.728   6.353  12.182 -0.0889 -0.6303  0.1736
 5603TIP3   OH238223   6.299   2.910   5.563 -0.3096  0.5225 -0.3148
 5603TIP3    H138224   6.224   2.851   5.553  0.1956 -0.2214  0.1080
 5603TIP3    H238225   6.374   2.851   5.565  0.1313  1.0967  1.2515
 5604TIP3   OH238226   1.608   3.622  16.793 -0.6134  0.4976  0.2791
 5604TIP3    H138227   1.607   3.552  16.728 -1.2737  0.0582  0.7578
 5604TIP3    H238228   1.551   3.591  16.863  1.3159  0.2680  1.8251
 5605TIP3   OH238229   6.659   6.024  16.781  0.2838  0.5470 -0.5688
 5605TIP3    H138230   6.638   6.104  16.734  0.9046  0.2623 -1.3636
 5605TIP3    H238231   6.714   5.974  16.720  1.0078  0.1055  0.4098
 5606TIP3   OH238232   3.678   5.413  15.212  0.4316 -0.5866  0.2825
 5606TIP3    H138233   3.694   5.328  15.254  1.1206 -1.4808 -1.6797
 5606TIP3    H238234   3.583   5.416  15.201  0.5169 -2.0789 -1.4189
 5607TIP3   OH238235   1.152   0.478  14.507 -0.0335 -0.4541 -0.4461
 5607TIP3    H138236   1.140   0.388  14.535  0.6973 -0.5189 -0.3235
 5607TIP3    H238237   1.176   0.526  14.586 -0.7290 -0.0849 -0.4497
 5608TIP3   OH238238   3.277   6.208  14.235  0.3603 -0.0763 -0.5689
 5608TIP3    H138239   3.220   6.147  14.186 -0.6482  1.2375 -1.0911
 5608TIP3    H238240   3.230   6.223  14.317  1.1091 -0.7574  0.0073
 5609TIP3   OH238241   2.625   4.479   3.799  0.3539  0.1869  0.3673
 5609TIP3    H138242   2.609   4.389   3.827  0.1917  0.1257  0.0747
 5609TIP3    H238243   2.546   4.504   3.752  1.7744 -0.7620 -2.7538
 5610TIP3   OH238244   1.244   0.672   1.357  0.1098  0.3664  0.3115
 5610TIP3    H138245   1.323   0.658   1.409  0.2506  0.7130  0.1919
 5610TIP3    H238246   1.264   0.749   1.303 -0.5945  0.9417  0.8548
 5611TIP3   OH238247   4.324   6.145  16.645 -0.4188  0.3922 -0.6280
 5611TIP3    H138248   4.295   6.061  16.679  0.7846  0.2438  0.0914
 5611TIP3    H238249   4.311   6.206  16.718 -0.5160  0.6640 -0.8695
 5612TIP3   OH238250   0.350   4.936   1.652  0.0001  0.0206  0.1507
 5612TIP3    H138251   0.265   4.945   1.608 -0.0909 -2.7209 -0.3766
 5612TIP3    H238252   0.369   4.843   1.648  1.9619  0.2540  2.3416
 5613TIP3   OH238253   4.819   1.952  16.956  0.4989  0.1476  0.1897
 5613TIP3    H138254   4.885   1.969  17.023  1.5617 -2.3453 -0.1161
 5613TIP3    H238255   4.862   1.892  16.895 -0.3980  2.2597 -2.7744
 5614TIP3   OH238256   4.526   5.268  12.820  0.1271  0.1763 -0.7088
 5614TIP3    H138257   4.512   5.310  12.735  2.6984 -0.2790 -1.4320
 5614TIP3    H238258   4.591   5.323  12.864  0.5672 -0.8581 -0.0199
 5615TIP3   OH238259   3.761   5.225  11.821 -0.2223  0.2157 -0.0408
 5615TIP3    H138260   3.854   5.217  11.841 -0.4263 -2.7667  0.2032
 5615TIP3    H238261   3.719   5.241  11.905 -0.0365  0.0571  0.0822
 5616TIP3   OH238262   5.086   2.687  11.891  0.3337  0.0115  0.2134
 5616TIP3    H138263   4.998   2.716  11.868  1.2355  1.3297 -1.8550
 5616TIP3    H238264   5.092   2.597  11.858 -0.3453 -0.2259  0.7251
 5617TIP3   OH238265   2.201   0.403   1.200  0.0045  0.1721 -0.1650
 5617TIP3    H138266   2.168   0.430   1.285 -1.5979 -2.8356  0.3278
 5617TIP3    H238267   2.124   0.367   1.154  0.9347  1.1255 -2.6677
 5618TIP3   OH238268   6.474   1.767  12.547  0.4187 -0.0003 -0.5133
 5618TIP3    H138269   6.379   1.778  12.548  0.5930  1.6343 -0.0103
 5618TIP3    H238270   6.509   1.856  12.543  1.9358 -0.5907 -1.2769
 5619TIP3   OH238271   4.348   4.343   2.863  0.0333  0.1755 -0.0746
 5619TIP3    H138272   4.348   4.334   2.958  0.0630 -0.0879 -0.0983
 5619TIP3    H238273   4.421   4.402   2.844 -0.3076  0.6588  0.1030
 5620TIP3   OH238274   6.617   0.052  14.641  0.4042  0.3414 -0.0574
 5620TIP3    H138275   6.597  -0.040  14.657 -0.2203  0.6449  0.9644
 5620TIP3    H238276   6.698   0.050  14.589  1.2854 -0.7390  1.2991
 5621TIP3   OH238277   4.745   1.409   4.603 -0.0018  0.1756 -0.9145
 5621TIP3    H138278   4.677   1.347   4.628  1.6130 -1.6607 -0.8530
 5621TIP3    H238279   4.793   1.426   4.685  0.3945  0.4634 -1.2019
 5622TIP3   OH238280   2.961   4.031  14.726 -0.6291 -0.5409 -0.5072
 5622TIP3    H138281   2.978   3.943  14.695  1.4130 -0.1551 -0.6027
 5622TIP3    H238282   3.045   4.076  14.719 -2.1972  2.3142 -3.2356
 5623TIP3   OH238283   0.332   3.092   1.776 -0.1888  0.3111  0.4018
 5623TIP3    H138284   0.400   3.133   1.830  0.7288  0.6190 -0.9270
 5623TIP3    H238285   0.347   2.998   1.786  1.7743  0.3567 -1.4050
 5624TIP3   OH238286   2.110   2.240   0.739  0.1745 -0.3578 -0.1628
 5624TIP3    H138287   2.203   2.250   0.722  0.0289  1.5316 -0.0579
 5624TIP3    H238288   2.100   2.149   0.769  2.0281 -0.4440  0.2610
 5625TIP3   OH238289   5.449   5.389  12.734 -0.1123  0.4032 -0.0995
 5625TIP3    H138290   5.517   5.371  12.799  0.4305 -0.2485 -0.8381
 5625TIP3    H238291   5.439   5.307  12.686 -0.5455  0.8582 -0.8044
 5626TIP3   OH238292   0.747   0.764  12.274 -0.4682 -0.1175  0.0466
 5626TIP3    H138293   0.842   0.763  12.284 -0.3708  2.3139 -0.1393
 5626TIP3    H238294   0.732   0.799  12.186 -1.5604 -0.7318 -0.0370
 5627TIP3   OH238295   0.817   2.537   2.309 -0.2992  0.7514 -0.1395
 5627TIP3    H138296   0.804   2.597   2.235  3.0196  0.0415 -1.4731
 5627TIP3    H238297   0.824   2.450   2.269  0.1188  0.1751  1.1427
 5628TIP3   OH238298   1.746   6.412  14.074  0.0263 -0.1129 -0.0809
 5628TIP3    H138299   1.735   6.348  14.144  0.5154  0.5898  0.6459
 5628TIP3    H238300   1.660   6.452  14.063  0.0938  0.2164  0.5607
 5629TIP3   OH238301   3.702   0.160   2.475 -0.3362 -0.4675 -0.3739
 5629TIP3    H138302   3.694   0.067   2.456  2.7664 -1.0248  0.5381
 5629TIP3    H238303   3.657   0.203   2.402  1.2082 -2.6487 -2.7789
 5630TIP3   OH238304   4.307   0.724  15.819  0.1909 -0.0646 -0.0272
 5630TIP3    H138305   4.335   0.791  15.756  0.4173 -1.1308 -1.1063
 5630TIP3    H238306   4.309   0.642  15.769  0.6446 -0.9944  1.4513
 5631TIP3   OH238307   2.618   2.810   2.713 -0.0234 -0.3894 -0.8190
 5631TIP3    H138308   2.654   2.724   2.690  1.4889  0.3362 -1.2868
 5631TIP3    H238309   2.636   2.865   2.637 -1.7082  0.1731 -0.8693
 5632TIP3   OH238310   5.076   4.838  16.902 -0.0013 -0.2103 -0.4233
 5632TIP3    H138311   5.154   4.823  16.848 -0.4339  1.2960 -1.5323
 5632TIP3    H238312   5.090   4.926  16.939 -0.1704 -0.8242  1.1646
 5633TIP3   OH238313   5.982   6.550   3.036 -0.1303  0.3522  0.4888
 5633TIP3    H138314   5.929   6.593   2.969 -0.6359 -0.2899  0.4699
 5633TIP3    H238315   5.919   6.501   3.089  0.4048 -0.1128  0.7049
 5634TIP3   OH238316   0.620   6.508   0.800 -0.6077 -0.5356 -0.2344
 5634TIP3    H138317   0.705   6.551   0.793 -0.4779 -0.4623  1.4070
 5634TIP3    H238318   0.577   6.525   0.717  1.0068 -0.6391 -1.1228
 5635TIP3   OH238319   6.152   3.432  16.287  0.3420 -0.7576  0.3417
 5635TIP3    H138320   6.233   3.464  16.328  1.3494 -0.8061 -1.4698
 5635TIP3    H238321   6.181   3.395  16.204 -1.5413 -0.9988 -0.2563
 5636TIP3   OH238322   5.003   5.464  15.320 -0.4490  0.2254 -0.1410
 5636TIP3    H138323   5.065   5.421  15.262 -1.2530 -0.6671 -0.3545
 5636TIP3    H238324   5.031   5.555  15.321  1.3018 -0.2798  0.3359
 5637TIP3   OH238325   5.804   0.276  17.069 -0.3910  0.2030 -0.0520
 5637TIP3    H138326   5.778   0.189  17.099  1.9678 -1.7584 -3.0479
 5637TIP3    H238327   5.891   0.291  17.107 -0.2379  0.6632 -0.5572
 5638TIP3   OH238328   2.155   3.420   3.537 -0.0521 -0.0080  0.3178
 5638TIP3    H138329   2.087   3.486   3.520 -1.3305 -1.5327 -0.7934
 5638TIP3    H238330   2.231   3.452   3.489  0.2931  2.0531  2.0827
 5639TIP3   OH238331   0.809   5.250  15.708 -0.9776 -0.4574 -0.2278
 5639TIP3    H138332   0.885   5.204  15.743 -1.1074  0.4004  1.2709
 5639TIP3    H238333   0.734   5.200  15.740 -1.1401  1.0074  1.8837
 5640TIP3   OH238334   3.955   4.600  11.031  0.1722 -0.2845 -0.0292
 5640TIP3    H138335   4.031   4.652  11.008 -1.5574  1.8492 -1.3139
 5640TIP3    H238336   3.928   4.632  11.117 -0.0301 -0.1125 -0.1561
 5641TIP3   OH238337   4.137   6.638  16.974  0.3480 -0.1008  0.2781
 5641TIP3    H138338   4.210   6.699  16.959  0.1507  0.0582 -0.0407
 5641TIP3    H238339   4.070   6.690  17.016 -0.1305  0.1104 -0.7077
 5642TIP3   OH238340   4.478   3.494  13.615 -0.0456 -0.8796 -0.3800
 5642TIP3    H138341   4.572   3.478  13.602 -0.0709 -0.1500 -1.6176
 5642TIP3    H238342   4.471   3.518  13.707  0.5957 -3.4531  0.4247
 5643TIP3   OH238343   1.946   3.847   3.665  0.2156  0.5306  0.1487
 5643TIP3    H138344   1.871   3.870   3.720  0.0101  0.8513 -0.2589
 5643TIP3    H238345   1.946   3.914   3.596  0.5901  0.2495 -0.1245
 5644TIP3   OH238346   4.268   1.516   3.255 -0.0799 -0.0849  0.3324
 5644TIP3    H138347   4.259   1.435   3.305  0.4633 -0.3848 -0.0386
 5644TIP3    H238348   4.210   1.504   3.180 -0.7201  0.2695  0.7636
 5645TIP3   OH238349   5.580   2.502  12.819  0.1171 -0.1802  0.6680
 5645TIP3    H138350   5.522   2.427  12.811  1.0768 -0.7634 -1.6705
 5645TIP3    H238351   5.521   2.578  12.818 -0.6948 -0.7942 -0.5427
 5646TIP3   OH238352   5.007   3.359   1.099 -0.0891  0.1193  0.6911
 5646TIP3    H138353   4.977   3.450   1.101  0.6002  0.3905 -0.6955
 5646TIP3    H238354   4.928   3.308   1.081 -0.4459  0.4352  1.2988
 5647TIP3   OH238355   6.462   1.684  16.242  0.1649 -0.3261 -0.1044
 5647TIP3    H138356   6.471   1.650  16.331 -1.5897 -0.7885 -0.0729
 5647TIP3    H238357   6.388   1.745  16.247  1.5321  1.5048 -0.7602
 5648TIP3   OH238358   0.927   6.262   4.458 -0.2583  0.2246 -0.1859
 5648TIP3    H138359   0.985   6.194   4.492 -0.7232 -0.1071 -0.0521
 5648TIP3    H238360   0.949   6.268   4.365 -0.0677  0.0464 -0.1544
 5649TIP3   OH238361   6.601   3.516  11.105 -0.1968 -0.0259 -0.3450
 5649TIP3    H138362   6.683   3.536  11.150 -0.1723  1.1638 -0.8833
 5649TIP3    H238363   6.559   3.449  11.160  1.2108 -0.8144 -0.1741
 5650TIP3   OH238364   5.524   5.715   2.774 -0.2140  0.6136 -0.5275
 5650TIP3    H138365   5.604   5.680   2.735  0.0971  1.5606 -0.7514
 5650TIP3    H238366   5.511   5.800   2.732 -1.0172  0.7283 -0.0712
 5651TIP3   OH238367   2.868   6.352   5.091 -0.0590 -0.0681  0.2153
 5651TIP3    H138368   2.822   6.268   5.088 -1.7012  0.5470  3.3581
 5651TIP3    H238369   2.817   6.408   5.033 -0.1494 -0.7354 -0.3673
 5652TIP3   OH238370   6.640   1.122   3.963  0.1427  0.1420  0.1042
 5652TIP3    H138371   6.546   1.114   3.950  0.3378 -0.2917 -1.1896
 5652TIP3    H238372   6.677   1.043   3.925  1.0453  0.3246  0.5507
 5653TIP3   OH238373   1.083   1.785   4.408  0.8289  0.1196 -0.4316
 5653TIP3    H138374   1.039   1.868   4.426  1.1944  0.2008  0.1201
 5653TIP3    H238375   1.095   1.784   4.313 -1.4396 -0.4563 -0.7726
 5654TIP3   OH238376   2.309   1.310   4.779  0.2541  0.2880  0.4155
 5654TIP3    H138377   2.218   1.281   4.778  0.4065 -0.2107  0.0793
 5654TIP3    H238378   2.307   1.397   4.817 -0.4752  0.6408 -0.3915
 5655TIP3   OH238379   4.913   2.869  11.580 -0.4931 -0.5648 -0.1438
 5655TIP3    H138380   4.967   2.907  11.649 -0.9511 -1.4235  0.7146
 5655TIP3    H238381   4.851   2.938  11.557  0.9187  0.4413 -1.1455
 5656TIP3   OH238382   3.764   4.083   5.413  0.3536  0.1514  0.5551
 5656TIP3    H138383   3.786   4.142   5.341 -0.3304  2.1517  1.8803
 5656TIP3    H238384   3.683   4.041   5.386  0.4048  0.4489 -0.0830
 5657TIP3   OH238385   2.714   4.138   2.511 -0.2116 -0.3703 -0.0122
 5657TIP3    H138386   2.730   4.186   2.593 -0.8419 -0.6551  0.2833
 5657TIP3    H238387   2.626   4.164   2.485 -0.3851 -1.0148 -0.0885
 5658TIP3   OH238388   4.737   0.443   6.485  0.2627  0.1782 -0.2826
 5658TIP3    H138389   4.699   0.522   6.521 -0.8888 -0.5502  0.1592
 5658TIP3    H238390   4.827   0.466   6.465 -0.2351  1.7841 -0.7921
 5659TIP3   OH238391   0.143   1.835  16.180  0.2553  0.3070 -0.4188
 5659TIP3    H138392   0.062   1.887  16.181  0.6184  0.8684 -0.0437
 5659TIP3    H238393   0.112   1.745  16.172 -0.5503  0.2884  2.0274
 5660TIP3   OH238394   3.641   4.808  16.517  0.1243 -0.4139 -0.2508
 5660TIP3    H138395   3.645   4.805  16.422  0.5824  2.5599 -0.4086
 5660TIP3    H238396   3.730   4.786  16.546  0.4361  0.3369 -0.6165
 5661TIP3   OH238397   6.092   1.400   0.762  0.4147  0.1816 -0.5620
 5661TIP3    H138398   6.024   1.432   0.822  0.6232  1.0700 -0.7828
 5661TIP3    H238399   6.071   1.442   0.678  1.2732  0.5060 -0.6160
 5662TIP3   OH238400   0.671   0.182   4.335  0.0793  0.2477 -0.5224
 5662TIP3    H138401   0.682   0.102   4.283 -0.4672 -0.2187  0.0600
 5662TIP3    H238402   0.745   0.182   4.396  0.1595  0.2656 -0.6187
 5663TIP3   OH238403   0.877   4.406   4.436  0.3548  0.2485 -0.5951
 5663TIP3    H138404   0.887   4.499   4.419  1.6227 -0.1674 -2.3870
 5663TIP3    H238405   0.859   4.401   4.530 -1.2148  2.3513 -0.7035
 5664TIP3   OH238406   5.745   3.108  16.871  0.0744 -0.2924  0.2943
 5664TIP3    H138407   5.816   3.133  16.813 -0.1594  1.1549  0.5997
 5664TIP3    H238408   5.669   3.099  16.813 -0.2161  1.3901  0.3548
 5665TIP3   OH238409   6.395   0.385  13.545  0.1143  0.5021 -0.1721
 5665TIP3    H138410   6.301   0.373  13.555  0.2086 -1.5682 -1.3543
 5665TIP3    H238411   6.430   0.297  13.532  2.0837  1.3144 -0.7837
 5666TIP3   OH238412   3.002   2.824  12.894 -0.3773  0.2124 -0.0209
 5666TIP3    H138413   2.918   2.777  12.902  0.6601 -1.5168  1.7984
 5666TIP3    H238414   3.033   2.802  12.806 -0.9828 -0.6927 -0.0315
 5667TIP3   OH238415   3.642   0.689  11.698  1.1743 -0.1830  0.6600
 5667TIP3    H138416   3.614   0.764  11.645 -0.3497 -0.9905  0.2634
 5667TIP3    H238417   3.606   0.707  11.785  1.0309 -0.3301  0.6305
 5668TIP3   OH238418   5.809   4.726  10.955 -0.2144  0.3447  0.3927
 5668TIP3    H138419   5.791   4.819  10.969  0.0387  0.1286  2.5958
 5668TIP3    H238420   5.730   4.682  10.987  0.6318 -0.2558  1.7323
 5669TIP3   OH238421   4.282   2.172  15.839 -0.2785  0.6602 -0.1069
 5669TIP3    H138422   4.335   2.187  15.918 -2.1070  0.3532  1.2419
 5669TIP3    H238423   4.330   2.218  15.770  2.0913 -0.1683  0.8585
 5670TIP3   OH238424   2.728   5.132   1.401  0.2352  0.2320 -0.2692
 5670TIP3    H138425   2.819   5.121   1.375 -0.2498  0.2878 -2.0933
 5670TIP3    H238426   2.709   5.224   1.387  0.1994  0.4879  1.2461
 5671TIP3   OH238427   4.923   2.249  16.123 -0.0706 -0.5707  0.2662
 5671TIP3    H138428   4.979   2.326  16.114 -0.8364 -0.1013 -0.7026
 5671TIP3    H238429   4.848   2.267  16.067 -0.2784 -2.0231  0.0254
 5672TIP3   OH238430   3.584   5.247   0.250  0.2993 -0.4888  0.3706
 5672TIP3    H138431   3.617   5.212   0.333 -0.7274  0.4397  1.1959
 5672TIP3    H238432   3.628   5.331   0.241 -0.4837 -0.0495  0.5837
 5673TIP3   OH238433   2.433   4.461   2.437 -0.2798 -0.8077  0.4837
 5673TIP3    H138434   2.494   4.534   2.450  0.5621 -1.3543 -0.2826
 5673TIP3    H238435   2.477   4.405   2.373 -1.4550 -1.3815  0.1658
 5674TIP3   OH238436   2.228   4.930  14.895 -0.3915  0.6520 -0.4947
 5674TIP3    H138437   2.162   4.999  14.893 -0.8753  0.2068 -0.3318
 5674TIP3    H238438   2.231   4.897  14.805  1.1937  2.1135 -1.0251
 5675TIP3   OH238439   6.291   2.010  12.741  0.1566 -0.0246 -0.6614
 5675TIP3    H138440   6.236   2.075  12.698  1.3155  0.4277 -1.5428
 5675TIP3    H238441   6.274   2.022  12.835  1.1338  2.3515 -0.7047
 5676TIP3   OH238442   0.934   1.932  11.738 -0.1666  0.1397 -0.8256
 5676TIP3    H138443   0.886   1.849  11.735  0.2980 -0.1181 -1.2756
 5676TIP3    H238444   0.865   1.999  11.741 -0.5424 -0.2619 -0.2486
 5677TIP3   OH238445   2.868   5.251   4.747  0.4056  0.5522 -0.0963
 5677TIP3    H138446   2.779   5.274   4.774  0.5054 -0.4476  1.1612
 5677TIP3    H238447   2.915   5.236   4.829  1.0722 -1.3583 -0.7742
 5678TIP3   OH238448   6.618   5.444   0.715 -0.7827 -0.3356  0.8838
 5678TIP3    H138449   6.528   5.475   0.723 -1.4671 -2.2683  0.9937
 5678TIP3    H238450   6.647   5.479   0.631 -1.5116  0.5418  0.9731
 5679TIP3   OH238451   5.160   5.910  17.099 -0.8047 -0.3811 -0.1995
 5679TIP3    H138452   5.113   5.960  17.166 -1.6954 -1.8751  0.3108
 5679TIP3    H238453   5.247   5.897  17.137 -0.4935  0.8915 -0.4124
 5680TIP3   OH238454   5.591   5.211   2.238 -0.6873  0.6678  0.1670
 5680TIP3    H138455   5.540   5.197   2.159 -0.8209 -0.0012  0.3664
 5680TIP3    H238456   5.529   5.202   2.310 -0.2699 -0.3523  0.4201
 5681TIP3   OH238457   2.004   0.646  15.617 -1.0172 -0.5453  0.2807
 5681TIP3    H138458   1.963   0.649  15.531 -3.3943 -3.4329  1.1368
 5681TIP3    H238459   2.071   0.578  15.610  0.2949  0.6888  0.2377
 5682TIP3   OH238460   4.126   4.599   0.787  0.0446 -0.3552  0.7718
 5682TIP3    H138461   4.163   4.522   0.831  0.6085  0.2712  1.4351
 5682TIP3    H238462   4.195   4.665   0.793 -0.2429  0.0523 -0.2307
 5683TIP3   OH238463   3.343   4.390  12.569  0.2644  0.0726  0.1611
 5683TIP3    H138464   3.391   4.380  12.487  0.7793  0.8728  0.3466
 5683TIP3    H238465   3.375   4.319  12.625  0.0039 -0.3972 -0.2758
 5684TIP3   OH238466   0.275   2.042  17.078 -0.4259  0.2451  0.1159
 5684TIP3    H138467   0.198   1.990  17.054  0.3737 -0.5244 -0.8740
 5684TIP3    H238468   0.242   2.104  17.144 -1.6040 -0.9013  0.6545
 5685TIP3   OH238469   0.476   5.843   2.957 -0.0966  0.3083 -0.6431
 5685TIP3    H138470   0.497   5.920   3.010  0.5695 -0.3657  0.0938
 5685TIP3    H238471   0.381   5.845   2.948 -0.0136  1.7622 -1.4885
 5686TIP3   OH238472   1.671   0.350   5.052  0.1752 -0.7439  0.3460
 5686TIP3    H138473   1.604   0.324   4.988 -0.3859  0.0919  0.5722
 5686TIP3    H238474   1.722   0.418   5.008 -0.6214  0.3053  0.9802
 5687TIP3   OH238475   3.076   4.110  16.610  0.5138 -0.0526 -0.3871
 5687TIP3    H138476   2.993   4.156  16.625  0.3066 -0.2663 -0.8459
 5687TIP3    H238477   3.140   4.158  16.661  0.3449  0.8850 -1.0382
 5688TIP3   OH238478   2.012   4.133   4.968  0.2527 -0.0919  0.1803
 5688TIP3    H138479   1.947   4.065   4.953 -0.3549  0.8455 -1.7400
 5688TIP3    H238480   2.096   4.090   4.950 -0.0563 -0.5526 -0.1858
 5689TIP3   OH238481   2.142   0.928  15.628 -0.9521 -0.2563  0.3330
 5689TIP3    H138482   2.094   0.849  15.605 -1.4103 -0.5736  2.2634
 5689TIP3    H238483   2.215   0.897  15.683 -1.3256  0.6675  1.3865
 5690TIP3   OH238484   5.755   5.604   5.681  0.0759  0.1317  0.3844
 5690TIP3    H138485   5.762   5.660   5.603 -0.6146  1.0706  0.9677
 5690TIP3    H238486   5.837   5.555   5.683 -0.5892 -1.2168 -1.8977
 5691TIP3   OH238487   3.655   4.634  13.039  0.0299  0.2680  0.2148
 5691TIP3    H138488   3.743   4.598  13.046  0.0307  0.4348  1.2175
 5691TIP3    H238489   3.620   4.595  12.959  1.4816  1.2608 -0.9557
 5692TIP3   OH238490   0.412   3.462   6.399  0.1116 -0.2104 -1.1721
 5692TIP3    H138491   0.416   3.541   6.453 -0.8638 -0.6958 -0.3505
 5692TIP3    H238492   0.400   3.494   6.310  2.1922  0.6251 -1.2193
 5693TIP3   OH238493   5.855   3.589  10.913  0.4994  0.3939 -0.3982
 5693TIP3    H138494   5.927   3.582  10.851  1.7550 -1.2656  1.1430
 5693TIP3    H238495   5.854   3.682  10.938  0.7461  0.8421 -1.9106
 5694TIP3   OH238496   6.011   5.556   5.708  0.2788  0.1597  0.2965
 5694TIP3    H138497   6.086   5.607   5.679  0.3712  0.4287  0.9893
 5694TIP3    H238498   6.017   5.556   5.804 -0.5656  0.1362  0.3606
 5695TIP3   OH238499   1.041   3.068   4.254 -0.3455  0.1543  0.1920
 5695TIP3    H138500   1.109   3.007   4.225 -0.3113  1.0219 -1.6884
 5695TIP3    H238501   1.089   3.135   4.302 -0.2953 -0.8686  1.6307
 5696TIP3   OH238502   6.060   0.990   4.673  0.4913 -0.2635 -0.1817
 5696TIP3    H138503   5.972   1.014   4.701  0.6470 -0.5885  0.6303
 5696TIP3    H238504   6.098   0.945   4.749  1.6723  0.6572 -0.1852
 5697TIP3   OH238505   2.582   0.959  12.813 -0.1393 -0.6337 -0.0394
 5697TIP3    H138506   2.604   0.867  12.802  1.8008 -0.4178  1.4119
 5697TIP3    H238507   2.638   0.988  12.885 -1.8364  1.2973  0.6155
 5698TIP3   OH238508   3.251   6.180   1.400 -0.3557 -0.5650 -0.0099
 5698TIP3    H138509   3.318   6.212   1.459  0.4239 -2.1293  0.0179
 5698TIP3    H238510   3.231   6.254   1.342 -1.1932  1.0397  2.1795
 5699TIP3   OH238511   5.034   1.150   5.864  0.0959  0.0145 -0.4504
 5699TIP3    H138512   5.026   1.166   5.958  0.9639 -0.6007 -0.2623
 5699TIP3    H238513   5.083   1.068   5.858  0.5177  0.3324 -1.4439
 5700TIP3   OH238514   1.747   5.189  13.297  0.0985 -0.3194  0.5081
 5700TIP3    H138515   1.784   5.265  13.252  1.7134 -0.7165  1.0912
 5700TIP3    H238516   1.712   5.225  13.379 -0.3917 -0.0088  0.1675
 5701TIP3   OH238517   5.193   1.237   3.447 -0.2820 -0.3971  0.3337
 5701TIP3    H138518   5.119   1.231   3.387 -0.4417 -2.1857  0.6468
 5701TIP3    H238519   5.266   1.199   3.399  0.7384  2.1810 -0.3192
 5702TIP3   OH238520   2.254   6.383   5.582 -0.4312 -0.3121 -0.7162
 5702TIP3    H138521   2.270   6.308   5.640  0.2331  0.4129  0.0689
 5702TIP3    H238522   2.314   6.370   5.509 -1.0436 -1.0665 -1.1013
 5703TIP3   OH238523   6.396   3.770   1.309 -0.1570 -0.6267 -0.1583
 5703TIP3    H138524   6.356   3.786   1.395 -2.4448 -0.3308 -1.2024
 5703TIP3    H238525   6.450   3.847   1.292  0.2813 -0.6646  0.9552
 5704TIP3   OH238526   4.870   1.906   6.483  0.4484 -0.2640 -0.5808
 5704TIP3    H138527   4.783   1.872   6.503 -0.5437  2.1417 -0.4805
 5704TIP3    H238528   4.906   1.844   6.420 -1.1343 -1.5568 -0.2874
 5705TIP3   OH238529   6.064   6.200   5.297 -0.5729 -0.3818  0.2338
 5705TIP3    H138530   6.121   6.149   5.240 -0.3151  1.2717 -1.0710
 5705TIP3    H238531   5.975   6.170   5.276 -0.4482 -0.1116 -0.7335
 5706TIP3   OH238532   1.506   5.241  13.553 -0.1502 -0.2650  0.2534
 5706TIP3    H138533   1.517   5.333  13.576 -0.5407 -0.1169 -0.1490
 5706TIP3    H238534   1.473   5.242  13.463  2.0782 -0.8379 -0.6412
 5707TIP3   OH238535   0.115   1.962   5.260  0.2438  0.0906  0.5015
 5707TIP3    H138536   0.043   2.025   5.252  1.8174  1.8928 -0.2710
 5707TIP3    H238537   0.123   1.922   5.174  1.0784  0.9854  0.1462
 5708TIP3   OH238538   5.538   5.777  16.687  0.2230 -0.1930 -0.9506
 5708TIP3    H138539   5.614   5.802  16.633  0.5107  4.0000  1.0160
 5708TIP3    H238540   5.468   5.836  16.658 -1.4126 -1.9062 -0.6485
 5709TIP3   OH238541   4.842   1.117   4.364 -0.1026  0.1181  0.4989
 5709TIP3    H138542   4.888   1.113   4.447 -0.3448 -0.9259  0.5974
 5709TIP3    H238543   4.754   1.148   4.386 -1.3506 -3.4406  1.2292
 5710TIP3   OH238544   3.202   0.713  16.849 -0.2538 -0.3952  0.2578
 5710TIP3    H138545   3.225   0.698  16.941 -0.2678  0.8105  0.4739
 5710TIP3    H238546   3.188   0.625  16.813 -0.0126 -0.8937  1.3428
 5711TIP3   OH238547   1.569   5.988  13.379  0.1256 -0.2506 -0.1306
 5711TIP3    H138548   1.635   6.037  13.330  0.9127 -0.5023  0.6567
 5711TIP3    H238549   1.615   5.958  13.457 -0.5908 -1.4789 -0.1639
 5712TIP3   OH238550   3.971   5.902   1.901  0.3176 -0.0723  0.4265
 5712TIP3    H138551   4.055   5.926   1.938  0.5165 -1.5981  1.0404
 5712TIP3    H238552   3.907   5.956   1.948  0.7649 -0.4631  1.5044
 5713TIP3   OH238553   1.458   5.435  13.243  0.4161  0.0586 -0.0500
 5713TIP3    H138554   1.415   5.353  13.268  1.7594 -0.5849  0.2437
 5713TIP3    H238555   1.392   5.503  13.260 -0.2722 -0.8292  0.9419
 5714TIP3   OH238556   3.314   3.760   2.176  0.6892  0.0060  0.5348
 5714TIP3    H138557   3.370   3.792   2.106  2.3368  1.4456  2.3986
 5714TIP3    H238558   3.345   3.805   2.255 -3.2534  1.1888  1.6854
 5715TIP3   OH238559   2.681   6.013   2.840  0.1708 -0.7310  0.0386
 5715TIP3    H138560   2.721   6.068   2.907 -0.6608  2.0204 -1.5564
 5715TIP3    H238561   2.722   6.042   2.758 -0.8237 -2.0239 -0.9654
 5716TIP3   OH238562   3.615   2.819   5.555 -0.4095  0.3513 -0.3200
 5716TIP3    H138563   3.528   2.781   5.542  1.3260 -3.9467 -0.9691
 5716TIP3    H238564   3.626   2.820   5.650 -0.6213 -0.5781 -0.2752
 5717TIP3   OH238565   1.864   1.480  14.994  0.7980 -0.5516 -0.6059
 5717TIP3    H138566   1.924   1.415  15.031  0.7134  0.4139  1.3443
 5717TIP3    H238567   1.896   1.564  15.027  0.0738  0.2739 -1.9274
 5718TIP3   OH238568   4.894   0.232   5.234  0.3780 -0.1568 -0.4528
 5718TIP3    H138569   4.919   0.150   5.191  1.3152  0.8231 -1.8782
 5718TIP3    H238570   4.798   0.229   5.237  0.4231 -1.8391  0.6872
 5719TIP3   OH238571   1.611   2.065  12.828  0.0359  0.0864  0.2994
 5719TIP3    H138572   1.591   2.058  12.735  0.9092 -0.2786  0.1332
 5719TIP3    H238573   1.669   2.141  12.834 -2.0060  1.7054  0.8935
 5720TIP3   OH238574   6.040   0.037  12.631  0.3049  0.6735 -0.4036
 5720TIP3    H138575   6.002   0.037  12.719  0.6594  1.3707 -0.2458
 5720TIP3    H238576   6.006   0.116  12.591  1.6933  1.3960 -0.2071
 5721TIP3   OH238577   0.162   1.884  13.763 -0.0537  0.4689  0.3013
 5721TIP3    H138578   0.147   1.973  13.733 -0.5176 -0.0743 -1.1818
 5721TIP3    H238579   0.082   1.861  13.811 -0.2520  0.6001  0.0372
 5722TIP3   OH238580   4.675   3.963   4.292 -0.1612 -0.0314 -0.9191
 5722TIP3    H138581   4.670   3.877   4.251  0.3998 -0.0437 -0.9608
 5722TIP3    H238582   4.592   4.005   4.268  0.0038 -0.1708 -1.7814
 5723TIP3   OH238583   4.804   3.206  12.032 -0.3509 -0.1727  0.1139
 5723TIP3    H138584   4.864   3.164  12.093 -0.1586  1.3934  1.0763
 5723TIP3    H238585   4.763   3.276  12.083 -1.5489  0.0313 -1.0634
 5724TIP3   OH238586   4.781   4.830   2.945  0.2029 -0.5997 -0.0522
 5724TIP3    H138587   4.824   4.781   2.874  0.1745  1.1401 -1.3223
 5724TIP3    H238588   4.688   4.826   2.923  0.2495  0.5055 -0.5244
 5725TIP3   OH238589   1.949   1.533  13.012 -0.0953 -0.0712 -0.1273
 5725TIP3    H138590   2.042   1.525  13.033 -0.3125 -3.0125  0.0819
 5725TIP3    H238591   1.947   1.566  12.922  1.1707 -0.1418 -0.1927
 5726TIP3   OH238592   3.607   0.205   4.142 -0.0683  0.0130 -0.4082
 5726TIP3    H138593   3.660   0.283   4.130  2.5411 -1.6088 -0.1803
 5726TIP3    H238594   3.557   0.197   4.061  0.4650  1.2875 -0.8878
 5727TIP3   OH238595   4.062   5.087  14.543 -0.0197  0.5178  0.6891
 5727TIP3    H138596   3.981   5.131  14.517  0.7313  1.3096 -0.4197
 5727TIP3    H238597   4.034   5.007  14.587 -1.4038 -0.5207 -1.8988
 5728TIP3   OH238598   5.329   4.778   5.542 -0.5124  0.5039  0.3023
 5728TIP3    H138599   5.296   4.696   5.504  0.9113  0.2565 -0.4797
 5728TIP3    H238600   5.417   4.756   5.572 -1.1661  1.0043  2.7985
 5729TIP3   OH238601   5.054   1.291   0.423 -0.1525  0.5653  0.2851
 5729TIP3    H138602   5.003   1.281   0.343 -0.4943  1.2188  0.4175
 5729TIP3    H238603   5.145   1.279   0.395 -0.3225  0.1029 -0.0740
 5730TIP3   OH238604   5.688   5.355   3.489 -0.7005 -0.0498  0.5614
 5730TIP3    H138605   5.720   5.274   3.528 -1.2995 -1.0618 -0.9267
 5730TIP3    H238606   5.594   5.341   3.477 -0.9180  1.1023  0.8039
 5731TIP3   OH238607   1.763   1.207   0.996  0.2115 -0.0228 -0.3370
 5731TIP3    H138608   1.716   1.216   1.079  1.1310  0.3407  0.1578
 5731TIP3    H238609   1.784   1.297   0.970 -1.3055 -0.0127 -1.7160
 5732TIP3   OH238610   5.477   2.672   1.130  0.7668 -0.2573 -0.0094
 5732TIP3    H138611   5.456   2.748   1.184  1.9161  0.2351 -0.2303
 5732TIP3    H238612   5.421   2.682   1.052  0.4218 -0.0147  0.2670
 5733TIP3   OH238613   4.415   1.030   1.778 -0.3119  0.0538  0.3227
 5733TIP3    H138614   4.344   1.009   1.718 -0.2814 -0.5560  0.4989
 5733TIP3    H238615   4.387   1.110   1.822 -1.6386 -1.0857  1.6064
 5734TIP3   OH238616   5.625   3.825   2.501 -0.5443 -0.2938 -0.2067
 5734TIP3    H138617   5.672   3.836   2.418 -1.0761 -1.0476 -0.6206
 5734TIP3    H238618   5.653   3.899   2.554  1.2555 -0.8065 -0.3637
 5735TIP3   OH238619   2.170   5.621   4.490 -0.5368 -0.1516  0.1017
 5735TIP3    H138620   2.211   5.598   4.407  0.1709  0.7691  0.1718
 5735TIP3    H238621   2.178   5.543   4.544  1.4535  0.1044  0.2275
 5736TIP3   OH238622   3.218   2.691   3.462  0.1045  0.1574 -0.1125
 5736TIP3    H138623   3.302   2.724   3.432 -0.9962  1.9720 -1.4066
 5736TIP3    H238624   3.200   2.615   3.406 -0.2836  1.3635 -1.7000
 5737TIP3   OH238625   0.970   6.098  16.116 -0.6070 -0.0269  0.6164
 5737TIP3    H138626   0.900   6.139  16.066  0.9248  0.7654 -0.9801
 5737TIP3    H238627   0.986   6.014  16.073  0.1364  0.2742  0.2829
 5738TIP3   OH238628   4.055   6.198   3.812  0.0038  0.7493 -0.1657
 5738TIP3    H138629   4.141   6.237   3.799  0.6151 -0.8258 -1.0902
 5738TIP3    H238630   4.025   6.174   3.725 -0.5910 -0.3096  0.3077
 5739TIP3   OH238631   3.915   4.138  11.096 -0.0674 -0.1720  0.3285
 5739TIP3    H138632   3.973   4.097  11.032 -0.4580 -1.5250  0.8064
 5739TIP3    H238633   3.865   4.065  11.133 -0.9931  0.7814  1.0145
 5740TIP3   OH238634   1.817   5.470  12.256  0.0775  0.0905 -0.0912
 5740TIP3    H138635   1.744   5.434  12.206  0.8760 -1.6281 -0.0784
 5740TIP3    H238636   1.803   5.564  12.254 -1.5164 -0.1317 -1.0414
 5741TIP3   OH238637   5.221   0.001   2.604  0.4670 -0.2768 -0.7480
 5741TIP3    H138638   5.262   0.007   2.691  1.5604 -1.4022 -1.1583
 5741TIP3    H238639   5.186   0.089   2.588  0.4673  0.0191  0.7150
 5742TIP3   OH238640   2.602   4.080  13.258  0.2630  0.0636 -0.5449
 5742TIP3    H138641   2.692   4.082  13.289 -0.0592  1.6107  0.4166
 5742TIP3    H238642   2.606   4.123  13.172  0.6403 -1.1820 -1.1713
 5743TIP3   OH238643   4.673   0.491   0.086 -0.2113  0.2953  0.7960
 5743TIP3    H138644   4.598   0.433   0.099  0.6288 -0.6030  1.8242
 5743TIP3    H238645   4.685   0.495  -0.009  0.2856 -2.0022  0.7105
 5744TIP3   OH238646   4.316   1.157   4.158  0.4952 -0.6833 -0.3582
 5744TIP3    H138647   4.303   1.228   4.095  1.1399 -1.0202 -0.8764
 5744TIP3    H238648   4.392   1.185   4.210  0.5239 -0.8305 -0.3233
 5745TIP3   OH238649   5.778   2.643  11.221 -0.0592 -0.8326  0.0241
 5745TIP3    H138650   5.690   2.672  11.242 -0.0363 -1.2993  0.7961
 5745TIP3    H238651   5.826   2.649  11.304  0.3717 -1.5143 -0.1630
 5746TIP3   OH238652   0.335   2.285   1.139 -0.2950 -0.5282 -0.0040
 5746TIP3    H138653   0.241   2.302   1.141 -0.3258 -0.6848  1.8938
 5746TIP3    H238654   0.363   2.314   1.052 -1.6362  1.9963  0.3220
 5747TIP3   OH238655   1.815   5.072   0.367  0.3898  0.1122  0.0221
 5747TIP3    H138656   1.800   4.990   0.414  1.5346 -1.2824 -1.8953
 5747TIP3    H238657   1.907   5.068   0.341  0.1622  1.4836 -1.0873
 5748TIP3   OH238658   1.148   5.342   1.052  0.1963  0.1905  0.4469
 5748TIP3    H138659   1.237   5.332   1.018 -0.0555 -0.0447 -0.1602
 5748TIP3    H238660   1.136   5.268   1.111  0.8370  0.9145  1.5002
 5749TIP3   OH238661   6.050   6.593  12.477  0.0176  0.1914 -0.3612
 5749TIP3    H138662   6.070   6.675  12.523 -0.5879 -0.5314  1.2891
 5749TIP3    H238663   6.024   6.621  12.389 -1.0029  1.8738  0.4048
 5750TIP3   OH238664   1.879   1.962  13.978 -0.0259 -0.2605  0.0738
 5750TIP3    H138665   1.837   2.042  13.946 -1.0292 -1.6549 -2.3697
 5750TIP3    H238666   1.968   1.967  13.943  0.2524  0.2452  0.8236
 5751TIP3   OH238667   6.764   1.703  13.463  0.2286  0.4446 -0.1528
 5751TIP3    H138668   6.825   1.639  13.500 -0.6838 -0.2142  0.2189
 5751TIP3    H238669   6.706   1.726  13.535  0.8178  2.0599 -0.1484
 5752TIP3   OH238670   4.802   6.271   2.877 -0.5051 -0.0179 -0.1901
 5752TIP3    H138671   4.778   6.193   2.827 -0.3094  0.1472 -0.5427
 5752TIP3    H238672   4.741   6.339   2.846 -0.6970 -0.0391  0.1400
 5753TIP3   OH238673   1.139   4.772   0.855  0.1277  0.2132  0.6600
 5753TIP3    H138674   1.198   4.697   0.864 -0.6545 -0.5261 -0.2390
 5753TIP3    H238675   1.063   4.738   0.810  0.1503  1.7711 -0.6550
 5754TIP3   OH238676   2.867   0.614   3.812 -0.2016  0.4529 -0.4849
 5754TIP3    H138677   2.883   0.667   3.734 -0.4696  1.4955  0.1382
 5754TIP3    H238678   2.813   0.670   3.868  2.0242  0.8070  1.5231
 5755TIP3   OH238679   0.469   6.082   0.339 -0.4146  0.1709  0.2295
 5755TIP3    H138680   0.526   6.031   0.281 -0.5090  1.9336 -1.5327
 5755TIP3    H238681   0.395   6.107   0.284  0.5092  3.7402  0.3555
 5756TIP3   OH238682   5.329   3.384  12.359 -0.7815  0.2444  0.3906
 5756TIP3    H138683   5.334   3.364  12.266 -2.2076  0.7257  0.1861
 5756TIP3    H238684   5.309   3.478  12.363 -0.3938  0.3033  1.1825
 5757TIP3   OH238685   6.617   5.331  15.539 -0.2461  0.1716 -0.3264
 5757TIP3    H138686   6.522   5.342  15.540 -0.0759  1.9679  0.6295
 5757TIP3    H238687   6.648   5.394  15.605  1.7980  1.8291 -2.7002
 5758TIP3   OH238688   5.033   4.259  14.141 -0.0217 -0.3051 -0.2486
 5758TIP3    H138689   4.988   4.343  14.130  0.6582  0.2051  0.7143
 5758TIP3    H238690   5.068   4.239  14.054 -0.0917  0.4604 -0.4565
 5759TIP3   OH238691   0.993   5.222   1.748 -0.4458  0.1683 -0.0326
 5759TIP3    H138692   1.086   5.246   1.755 -0.4201  0.2314 -0.5788
 5759TIP3    H238693   0.951   5.300   1.714 -1.1826  1.1423  2.8285
 5760TIP3   OH238694   5.715   1.933   2.752 -0.1750 -0.2972  0.1265
 5760TIP3    H138695   5.647   1.958   2.690  0.8083  0.2123 -0.7803
 5760TIP3    H238696   5.782   1.891   2.698 -0.3881 -2.1074  1.1971
 5761TIP3   OH238697   1.099   3.755   1.026  0.8480  0.1620 -0.2835
 5761TIP3    H138698   1.115   3.846   1.048  1.0468 -0.2838  1.6152
 5761TIP3    H238699   1.043   3.758   0.949  1.4543  1.8592 -0.7053
 5762TIP3   OH238700   2.296   0.684   1.076 -0.3170 -0.4222 -0.1466
 5762TIP3    H138701   2.251   0.756   1.121 -2.2340 -1.7950  0.2630
 5762TIP3    H238702   2.228   0.642   1.024  1.0950 -1.0622 -1.5652
 5763TIP3   OH238703   6.300   5.154  14.028  0.5697  0.4401 -0.6685
 5763TIP3    H138704   6.231   5.186  13.970 -1.2993 -0.2915  1.0450
 5763TIP3    H238705   6.297   5.212  14.103  1.6861  0.2377 -0.4430
 5764TIP3   OH238706   0.258   3.996  13.868 -0.0457 -0.5426  0.1728
 5764TIP3    H138707   0.192   4.054  13.831 -0.3472 -2.2957 -2.2453
 5764TIP3    H238708   0.209   3.920  13.899  0.6811 -1.2497 -0.3728
 5765TIP3   OH238709   2.637   5.607   3.966 -0.4823 -0.1652  0.2966
 5765TIP3    H138710   2.607   5.678   4.024 -0.2077 -0.7317  1.1594
 5765TIP3    H238711   2.705   5.563   4.017 -0.6947 -1.0855 -0.2048
 5766TIP3   OH238712   5.230   0.038   1.236 -0.2470 -0.5883 -0.1980
 5766TIP3    H138713   5.278   0.079   1.163 -0.3520 -1.2597 -0.6532
 5766TIP3    H238714   5.242   0.098   1.309  1.4316 -0.8229 -0.2532
 5767TIP3   OH238715   1.828   4.258  13.261  0.1283 -0.0459  0.3935
 5767TIP3    H138716   1.880   4.305  13.196 -0.9052  0.9334  0.2437
 5767TIP3    H238717   1.789   4.327  13.315 -0.2821 -0.7910  1.0774
 5768TIP3   OH238718   4.489   4.934  15.038 -0.1983 -0.0317  0.1386
 5768TIP3    H138719   4.503   4.843  15.012  1.0447  0.1503  0.0851
 5768TIP3    H238720   4.411   4.932  15.093 -0.3543 -1.0841 -0.1034
 5769TIP3   OH238721   6.385   5.501  14.486 -0.7918 -0.1567  0.1410
 5769TIP3    H138722   6.376   5.581  14.434  0.6357 -0.0356  0.0283
 5769TIP3    H238723   6.402   5.532  14.575  1.1701 -0.2521 -0.1423
 5770TIP3   OH238724   6.568   0.566  12.143  0.5159 -0.3833  0.2872
 5770TIP3    H138725   6.613   0.613  12.073  1.9484 -0.9556  0.7801
 5770TIP3    H238726   6.518   0.634  12.189  1.8435  0.5486  0.4485
 5771TIP3   OH238727   1.936   6.619  15.711  0.2179 -0.2927 -0.0441
 5771TIP3    H138728   1.888   6.548  15.667 -0.0681  0.3110 -0.7222
 5771TIP3    H238729   1.887   6.698  15.689  0.9427  0.2056  0.1170
 5772TIP3   OH238730   5.023   4.237   3.309 -0.2695  0.2370 -0.2187
 5772TIP3    H138731   5.116   4.232   3.287  0.3827  1.6992  1.8676
 5772TIP3    H238732   4.987   4.153   3.282  2.2627 -1.5286  1.4922
 5773TIP3   OH238733   1.030   6.018   3.228 -0.1533  0.3187 -0.1174
 5773TIP3    H138734   1.071   5.997   3.312 -1.1894  0.4240  0.4245
 5773TIP3    H238735   1.097   6.068   3.181  1.3945 -1.8408 -0.3884
 5774TIP3   OH238736   2.463   0.652   4.192 -0.6499 -0.0060 -0.6585
 5774TIP3    H138737   2.380   0.630   4.233  0.0606  0.1301  0.9450
 5774TIP3    H238738   2.512   0.569   4.192 -1.0944 -0.3060 -2.4469
 5775TIP3   OH238739   2.778   3.344   5.823  0.2467  0.7924  0.7301
 5775TIP3    H138740   2.712   3.400   5.783 -0.3817 -0.9983 -0.9054
 5775TIP3    H238741   2.728   3.273   5.864  1.0681  0.7431  1.7002
 5776TIP3   OH238742   4.632   4.064   0.913 -0.0754  0.2155  0.7911
 5776TIP3    H138743   4.673   4.150   0.921  0.2448  0.0924  0.5506
 5776TIP3    H238744   4.562   4.063   0.978 -1.4013  1.3946 -0.5519
 5777TIP3   OH238745   1.894   4.081   6.512 -0.0782  0.0403 -0.0044
 5777TIP3    H138746   1.886   4.124   6.426  0.1527 -0.8312 -0.4678
 5777TIP3    H238747   1.824   4.016   6.512 -0.4125  0.3956  0.6900
 5778TIP3   OH238748   3.252   0.916   4.703 -0.3483 -0.1908 -0.3377
 5778TIP3    H138749   3.311   0.958   4.766 -0.5353 -1.1145  0.4819
 5778TIP3    H238750   3.258   0.970   4.624  0.4229  0.5946  0.2439
 5779TIP3   OH238751   5.032   3.760   1.366  0.0260 -0.4633  0.5753
 5779TIP3    H138752   5.119   3.776   1.402  0.5773  1.5013 -1.4212
 5779TIP3    H238753   4.985   3.714   1.436  2.1445 -0.1408  2.3065
 5780TIP3   OH238754   0.574   5.361  12.352 -0.0304 -0.1820  0.0912
 5780TIP3    H138755   0.563   5.363  12.447 -1.2256 -2.0327  0.0451
 5780TIP3    H238756   0.668   5.377  12.338  0.0554  0.7331  1.5133
 5781TIP3   OH238757   2.365   0.951  16.546 -0.2060  0.0091  0.1460
 5781TIP3    H138758   2.313   0.972  16.468  0.0439 -1.2588 -0.3771
 5781TIP3    H238759   2.421   0.878  16.519  1.1431  0.6862  1.0041
 5782TIP3   OH238760   0.862   4.448  13.983 -0.0238  0.8488 -0.4932
 5782TIP3    H138761   0.885   4.392  13.909  0.9612  1.4888 -0.6796
 5782TIP3    H238762   0.775   4.483  13.961 -0.1322  0.3180 -0.9119
 5783TIP3   OH238763   5.607   6.302   2.093 -0.3824  0.0136 -0.3683
 5783TIP3    H138764   5.552   6.339   2.024  1.8807  2.1883 -1.1652
 5783TIP3    H238765   5.652   6.377   2.131  3.0287 -1.6559 -0.7156
 5784TIP3   OH238766   1.471   0.615   6.045  0.0433  0.2590  0.4288
 5784TIP3    H138767   1.549   0.561   6.062  0.0858  0.4490  0.8339
 5784TIP3    H238768   1.429   0.624   6.130 -2.1158 -2.4164 -0.1921
 5785TIP3   OH238769   6.131   5.469  15.989  0.2125  0.4379 -0.0169
 5785TIP3    H138770   6.193   5.478  15.917 -0.0009  1.3785 -0.0906
 5785TIP3    H238771   6.181   5.422  16.057  0.9102  0.9051 -0.1943
 5786TIP3   OH238772   0.272   0.738  13.587  0.4241 -0.5736 -0.3165
 5786TIP3    H138773   0.250   0.797  13.515  0.1458  2.0003  1.7100
 5786TIP3    H238774   0.194   0.684  13.599  0.6638 -1.4099 -2.1922
 5787TIP3   OH238775   2.028   2.934   5.966 -0.4112  0.4223  0.1628
 5787TIP3    H138776   2.015   3.026   5.944  1.0101  0.5661 -0.1929
 5787TIP3    H238777   2.115   2.931   6.006 -0.3017 -0.8068 -0.1210
 5788TIP3   OH238778   6.712   2.562   3.536 -0.2605 -0.0218 -0.2255
 5788TIP3    H138779   6.656   2.619   3.483 -1.9082 -1.6007 -0.2735
 5788TIP3    H238780   6.714   2.479   3.489  1.8621 -0.1511 -0.0157
 5789TIP3   OH238781   5.641   2.147   4.613 -0.2290  0.2908 -0.3057
 5789TIP3    H138782   5.684   2.164   4.696  0.1634  0.6262 -0.5765
 5789TIP3    H238783   5.556   2.109   4.637 -0.4093  1.0326  0.2660
 5790TIP3   OH238784   5.684   0.874  14.884  0.7803  0.2706 -0.4580
 5790TIP3    H138785   5.699   0.783  14.857 -3.0778  0.0104 -2.4087
 5790TIP3    H238786   5.744   0.925  14.830  3.1968 -0.9845  0.8391
 5791TIP3   OH238787   5.273   3.109  14.871 -0.5441 -0.3218 -0.3165
 5791TIP3    H138788   5.205   3.130  14.935 -2.7643 -1.0045 -2.2985
 5791TIP3    H238789   5.309   3.025  14.901 -1.0771 -0.3087  0.3956
 5792TIP3   OH238790   1.880   3.908   4.853 -0.0721 -0.3259 -0.4710
 5792TIP3    H138791   1.880   3.813   4.865 -0.7027 -0.2309  0.3876
 5792TIP3    H238792   1.939   3.923   4.779  3.4098 -1.1027  1.9043
 5793TIP3   OH238793   4.658   3.460  12.413  0.2121  0.1374 -0.1346
 5793TIP3    H138794   4.717   3.398  12.369  0.8605  0.3123  0.4828
 5793TIP3    H238795   4.675   3.447  12.506 -0.1728  0.7462  0.0220
 5794TIP3   OH238796   3.516   5.220  16.782  0.0891  0.0501  0.3040
 5794TIP3    H138797   3.440   5.276  16.799 -0.2212  0.1607 -1.2588
 5794TIP3    H238798   3.488   5.164  16.709  1.0302 -0.8897  0.6352
 5795TIP3   OH238799   0.987   1.737   2.781  0.1060 -0.4517 -0.3027
 5795TIP3    H138800   1.058   1.685   2.820  0.2857 -1.8732 -2.3747
 5795TIP3    H238801   0.947   1.678   2.717 -3.0203  0.2925  0.7776
 5796TIP3   OH238802   5.610   3.971  14.348 -0.1236 -0.0944 -0.0757
 5796TIP3    H138803   5.680   3.940  14.405  1.4163  1.4518 -1.0314
 5796TIP3    H238804   5.541   3.999  14.409  0.6984 -0.2507  0.9483
 5797TIP3   OH238805   0.491   3.902   0.912 -0.1118  0.7213 -0.8232
 5797TIP3    H138806   0.543   3.827   0.941 -0.5919  0.9990  0.8461
 5797TIP3    H238807   0.438   3.868   0.839 -0.7385 -0.7380  0.2569
 5798TIP3   OH238808   4.286   3.395  13.189  0.0466 -0.0066 -0.2127
 5798TIP3    H138809   4.220   3.444  13.141 -0.4720  1.1489  1.5526
 5798TIP3    H238810   4.271   3.419  13.281  1.3341 -1.6511  0.4809
 5799TIP3   OH238811   4.563   6.670  13.098 -0.0643 -0.3340  0.2033
 5799TIP3    H138812   4.602   6.756  13.087  1.7616 -1.1441 -0.0745
 5799TIP3    H238813   4.541   6.642  13.009 -1.0699  0.0176  0.3360
 5800TIP3   OH238814   4.441   0.811  13.003  0.7257 -0.1036  0.0269
 5800TIP3    H138815   4.412   0.785  13.091 -0.5953 -0.2926 -0.4484
 5800TIP3    H238816   4.530   0.776  12.996  0.4834 -0.9397  0.9311
 5801TIP3   OH238817   4.084   5.116  12.525  0.0337  0.6664 -0.1135
 5801TIP3    H138818   4.021   5.056  12.484 -0.4753  0.3786  1.0270
 5801TIP3    H238819   4.164   5.106  12.474  0.1395 -1.4477  0.3790
 5802TIP3   OH238820   4.321   1.924   1.336 -0.1898 -0.0885 -0.4775
 5802TIP3    H138821   4.252   1.969   1.286 -0.3927  2.6913  1.9831
 5802TIP3    H238822   4.402   1.963   1.304 -0.0142 -0.9939 -1.1457
 5803TIP3   OH238823   4.324   5.721   3.684  0.4025  0.5696 -0.2152
 5803TIP3    H138824   4.374   5.699   3.763 -0.3228 -0.4854 -0.0191
 5803TIP3    H238825   4.354   5.657   3.619 -0.3828  0.1827 -0.2111
 5804TIP3   OH238826   1.396   1.713  12.320 -0.0951 -0.1752 -0.5044
 5804TIP3    H138827   1.433   1.627  12.299  1.3962  0.2285  0.2704
 5804TIP3    H238828   1.330   1.695  12.387 -2.0168 -1.0134 -2.4997
 5805TIP3   OH238829   3.187   4.693  15.354 -0.2802  0.3542  0.1727
 5805TIP3    H138830   3.132   4.680  15.431 -0.6642 -0.3622 -0.2060
 5805TIP3    H238831   3.128   4.676  15.280  0.1824  0.6353 -0.2675
 5806TIP3   OH238832   3.746   4.691   4.315  1.1450 -0.2674  0.2082
 5806TIP3    H138833   3.818   4.743   4.351  0.2788 -0.5421  2.4722
 5806TIP3    H238834   3.677   4.696   4.381 -1.1255  0.3057 -2.0544
 5807TIP3   OH238835   1.585   4.602   1.887  0.0347  0.8163  0.3275
 5807TIP3    H138836   1.668   4.588   1.932 -0.3598  1.7268  1.3558
 5807TIP3    H238837   1.538   4.665   1.941 -0.5622  1.7595 -1.2095
 5808TIP3   OH238838   4.771   6.075   5.099  0.0705 -0.9736  0.6441
 5808TIP3    H138839   4.709   6.142   5.124  2.8180  2.4280 -0.8330
 5808TIP3    H238840   4.772   6.076   5.003  1.1047 -2.2061  0.6008
 5809TIP3   OH238841   3.506   0.718   0.508 -0.2108 -0.4885 -0.8069
 5809TIP3    H138842   3.511   0.806   0.545 -2.5775 -0.8678  0.6552
 5809TIP3    H238843   3.583   0.710   0.452  0.9751  1.8655  0.3781
 5810TIP3   OH238844   4.080   1.880  11.474  0.4993  0.2805  0.0043
 5810TIP3    H138845   4.133   1.856  11.550 -0.4807 -3.3691 -0.2787
 5810TIP3    H238846   4.111   1.823  11.404 -1.9755 -0.0574 -0.9093
 5811TIP3   OH238847   1.485   3.127   3.659 -0.5701  0.2327  0.5692
 5811TIP3    H138848   1.531   3.081   3.588 -0.2160  1.0207  0.2714
 5811TIP3    H238849   1.549   3.130   3.730 -0.6228  0.1789  0.6183
 5812TIP3   OH238850   4.083   3.887   0.750 -0.6087 -0.1553  0.4187
 5812TIP3    H138851   4.009   3.925   0.797 -0.9926 -0.9081  0.4302
 5812TIP3    H238852   4.067   3.793   0.751 -0.5112 -0.2174 -1.0113
 5813TIP3   OH238853   1.643   1.310  15.352 -0.6055  0.6980 -0.4742
 5813TIP3    H138854   1.708   1.381  15.355  1.3131 -0.9707 -0.6398
 5813TIP3    H238855   1.610   1.304  15.442 -0.0345  1.1234 -0.2279
 5814TIP3   OH238856   0.526   3.809   2.794  0.7000 -0.1397  0.1513
 5814TIP3    H138857   0.543   3.764   2.712  0.3790 -0.0735  0.0476
 5814TIP3    H238858   0.611   3.812   2.838  1.0172  0.4450 -0.4854
 5815TIP3   OH238859   5.268   1.495   1.964 -0.2373  0.1674  0.0501
 5815TIP3    H138860   5.221   1.414   1.985  0.5599  0.1898  2.2213
 5815TIP3    H238861   5.336   1.469   1.902 -1.5431 -0.3234 -1.2098
 5816TIP3   OH238862   5.493   5.292   2.519  0.1840 -0.0872  0.1847
 5816TIP3    H138863   5.439   5.219   2.548 -1.4523  1.3231  0.8516
 5816TIP3    H238864   5.530   5.328   2.599 -1.2573  1.4711  0.1959
 5817TIP3   OH238865   2.238   4.091  12.453  0.1108  0.3645  0.6659
 5817TIP3    H138866   2.258   4.027  12.386 -1.6491 -1.3331  1.6604
 5817TIP3    H238867   2.177   4.152  12.412 -0.9109 -0.6295  0.6985
 5818TIP3   OH238868   1.117   0.088   5.276  0.3299  0.4043  0.2461
 5818TIP3    H138869   1.023   0.087   5.256  0.3419  0.0036  0.2055
 5818TIP3    H238870   1.125   0.153   5.345 -0.2286 -0.7444  1.4322
 5819TIP3   OH238871   1.815   4.688   1.478 -0.0722 -0.3111  0.6062
 5819TIP3    H138872   1.757   4.680   1.402 -1.1131  1.2835  1.1943
 5819TIP3    H238873   1.761   4.662   1.553 -0.2021  1.4867  1.1956
 5820TIP3   OH238874   6.398   4.655  11.750  0.0153  0.5533  0.5152
 5820TIP3    H138875   6.345   4.575  11.757 -1.2440  1.4455  1.9435
 5820TIP3    H238876   6.481   4.632  11.793  0.2196 -0.3990 -0.3571
 5821TIP3   OH238877   2.418   6.004  14.688  0.2071  0.3605  0.0025
 5821TIP3    H138878   2.464   5.922  14.666  0.0003  0.1038  0.5112
 5821TIP3    H238879   2.487   6.060  14.724 -0.0741 -0.4974  2.0157
 5822TIP3   OH238880   3.170   5.053  16.629 -0.3965 -0.7341  0.0426
 5822TIP3    H138881   3.131   5.130  16.589  2.3874  0.0356 -1.4531
 5822TIP3    H238882   3.125   5.044  16.713 -2.1998  1.2878 -0.6293
 5823TIP3   OH238883   4.880   3.645  16.381 -0.6239 -0.1500  0.1637
 5823TIP3    H138884   4.791   3.637  16.417 -0.5362  0.7540  0.5852
 5823TIP3    H238885   4.929   3.694  16.447 -0.3406  1.1353 -0.9606
 5824TIP3   OH238886   5.038   2.003  11.587  0.2083  0.2567 -0.3341
 5824TIP3    H138887   5.083   1.990  11.670 -0.5706  0.7979  0.1805
 5824TIP3    H238888   5.030   1.915  11.550  1.3008  0.1100 -0.2389
 5825TIP3   OH238889   0.284   0.697   0.875 -0.5613 -0.1775  0.6243
 5825TIP3    H138890   0.368   0.738   0.856 -1.2988  1.0502 -0.1092
 5825TIP3    H238891   0.301   0.641   0.951  1.2294 -1.0579 -0.3670
 5826TIP3   OH238892   4.131   1.482   4.967 -0.2465 -0.3865 -0.3017
 5826TIP3    H138893   4.049   1.479   5.016 -0.3918  1.4575 -0.3372
 5826TIP3    H238894   4.188   1.419   5.011 -0.9392 -0.0198  1.1967
 5827TIP3   OH238895   4.573   5.011   3.203  0.1858  0.0127  0.0581
 5827TIP3    H138896   4.598   5.104   3.197 -0.6095  0.1602 -1.1673
 5827TIP3    H238897   4.478   5.013   3.210  0.1268 -0.7300 -0.5000
 5828TIP3   OH238898   4.369   1.212   5.383  0.0951 -0.3663  0.0584
 5828TIP3    H138899   4.282   1.199   5.345 -0.5049  0.9845  0.8958
 5828TIP3    H238900   4.395   1.125   5.414 -0.9814 -0.7773 -0.1586
 5829TIP3   OH238901   2.662   1.041  13.874 -0.2430 -0.2393 -0.0802
 5829TIP3    H138902   2.623   0.954  13.883 -1.7214  0.2553 -1.3668
 5829TIP3    H238903   2.588   1.101  13.870  0.7262  1.0010 -0.1584
 5830TIP3   OH238904   5.363   0.490   0.629 -0.0340 -0.9039 -0.3716
 5830TIP3    H138905   5.297   0.430   0.664 -0.2545 -0.0212  0.7749
 5830TIP3    H238906   5.314   0.571   0.611  0.4115 -0.7972 -1.1644
 5831TIP3   OH238907   6.786   0.750   2.534  0.1479  0.2510 -1.3070
 5831TIP3    H138908   6.862   0.797   2.568 -0.6119 -1.1449  3.0219
 5831TIP3    H238909   6.715   0.815   2.535 -0.1308  0.0069  1.3360
 5832TIP3   OH238910   4.885   0.414   4.871 -0.1886 -0.3968 -0.0023
 5832TIP3    H138911   4.886   0.320   4.885  1.2013 -0.5351 -0.8429
 5832TIP3    H238912   4.921   0.451   4.951  0.1478 -0.6373 -0.0440
 5833TIP3   OH238913   5.318   0.380  12.041 -0.2340  0.4091  0.4306
 5833TIP3    H138914   5.325   0.310  12.107  0.1769  1.7090  1.8347
 5833TIP3    H238915   5.264   0.342  11.972  1.9414 -2.1055 -0.0107
 5834TIP3   OH238916   4.016   3.769  15.797 -0.0455  0.7385  0.1931
 5834TIP3    H138917   4.005   3.842  15.736  1.3720  0.5228 -0.3587
 5834TIP3    H238918   3.971   3.696  15.755 -1.2341  1.2114  0.6162
 5835TIP3   OH238919   5.898   4.928   3.750  0.0405  0.2274 -0.2281
 5835TIP3    H138920   5.844   5.007   3.760  0.5251  0.4248  1.0141
 5835TIP3    H238921   5.869   4.870   3.820 -0.5479 -0.8661 -1.3450
 5836TIP3   OH238922   5.883   3.144  17.139  0.2562 -0.5101  0.5116
 5836TIP3    H138923   5.888   3.232  17.102  1.5659  0.3130  2.4385
 5836TIP3    H238924   5.858   3.088  17.066 -1.0965  1.5097 -0.6778
 5837TIP3   OH238925   2.509   6.776   2.806  0.5658 -0.0506  0.3090
 5837TIP3    H138926   2.588   6.772   2.861  1.3889 -2.5275 -0.8993
 5837TIP3    H238927   2.532   6.726   2.728 -1.6673  0.6224 -0.8655
 5838TIP3   OH238928   1.390   2.962  14.513  0.7306  0.2668 -0.0002
 5838TIP3    H138929   1.425   2.880  14.478 -1.0565 -0.6464  0.2262
 5838TIP3    H238930   1.307   2.974  14.467  0.0909  0.9831  1.2784
 5839TIP3   OH238931   4.125   0.642  13.989  0.3433 -0.1841 -0.3444
 5839TIP3    H138932   4.121   0.602  13.902  0.1272  1.1898 -0.9915
 5839TIP3    H238933   4.080   0.726  13.979 -0.8778 -0.5527  1.4308
 5840TIP3   OH238934   3.462   6.246  16.506 -0.0110 -0.4104  0.2293
 5840TIP3    H138935   3.483   6.262  16.414 -1.1487 -1.5898 -0.2686
 5840TIP3    H238936   3.409   6.321  16.532  0.7310  0.1765  0.0834
 5841TIP3   OH238937   2.608   5.055  13.936  0.2037  0.7494  0.5630
 5841TIP3    H138938   2.636   4.964  13.925 -1.5702  0.0496  1.4363
 5841TIP3    H238939   2.615   5.093  13.849 -0.1331 -0.5766 -0.0694
 5842TIP3   OH238940   0.628   2.394  15.321 -0.2566  0.0750  0.1876
 5842TIP3    H138941   0.544   2.426  15.288 -1.2187 -0.2680  2.2129
 5842TIP3    H238942   0.606   2.329  15.387  1.5382  1.2542  2.0792
 5843TIP3   OH238943   6.609   0.898  12.576 -0.2271 -0.7515 -0.4650
 5843TIP3    H138944   6.519   0.911  12.545  0.2038  0.8512 -1.1294
 5843TIP3    H238945   6.620   0.803  12.578 -2.4000 -1.0368  1.0755
 5844TIP3   OH238946   3.653   4.900  15.307 -0.3786  0.0116 -0.3673
 5844TIP3    H138947   3.634   4.877  15.398  0.6324  2.9312  0.6918
 5844TIP3    H238948   3.569   4.892  15.262 -0.8107 -1.8980  0.6653
 5845TIP3   OH238949   6.493   3.564   3.600 -0.2421  0.5282  0.2360
 5845TIP3    H138950   6.538   3.488   3.561 -1.5677 -0.6487  0.9144
 5845TIP3    H238951   6.548   3.639   3.577  1.9628 -0.8045  0.8634
 5846TIP3   OH238952   2.313   4.665   4.684 -0.7071  0.7083 -0.1039
 5846TIP3    H138953   2.401   4.628   4.679 -0.6241  0.8819  0.0528
 5846TIP3    H238954   2.295   4.696   4.595  0.3425  2.8258  0.3397
 5847TIP3   OH238955   4.642   6.503   3.512  0.5550 -0.0631  0.2128
 5847TIP3    H138956   4.590   6.490   3.591 -0.6160  0.2341 -0.4872
 5847TIP3    H238957   4.647   6.598   3.502 -0.6132 -0.0822 -0.8698
 5848TIP3   OH238958   4.422   0.848   1.510  0.0143  0.3408 -0.2521
 5848TIP3    H138959   4.337   0.879   1.539  0.1231 -1.2327  2.0067
 5848TIP3    H238960   4.484   0.881   1.576  0.7594 -0.7118 -0.3886
 5849TIP3   OH238961   1.823   4.575  16.030  0.3585  0.2244 -0.4143
 5849TIP3    H138962   1.822   4.654  16.084  0.0270 -0.4740  0.6492
 5849TIP3    H238963   1.912   4.572  15.993  0.3960  1.0466 -0.4065
 5850TIP3   OH238964   1.181   1.680  16.026  0.3932  0.4573 -0.3924
 5850TIP3    H138965   1.126   1.696  16.103  1.9588 -0.4760  0.9844
 5850TIP3    H238966   1.270   1.679  16.060  0.9967 -2.4629 -1.7587
 5851TIP3   OH238967   4.063   1.767   4.660 -0.4361 -0.6999 -0.0442
 5851TIP3    H138968   4.127   1.705   4.694 -1.2405 -1.6030 -0.1580
 5851TIP3    H238969   4.088   1.778   4.568  1.3138  1.2155  0.5850
 5852TIP3   OH238970   4.049   3.500  11.282  0.5472 -0.3100  0.4864
 5852TIP3    H138971   4.088   3.526  11.199 -1.5360  0.2875 -0.3826
 5852TIP3    H238972   3.991   3.573  11.305 -1.1776 -1.7457  0.8844
 5853TIP3   OH238973   3.864   4.492  12.065 -0.4189 -0.4156  0.6051
 5853TIP3    H138974   3.839   4.445  11.985 -0.7102 -0.5463  0.7707
 5853TIP3    H238975   3.921   4.431  12.112  2.2429  0.7469 -0.8830
 5854TIP3   OH238976   3.400   6.573   2.266 -0.6388 -0.2915  0.1995
 5854TIP3    H138977   3.481   6.609   2.232 -0.4018 -0.1056  0.9404
 5854TIP3    H238978   3.417   6.479   2.273 -0.9295 -0.4305 -0.8343
 5855TIP3   OH238979   3.808   5.733  12.499  1.1943 -1.1538  0.5336
 5855TIP3    H138980   3.829   5.645  12.532  1.3494 -0.7919  1.4347
 5855TIP3    H238981   3.893   5.771  12.478  1.0326 -1.7763 -1.3870
 5856TIP3   OH238982   1.148   1.234  11.953 -0.3740 -0.1745  0.9591
 5856TIP3    H138983   1.205   1.165  11.985  0.6806  0.0534 -0.3170
 5856TIP3    H238984   1.115   1.202  11.869 -0.5364  0.5179  0.7458
 5857TIP3   OH238985   2.333   6.621   5.709  0.0458 -0.2863 -0.2055
 5857TIP3    H138986   2.367   6.642   5.622  1.2745 -1.8572 -0.1570
 5857TIP3    H238987   2.261   6.560   5.693  0.0542 -0.3173 -0.1259
 5858TIP3   OH238988   5.165   0.050  11.477  0.3302  0.0733  0.1440
 5858TIP3    H138989   5.082   0.070  11.522  0.2477 -0.8852  0.4397
 5858TIP3    H238990   5.158  -0.042  11.454  0.2473  0.6043 -2.1555
 5859TIP3   OH238991   6.665   2.668  10.912  0.0569 -0.6964 -0.0398
 5859TIP3    H138992   6.587   2.675  10.857 -0.6606 -3.8449  0.3734
 5859TIP3    H238993   6.738   2.679  10.850 -0.6398  1.1658 -0.6156
 5860TIP3   OH238994   1.290   0.691  14.681  0.0692  0.2790 -0.1016
 5860TIP3    H138995   1.242   0.770  14.705  0.0866  0.1612  0.3232
 5860TIP3    H238996   1.310   0.648  14.764  0.8575  0.2911 -0.2814
 5861TIP3   OH238997   6.713   3.546  14.342 -0.0119 -0.2840 -0.1140
 5861TIP3    H138998   6.790   3.527  14.287  0.6094  1.4200  0.1251
 5861TIP3    H238999   6.741   3.618  14.398 -0.9552 -1.3445  1.8122
 5862TIP3   OH239000   3.064   3.911  15.151  0.1912 -0.1748 -0.0880
 5862TIP3    H139001   3.138   3.861  15.118  1.4945  1.6222 -0.0435
 5862TIP3    H239002   2.988   3.854  15.136  1.6801 -2.6752  1.1231
 5863TIP3   OH239003   0.096   3.551   3.895  0.0937 -0.5117 -0.0870
 5863TIP3    H139004   0.091   3.579   3.986  2.4584 -1.9100  0.5619
 5863TIP3    H239005   0.042   3.471   3.891  1.0063 -1.1600  0.4167
 5864TIP3   OH239006   4.697   6.562   4.971 -0.1875  0.1339  0.2763
 5864TIP3    H139007   4.759   6.571   4.899  0.1270  0.5519  0.5956
 5864TIP3    H239008   4.648   6.482   4.951  1.7670 -1.3211  1.0187
 5865TIP3   OH239009   3.696   1.170   5.412  0.4897 -0.2266  0.5616
 5865TIP3    H139010   3.761   1.213   5.468  0.5343  1.0349 -0.4146
 5865TIP3    H239011   3.713   1.204   5.324 -0.4792 -1.0876  0.0109
 5866TIP3   OH239012   3.252   3.085  13.268  0.0482  0.0188  0.2696
 5866TIP3    H139013   3.323   3.148  13.257 -0.0859  0.1696  0.2494
 5866TIP3    H239014   3.185   3.115  13.206 -0.5970  0.6949  1.2722
 5867TIP3   OH239015   0.499   5.258  12.899 -0.0907 -0.2598 -0.4265
 5867TIP3    H139016   0.406   5.270  12.877 -0.4608 -1.3734  0.4405
 5867TIP3    H239017   0.518   5.167  12.876  1.0364  0.1973 -1.3841
 5868TIP3   OH239018   2.090   4.513  13.765  0.3726  0.4589 -0.0835
 5868TIP3    H139019   2.165   4.459  13.741  0.5026  1.7976 -3.1388
 5868TIP3    H239020   2.017   4.451  13.774  0.7626 -0.4190 -2.3135
 5869TIP3   OH239021   0.357   6.410   2.883  0.2406  0.4448  0.4177
 5869TIP3    H139022   0.333   6.500   2.859 -1.4117  0.3793  1.7095
 5869TIP3    H239023   0.441   6.396   2.839 -0.0848  2.1643 -0.8667
 5870TIP3   OH239024   2.170   3.543  11.205 -0.5021  0.0220 -0.0443
 5870TIP3    H139025   2.247   3.562  11.259  2.0986  0.9544 -3.6909
 5870TIP3    H239026   2.140   3.628  11.174  0.1687 -0.5502 -2.5116
 5871TIP3   OH239027   1.768   0.335  16.911  0.0080  0.1097  0.0424
 5871TIP3    H139028   1.842   0.275  16.920  1.0674  1.3373 -0.3847
 5871TIP3    H239029   1.715   0.296  16.841  0.9044 -0.1042 -0.5297
 5872TIP3   OH239030   1.323   3.783  11.750  0.2318  0.3150 -0.0322
 5872TIP3    H139031   1.413   3.778  11.784  1.8884  2.0370 -3.6110
 5872TIP3    H239032   1.281   3.851  11.802  0.9173 -0.5714  1.7538
 5873TIP3   OH239033   4.868   3.814  11.329 -0.1029  0.0610 -0.0801
 5873TIP3    H139034   4.804   3.885  11.341  0.0988  0.0002  1.4891
 5873TIP3    H239035   4.852   3.783  11.240 -1.0840  1.2035 -0.3315
 5874TIP3   OH239036   0.650   1.078  11.525  0.0649 -0.2781 -0.0581
 5874TIP3    H139037   0.731   1.117  11.494  1.1022 -1.8170  0.5724
 5874TIP3    H239038   0.585   1.101  11.459  1.2340  0.1694 -1.0860
 5875TIP3   OH239039   1.199   3.216   0.773 -0.1038 -0.4464  0.7815
 5875TIP3    H139040   1.158   3.188   0.855 -1.1618 -0.0257  0.4173
 5875TIP3    H239041   1.286   3.247   0.799 -0.6834  0.3609  1.8625
 5876TIP3   OH239042   3.789   6.096   5.622  0.3196 -0.1093 -0.2944
 5876TIP3    H139043   3.783   6.188   5.648 -0.3942  0.0354 -0.9251
 5876TIP3    H239044   3.754   6.048   5.697  0.1643  0.1695 -0.1868
 5877TIP3   OH239045   1.276   0.708   1.674 -0.4168  0.1920  0.3951
 5877TIP3    H139046   1.197   0.698   1.622 -1.8575 -2.8601  2.8255
 5877TIP3    H239047   1.339   0.647   1.634  0.6195  2.1858 -1.1790
 5878TIP3   OH239048   1.566   4.005  13.453 -0.1113  0.1214  0.2022
 5878TIP3    H139049   1.529   3.917  13.454 -0.3062  0.1570  2.7062
 5878TIP3    H239050   1.494   4.062  13.481 -0.2838  1.2873 -2.3090
 5879TIP3   OH239051   4.215   2.828   5.983 -0.1848 -0.5930 -0.1605
 5879TIP3    H139052   4.251   2.858   6.066 -0.3801 -0.9557  0.0567
 5879TIP3    H239053   4.264   2.878   5.917 -0.3649  0.0486  0.1807
 5880TIP3   OH239054   1.404   5.944   5.708  0.1614  0.1996 -0.4605
 5880TIP3    H139055   1.473   5.952   5.642 -0.7841  1.5978 -1.3251
 5880TIP3    H239056   1.428   6.007   5.775  0.9968 -1.0569  0.4594
 5881TIP3   OH239057   1.002   6.346  13.671 -0.0164  0.2811  0.0031
 5881TIP3    H139058   1.092   6.318  13.653  1.2268  3.3525  0.8512
 5881TIP3    H239059   1.011   6.424  13.725 -3.2916 -0.4117  1.8193
 5882TIP3   OH239060   5.646   1.477   4.881 -0.1435  1.0402 -0.3116
 5882TIP3    H139061   5.605   1.391   4.872 -0.3432  1.1804 -0.7540
 5882TIP3    H239062   5.708   1.482   4.809 -1.4201  1.9803 -1.4200
 5883TIP3   OH239063   1.619   6.011  13.079  0.1395  0.2525  0.1721
 5883TIP3    H139064   1.662   6.093  13.103  2.6298 -1.1789  0.9951
 5883TIP3    H239065   1.529   6.020  13.111 -0.0558  3.0996 -0.9231
 5884TIP3   OH239066   1.305   4.370  13.808  0.0852  0.6031  0.0257
 5884TIP3    H139067   1.313   4.286  13.853  1.2396 -0.8685 -2.7052
 5884TIP3    H239068   1.227   4.361  13.753  0.2055  1.3177 -0.2810
 5885TIP3   OH239069   1.807   2.696  11.362  0.1979 -0.7264 -0.4832
 5885TIP3    H139070   1.738   2.637  11.331  0.8698 -2.2659  0.7715
 5885TIP3    H239071   1.867   2.639  11.410 -0.0900  1.2453  2.4683
 5886TIP3   OH239072   0.256   4.982  16.559  0.3583  0.0961 -0.5065
 5886TIP3    H139073   0.281   5.020  16.475  0.5563  0.3085 -0.3542
 5886TIP3    H239074   0.340   4.969  16.605  0.1912  1.0819  0.1243
 5887TIP3   OH239075   5.791   0.518   3.158 -0.0057 -0.3209 -0.5404
 5887TIP3    H139076   5.868   0.489   3.209 -0.3579  0.5359  0.5063
 5887TIP3    H239077   5.717   0.504   3.217 -0.3189  1.5847 -0.4405
 5888TIP3   OH239078   2.525   3.933  15.640 -0.1489  0.3701 -0.0850
 5888TIP3    H139079   2.595   3.980  15.595  0.0498 -0.4182 -0.6224
 5888TIP3    H239080   2.560   3.845  15.654 -0.6918  0.2346  0.4676
 5889TIP3   OH239081   5.889   3.433   0.296 -0.1253  0.0753 -0.4298
 5889TIP3    H139082   5.943   3.502   0.335  2.3114 -0.7983 -2.0434
 5889TIP3    H239083   5.812   3.480   0.263 -1.1616  1.1740  3.0856
 5890TIP3   OH239084   0.436   6.234   0.798  0.1595  0.3057 -0.0554
 5890TIP3    H139085   0.464   6.241   0.707  0.0131  2.3873  0.0059
 5890TIP3    H239086   0.453   6.321   0.835  2.5941 -1.1331  2.6343
 5891TIP3   OH239087   4.482   0.192   0.715 -0.9509 -0.2262  0.2850
 5891TIP3    H139088   4.441   0.250   0.651  0.6940  0.8240  0.1499
 5891TIP3    H239089   4.467   0.234   0.800 -1.5113 -0.6695  0.4167
 5892TIP3   OH239090   0.633   2.094  13.128 -0.2926 -0.3448  0.4035
 5892TIP3    H139091   0.567   2.079  13.196  0.4477  1.9673  1.7655
 5892TIP3    H239092   0.713   2.057  13.165 -0.0775  0.1318  0.4294
 5893TIP3   OH239093   5.705   5.945  13.894 -0.9098  0.1885 -0.0862
 5893TIP3    H139094   5.624   5.963  13.942 -0.9163  1.9912 -0.7165
 5893TIP3    H239095   5.738   6.031  13.869  1.3079 -0.4762  0.2957
 5894TIP3   OH239096   2.228   4.745   1.219 -0.5251  0.2945 -0.1430
 5894TIP3    H139097   2.275   4.750   1.302 -0.9777  2.1109  0.0475
 5894TIP3    H239098   2.274   4.678   1.169  1.3288  0.9325  0.6263
 5895TIP3   OH239099   2.508   6.318  14.315  0.4840  0.2827  0.0293
 5895TIP3    H139100   2.507   6.405  14.356 -0.2798 -0.3144  1.3416
 5895TIP3    H239101   2.428   6.315  14.263  0.2356  0.1849  0.4106
 5896TIP3   OH239102   0.968   6.595  13.328 -0.0869  0.2957 -0.3354
 5896TIP3    H139103   0.884   6.565  13.363  0.9095  0.3623  2.3473
 5896TIP3    H239104   1.004   6.518  13.285 -1.1921  0.0676 -0.8897
 5897TIP3   OH239105   2.789   1.266  10.857  0.0336  0.1212 -0.1177
 5897TIP3    H139106   2.741   1.184  10.864  0.5529 -0.2381 -0.6304
 5897TIP3    H239107   2.858   1.258  10.922 -0.6646  0.6893  0.7064
 5898TIP3   OH239108   2.467   3.572  11.969  0.1548  0.4522 -0.3958
 5898TIP3    H139109   2.408   3.566  11.894 -0.9802 -0.6880  0.5322
 5898TIP3    H239110   2.496   3.663  11.970 -1.3693  0.9852 -1.0683
 5899TIP3   OH239111   2.334   0.664   5.012  0.5869 -0.5456  0.3309
 5899TIP3    H139112   2.398   0.597   5.036  0.4117 -0.5295  0.8455
 5899TIP3    H239113   2.339   0.728   5.083  0.6856 -0.0616 -0.1091
 5900TIP3   OH239114   5.598   4.687  12.694  0.1442  0.6223  0.4511
 5900TIP3    H139115   5.563   4.675  12.782 -0.1366  1.4236  0.4543
 5900TIP3    H239116   5.529   4.655  12.636  0.7512 -0.9363  0.5193
 5901TIP3   OH239117   3.525   2.926  14.439  0.4190  0.2246 -0.2007
 5901TIP3    H139118   3.473   2.992  14.393  0.2099  0.3025  0.1436
 5901TIP3    H239119   3.580   2.977  14.499 -1.4282 -0.0000  1.7978
 5902TIP3   OH239120   3.922   4.337   6.217 -0.1351  0.0043 -0.1357
 5902TIP3    H139121   3.965   4.420   6.200 -0.2694  0.1871  0.3939
 5902TIP3    H239122   3.933   4.287   6.137  0.9075  0.1128 -0.0712
 5903TIP3   OH239123   6.226   1.955  15.909  0.1488 -0.0254  0.2048
 5903TIP3    H139124   6.218   1.963  15.814  2.7978 -0.4093 -0.1123
 5903TIP3    H239125   6.189   1.869  15.929  0.2934 -0.2813 -0.5956
 5904TIP3   OH239126   4.201   4.330  11.004  0.1159 -0.4580  0.1659
 5904TIP3    H139127   4.152   4.302  10.927  1.3829 -0.8656 -0.5322
 5904TIP3    H239128   4.289   4.349  10.971  0.4907  0.0863  1.3929
 5905TIP3   OH239129   5.035   0.328  15.464  0.4400  1.1709 -0.1441
 5905TIP3    H139130   5.109   0.343  15.406  0.6347 -0.4264 -0.3633
 5905TIP3    H239131   5.054   0.244  15.506 -1.5868  0.3325 -0.7939
 5906TIP3   OH239132   4.813   4.880   4.534  0.2146  0.0429  0.0511
 5906TIP3    H139133   4.828   4.973   4.551  0.1784  0.0145  0.2439
 5906TIP3    H239134   4.898   4.846   4.508  0.7106 -0.2998  1.9623
 5907TIP3   OH239135   0.284   4.348   3.297  0.2394 -0.6980  0.4570
 5907TIP3    H139136   0.245   4.381   3.216 -1.7619 -0.7014  1.3666
 5907TIP3    H239137   0.241   4.398   3.366  0.5248 -2.0071  1.6273
 5908TIP3   OH239138   6.694   4.987   2.199 -0.2339  0.2411  0.4184
 5908TIP3    H139139   6.773   5.034   2.175 -0.3411  0.7045  0.9540
 5908TIP3    H239140   6.655   4.959   2.116  0.4465  0.0802  0.1534
 5909TIP3   OH239141   0.747   5.925  12.468 -0.2977  0.3535 -0.2703
 5909TIP3    H139142   0.769   5.942  12.560 -0.0429 -1.6429  0.0681
 5909TIP3    H239143   0.764   5.832  12.456 -1.7917  0.2517 -1.9326
 5910TIP3   OH239144   4.412   6.400   2.938 -0.2660  0.0919 -0.2638
 5910TIP3    H139145   4.373   6.393   2.851 -2.3845 -0.4217  0.6557
 5910TIP3    H239146   4.437   6.311   2.961  3.0412  0.6032 -1.4432
 5911TIP3   OH239147   4.828   0.518   2.393 -0.6735 -0.0443  0.6213
 5911TIP3    H139148   4.762   0.454   2.369 -0.0825  0.2567 -2.0845
 5911TIP3    H239149   4.807   0.596   2.342  2.8784 -0.6316 -2.1402
 5912TIP3   OH239150   3.244   1.518  13.536 -0.6169  0.0418  0.0567
 5912TIP3    H139151   3.327   1.561  13.557 -0.8323  0.3320  0.3235
 5912TIP3    H239152   3.177   1.584  13.556 -0.8953 -0.1009 -0.3978
 5913TIP3   OH239153   4.840   2.872  13.277  0.2736 -0.0527  0.3883
 5913TIP3    H139154   4.757   2.825  13.277  0.5598 -0.6365  2.0506
 5913TIP3    H239155   4.904   2.808  13.248  0.3536 -0.0546  0.5673
 5914TIP3   OH239156   3.249   4.662  17.021 -0.2331  0.6587 -0.5407
 5914TIP3    H139157   3.304   4.674  16.944 -1.0158  2.5733 -0.8559
 5914TIP3    H239158   3.298   4.702  17.093  0.4536 -1.0392 -0.0106
 5915TIP3   OH239159   3.253   2.399   1.863  0.0161  0.0141  0.3818
 5915TIP3    H139160   3.181   2.336   1.852 -2.6909  2.8086  0.8798
 5915TIP3    H239161   3.254   2.449   1.782  1.6853 -0.1574  0.2561
 5916TIP3   OH239162   1.493   6.553  14.041  0.2214 -0.3186  0.2976
 5916TIP3    H139163   1.423   6.515  13.987  0.6605 -2.9552  1.4460
 5916TIP3    H239164   1.455   6.562  14.128  0.9336 -0.6455  0.6533
 5917TIP3   OH239165   0.738   2.155   0.851 -0.0787  0.2522  0.3919
 5917TIP3    H139166   0.832   2.171   0.863  0.0535  0.4963 -0.8400
 5917TIP3    H239167   0.705   2.234   0.809 -0.3657 -0.6940 -1.2785
 5918TIP3   OH239168   0.472   5.416   4.029 -0.1431 -0.3288  0.3253
 5918TIP3    H139169   0.547   5.359   4.049  1.2609  1.0829 -0.7429
 5918TIP3    H239170   0.422   5.367   3.964  1.1593 -0.3058 -0.7361
 5919TIP3   OH239171   0.506   3.377   3.462  0.3631 -0.1173 -0.0203
 5919TIP3    H139172   0.433   3.315   3.474  0.2012  0.3609  1.7427
 5919TIP3    H239173   0.547   3.349   3.381 -1.6302 -0.5568 -0.9462
 5920TIP3   OH239174   1.487   3.899  13.900  0.4306  0.0265  0.1241
 5920TIP3    H139175   1.430   3.968  13.867  0.0121 -0.1300  0.5004
 5920TIP3    H239176   1.431   3.849  13.960  0.6439 -0.8101 -0.3542
 5921TIP3   OH239177   1.983   4.357   4.384 -0.6404  0.0083 -0.3673
 5921TIP3    H139178   2.042   4.283   4.372 -0.3444 -0.0140  1.0586
 5921TIP3    H239179   1.896   4.322   4.365 -0.4288 -0.5376 -0.3261
 5922TIP3   OH239180   5.691   1.092   3.489 -0.7079  0.0959 -0.2924
 5922TIP3    H139181   5.678   1.186   3.495 -0.1501  0.1177  0.9901
 5922TIP3    H239182   5.691   1.062   3.580  1.2422 -0.8215 -0.5380
 5923TIP3   OH239183   2.551   0.197  16.480  0.4144 -0.0613 -0.4094
 5923TIP3    H139184   2.538   0.102  16.473 -2.0741  0.3616 -3.3675
 5923TIP3    H239185   2.510   0.233  16.402  1.9751  3.4597  0.2014
 5924TIP3   OH239186   5.077   6.100  11.801  0.1482  0.0145  0.7096
 5924TIP3    H139187   5.036   6.040  11.739 -1.0812 -1.9326  3.2127
 5924TIP3    H239188   5.019   6.100  11.877  2.0518  1.4711  2.2908
 5925TIP3   OH239189   2.371   6.320   4.117 -0.0137 -0.7009 -0.1932
 5925TIP3    H139190   2.376   6.356   4.028  0.1285  1.3959  0.6237
 5925TIP3    H239191   2.428   6.243   4.115  0.4981 -0.3093 -1.7371
 5926TIP3   OH239192   2.542   5.717  11.727 -0.3381  0.0614 -0.2953
 5926TIP3    H139193   2.555   5.650  11.795 -0.0758  0.8272  0.4346
 5926TIP3    H239194   2.600   5.690  11.656 -0.3473 -0.5684 -0.0725
 5927TIP3   OH239195   2.172   3.220   3.286  0.1197 -0.7777  0.2983
 5927TIP3    H139196   2.171   3.305   3.330 -1.4488 -1.8025  2.4406
 5927TIP3    H239197   2.134   3.238   3.200  3.0990  1.2600 -0.7606
 5928TIP3   OH239198   1.220   3.809  15.794  0.2475 -0.8037  0.1214
 5928TIP3    H139199   1.311   3.783  15.808  0.8305  0.3605 -1.1350
 5928TIP3    H239200   1.216   3.900  15.825  0.3969  0.2410 -2.6283
 5929TIP3   OH239201   4.945   4.062   0.551 -0.5750  0.1145  0.3664
 5929TIP3    H139202   4.852   4.048   0.569 -1.1149 -0.7999 -2.5474
 5929TIP3    H239203   4.948   4.149   0.509  0.2210  1.0055  2.1581
 5930TIP3   OH239204   3.085   5.026  11.961  0.2611  0.2018  0.0293
 5930TIP3    H139205   3.050   5.113  11.979 -0.0858  0.0930 -0.1130
 5930TIP3    H239206   3.060   4.974  12.037  0.9112  0.3471  0.3562
 5931TIP3   OH239207   0.877   5.472  16.282 -0.0964  0.0467 -0.1823
 5931TIP3    H139208   0.807   5.423  16.327 -1.7408  0.9160 -1.6653
 5931TIP3    H239209   0.893   5.547  16.338 -1.0435  0.3267 -0.2617
 5932TIP3   OH239210   3.964   0.938  13.469  0.5449  1.0189  0.4486
 5932TIP3    H139211   3.888   0.889  13.503  1.2555  1.0166  2.1284
 5932TIP3    H239212   3.928   1.023  13.444  0.0628  1.2085  1.7325
 5933TIP3   OH239213   1.118   2.092  17.003 -0.7436  0.1287 -0.5646
 5933TIP3    H139214   1.036   2.047  17.024 -1.1525  0.9117 -0.4671
 5933TIP3    H239215   1.114   2.174  17.051  0.3289 -0.0350 -0.1487
 5934TIP3   OH239216   3.559   0.820   5.380  0.4083  0.4564 -0.4174
 5934TIP3    H139217   3.527   0.740   5.421 -0.1558 -0.4514 -2.5059
 5934TIP3    H239218   3.481   0.864   5.346  0.8329  1.2836 -0.3616
 5935TIP3   OH239219   0.714   1.203  12.903  0.9314 -1.1384  0.0539
 5935TIP3    H139220   0.672   1.200  12.989 -0.9224 -0.7195 -0.7713
 5935TIP3    H239221   0.641   1.219  12.842  2.4351  0.6055 -1.3934
 5936TIP3   OH239222   4.160   1.745  11.237 -0.8771 -1.0395  0.2516
 5936TIP3    H139223   4.220   1.807  11.195 -1.3124 -0.0839  1.0185
 5936TIP3    H239224   4.204   1.660  11.227  0.4380 -0.4163  0.4581
 5937TIP3   OH239225   1.420   5.033  12.395  0.1494  0.0096 -0.3169
 5937TIP3    H139226   1.462   4.959  12.438  0.0397 -0.2579 -0.6735
 5937TIP3    H239227   1.420   5.102  12.462  0.6067 -0.1809 -0.1149
 5938TIP3   OH239228   3.964   0.724  11.070  0.2296  0.8365  0.1686
 5938TIP3    H139229   3.942   0.694  11.158 -0.2509  0.4627 -0.0734
 5938TIP3    H239230   3.926   0.813  11.065 -0.6747  0.4545 -0.0160
 5939TIP3   OH239231   0.041   4.731   4.390 -0.0987 -0.2758  0.0730
 5939TIP3    H139232   0.108   4.665   4.374  1.3948  1.2510 -0.2154
 5939TIP3    H239233   0.044   4.746   4.485  0.3113  0.1154  0.0031
 5940TIP3   OH239234   2.777   6.741  15.142 -0.3046  0.0450  0.1033
 5940TIP3    H139235   2.851   6.786  15.101 -0.8146  0.8066  0.0033
 5940TIP3    H239236   2.816   6.664  15.183  0.5051  0.2920 -0.1801
 5941TIP3   OH239237   3.735   5.280  13.286  0.2032  0.3631  0.2357
 5941TIP3    H139238   3.780   5.306  13.205  1.5063 -0.9184  0.5087
 5941TIP3    H239239   3.665   5.222  13.256  1.1396 -0.7014  0.0434
 5942TIP3   OH239240   0.296   1.115   4.790  0.2007  0.2024 -0.3954
 5942TIP3    H139241   0.332   1.044   4.736 -1.6449 -0.2020 -1.1832
 5942TIP3    H239242   0.232   1.072   4.846 -0.4638  1.1395 -0.4114
 5943TIP3   OH239243   3.019   1.262  11.029 -0.3132  0.0192  0.4058
 5943TIP3    H139244   3.059   1.196  11.085  0.2522 -0.2083 -0.2477
 5943TIP3    H239245   3.084   1.332  11.024  0.4707 -0.7593 -1.4252
 5944TIP3   OH239246   3.354   1.463   3.455  0.0670 -0.7450 -0.0203
 5944TIP3    H139247   3.386   1.424   3.374 -0.1888 -0.3572 -0.3115
 5944TIP3    H239248   3.269   1.420   3.470 -0.6609  0.3545 -0.8476
 5945TIP3   OH239249   0.782   2.818  16.887 -0.1950  0.0148 -0.6849
 5945TIP3    H139250   0.836   2.876  16.834  1.3648 -1.1170 -0.4221
 5945TIP3    H239251   0.712   2.874  16.921  1.1758  1.7244 -0.5117
 5946TIP3   OH239252   2.159   3.551  14.412  0.1662 -0.0954  0.2037
 5946TIP3    H139253   2.207   3.632  14.425  0.2731 -0.4227  2.2057
 5946TIP3    H239254   2.210   3.502  14.348  1.1434  0.6078  0.4294
 5947TIP3   OH239255   6.409   5.669  15.396 -0.1716 -0.4073 -0.0335
 5947TIP3    H139256   6.418   5.760  15.368 -0.0266 -0.7225 -1.0617
 5947TIP3    H239257   6.499   5.641  15.413 -0.1112 -0.6370 -0.6821
 5948TIP3   OH239258   5.850   0.675   5.190  0.1474 -0.3332 -0.2896
 5948TIP3    H139259   5.821   0.763   5.215  0.2318  0.1992 -1.9621
 5948TIP3    H239260   5.884   0.638   5.271 -1.7195  0.4202  0.8955
 5949TIP3   OH239261   6.232   5.018   4.941 -0.0424  0.2460  0.7333
 5949TIP3    H139262   6.188   5.068   5.011  1.3478  1.6618  0.6522
 5949TIP3    H239263   6.270   5.085   4.884 -1.7379 -0.8453 -1.8558
 5950TIP3   OH239264   4.184   0.198   3.078  0.0614 -0.0795 -0.4237
 5950TIP3    H139265   4.254   0.147   3.119 -0.8188 -0.5013  0.5848
 5950TIP3    H239266   4.230   0.268   3.031  1.1500 -0.2896  0.2938
 5951TIP3   OH239267   3.400   2.704   4.398  0.7149 -0.1619 -0.2895
 5951TIP3    H139268   3.335   2.644   4.363  1.2837  0.1110 -1.9247
 5951TIP3    H239269   3.467   2.648   4.436 -0.3118 -0.4488  1.1701
 5952TIP3   OH239270   5.465   1.940  11.231  0.7760  0.2022 -0.4184
 5952TIP3    H139271   5.552   1.959  11.264  0.1615  0.9673  0.8525
 5952TIP3    H239272   5.447   2.009  11.167  0.5639  0.8943  0.3737
 5953TIP3   OH239273   5.550   3.611   3.898  0.3953  1.0171  0.6186
 5953TIP3    H139274   5.642   3.631   3.880  0.4879 -0.0010 -0.1137
 5953TIP3    H239275   5.552   3.568   3.984  1.0273 -1.6557 -0.6025
 5954TIP3   OH239276   6.700   3.346   2.787 -0.0485  0.1450  0.1150
 5954TIP3    H139277   6.794   3.350   2.804 -0.3574  0.6086  1.9195
 5954TIP3    H239278   6.689   3.269   2.731  1.2195 -1.0144  1.3800
 5955TIP3   OH239279   4.981   0.228  14.702  0.2950  0.4898 -0.6949
 5955TIP3    H139280   5.070   0.192  14.700  0.2463  0.3714 -0.8240
 5955TIP3    H239281   4.975   0.281  14.622 -0.9673 -2.5238 -2.8154
 5956TIP3   OH239282   5.318   2.424  14.311 -0.2604 -0.1828 -0.0164
 5956TIP3    H139283   5.274   2.377  14.240  0.0466  0.2059 -0.4675
 5956TIP3    H239284   5.406   2.386  14.315 -0.7410 -1.2859  1.1917
 5957TIP3   OH239285   5.998   2.057   3.598  0.4016  0.4841  0.5693
 5957TIP3    H139286   5.960   1.998   3.664  0.2700 -2.1519 -1.6961
 5957TIP3    H239287   5.922   2.087   3.548  0.7873 -1.0648 -1.0415
 5958TIP3   OH239288   0.402   1.445   0.880  0.2921  0.3448 -0.0833
 5958TIP3    H139289   0.406   1.452   0.784  0.2485  1.0484 -0.0335
 5958TIP3    H239290   0.478   1.391   0.902 -0.8443 -1.5994 -0.6685
 5959TIP3   OH239291   3.346   1.153   4.866 -0.4907 -0.2040  0.5110
 5959TIP3    H139292   3.338   1.219   4.797  0.5619  0.0024  0.5689
 5959TIP3    H239293   3.308   1.194   4.943 -0.1122  0.2211  0.4740
 5960TIP3   OH239294   5.059   0.574   4.746 -0.0152  0.1616 -0.2304
 5960TIP3    H139295   4.982   0.526   4.777 -1.2681  1.4010 -1.2642
 5960TIP3    H239296   5.024   0.634   4.680  1.8438  0.8348 -0.6534
 5961TIP3   OH239297   4.686   6.181  15.075  0.6450 -0.6675  0.1007
 5961TIP3    H139298   4.762   6.126  15.058  1.4544  0.6100 -0.5531
 5961TIP3    H239299   4.695   6.206  15.167  0.8987 -0.6959  0.0840
 5962TIP3   OH239300   2.735   6.410  11.780 -0.3916  0.1608  0.0075
 5962TIP3    H139301   2.640   6.426  11.782 -0.9362 -2.5128 -0.7024
 5962TIP3    H239302   2.767   6.468  11.711 -1.3148  1.8318  0.9204
 5963TIP3   OH239303   1.631   5.413  15.087 -0.3627 -0.5061 -0.1494
 5963TIP3    H139304   1.707   5.455  15.046 -1.4121  1.3998 -0.2313
 5963TIP3    H239305   1.588   5.483  15.136 -0.7146 -2.0931  1.9485
 5964TIP3   OH239306   4.616   4.175   0.381 -0.3928  0.0471 -0.0625
 5964TIP3    H139307   4.625   4.199   0.473 -0.2466  1.7242 -0.4910
 5964TIP3    H239308   4.561   4.243   0.343  0.5879  0.0970 -1.4823
 5965TIP3   OH239309   1.947   2.385  12.446 -0.2557  0.5657 -0.0908
 5965TIP3    H139310   1.967   2.318  12.380  1.1080  1.3950 -0.5506
 5965TIP3    H239311   1.852   2.379  12.457 -0.6159  0.7292 -2.5024
 5966TIP3   OH239312   1.917   3.491   1.932 -0.0881 -0.4457 -0.1837
 5966TIP3    H139313   1.843   3.516   1.987 -1.0526 -1.4364 -1.0020
 5966TIP3    H239314   1.913   3.396   1.928  1.8986 -0.6214  0.6452
 5967TIP3   OH239315   1.236   1.318   0.552 -0.6394 -0.5026  0.1005
 5967TIP3    H139316   1.266   1.402   0.587  0.5105 -0.4890 -0.8115
 5967TIP3    H239317   1.143   1.331   0.533 -0.6831  0.2701  0.8013
 5968TIP3   OH239318   2.982   2.395   3.549  0.0385 -0.0032 -0.1595
 5968TIP3    H139319   2.937   2.432   3.625  0.2700 -0.4501  0.1911
 5968TIP3    H239320   3.074   2.421   3.560  0.5927 -2.2971  1.1055
 5969TIP3   OH239321   5.048   5.105   5.041  0.3787  0.3048 -0.2608
 5969TIP3    H139322   5.131   5.147   5.016  0.6397  0.3497  0.6611
 5969TIP3    H239323   5.056   5.091   5.135 -1.2040  1.5214  0.0843
 5970TIP3   OH239324   3.866   0.090  15.049  0.7747  0.4556 -0.0028
 5970TIP3    H139325   3.830   0.081  14.960 -0.0282 -1.3944  0.4602
 5970TIP3    H239326   3.960   0.099  15.036  0.6755  0.1284 -1.0467
 5971TIP3   OH239327   2.408   1.487  12.551  0.4962 -0.2443  0.0061
 5971TIP3    H139328   2.487   1.482  12.497  0.9147  0.0574  0.5739
 5971TIP3    H239329   2.371   1.573  12.531  1.6044  0.6209  1.4548
 5972TIP3   OH239330   0.532   5.926  16.241  0.2212 -0.0262 -0.0450
 5972TIP3    H139331   0.443   5.944  16.212 -0.0275  2.2928  1.8930
 5972TIP3    H239332   0.527   5.923  16.336  1.9223 -1.8582  0.0666
 5973TIP3   OH239333   4.053   5.342  14.700 -0.4412  0.1070  0.3854
 5973TIP3    H139334   4.039   5.248  14.691 -0.6616  0.1671  0.1171
 5973TIP3    H239335   4.082   5.353  14.791 -2.5810  0.0343  1.1280
 5974TIP3   OH239336   5.203   0.922   3.688 -0.2866  0.4097 -0.1279
 5974TIP3    H139337   5.122   0.915   3.636  0.1031  0.8117 -0.8042
 5974TIP3    H239338   5.269   0.950   3.625  0.6765 -1.1460  0.1306
 5975TIP3   OH239339   6.317   5.188  11.547  0.5215 -0.7581 -0.7002
 5975TIP3    H139340   6.314   5.283  11.545  0.8715 -0.7287 -0.2301
 5975TIP3    H239341   6.244   5.159  11.492  0.2227 -0.2208 -0.5877
 5976TIP3   OH239342   0.381   2.675  11.543 -0.4514 -0.5054 -0.5701
 5976TIP3    H139343   0.372   2.711  11.455 -1.0414  2.2014  0.4901
 5976TIP3    H239344   0.475   2.672  11.559 -0.3761  0.0709 -0.9003
 5977TIP3   OH239345   3.888   6.316   1.653 -0.0488  0.1505 -0.1886
 5977TIP3    H139346   3.859   6.288   1.566  0.0153  0.2983 -0.2564
 5977TIP3    H239347   3.848   6.402   1.666 -0.2710  0.0172  0.0340
 5978TIP3   OH239348   0.161   5.337   5.911  0.6319 -0.0392 -0.3626
 5978TIP3    H139349   0.225   5.270   5.938  0.4453 -0.3196 -0.6088
 5978TIP3    H239350   0.199   5.375   5.832  1.4149  1.1193  0.5449
 5979TIP3   OH239351   3.883   4.457   4.025  0.0381 -0.0650 -0.2051
 5979TIP3    H139352   3.802   4.441   4.073  0.3602  1.2018  0.8229
 5979TIP3    H239353   3.877   4.548   3.995  1.4243  0.3628  0.6819
 5980TIP3   OH239354   0.136   0.963   4.953  0.6890  0.1195 -0.2409
 5980TIP3    H139355   0.056   1.006   4.982  0.2673 -0.0214 -1.1794
 5980TIP3    H239356   0.154   0.898   5.021 -1.8733 -2.2025 -1.5960
 5981TIP3   OH239357   3.180   1.072  17.081 -0.4443 -0.9650  0.2428
 5981TIP3    H139358   3.195   0.978  17.089 -0.6498 -1.0130  0.0804
 5981TIP3    H239359   3.229   1.111  17.153 -0.3931 -1.2014  0.3343
 5982TIP3   OH239360   4.145   2.796  11.962  0.2267  0.1888  0.4963
 5982TIP3    H139361   4.237   2.779  11.980  0.1532 -1.0038 -0.1711
 5982TIP3    H239362   4.129   2.757  11.876 -1.4758 -1.9357  1.6515
 5983TIP3   OH239363   0.085   2.403  11.775  0.3544  0.2926 -1.1206
 5983TIP3    H139364   0.123   2.465  11.712 -1.8183  2.8751 -0.1159
 5983TIP3    H239365  -0.009   2.405  11.756 -0.2533  0.4411  1.5363
 5984TIP3   OH239366   2.290   5.472   1.681 -0.6235  0.1110 -0.2700
 5984TIP3    H139367   2.246   5.439   1.759  0.0925  0.2935  0.2188
 5984TIP3    H239368   2.383   5.458   1.698 -0.4460  0.4027 -0.9716
 5985TIP3   OH239369   5.891   3.921  15.513  0.5107 -0.0951  0.3675
 5985TIP3    H139370   5.971   3.960  15.477 -0.2492  0.3250 -0.9820
 5985TIP3    H239371   5.884   3.957  15.601  0.9815  1.1651 -0.0756
 5986TIP3   OH239372   3.295   6.304  16.236  0.0853  0.1486 -0.3291
 5986TIP3    H139373   3.350   6.342  16.168 -0.7916  0.1247 -1.0776
 5986TIP3    H239374   3.252   6.380  16.277  0.4893  0.1519  0.0895
 5987TIP3   OH239375   6.501   0.353   1.026  0.2000  0.0613  0.2192
 5987TIP3    H139376   6.577   0.299   1.007  1.4146  1.1959  1.5990
 5987TIP3    H239377   6.477   0.391   0.942  2.0679  0.7925 -0.0303
 5988TIP3   OH239378   2.261   2.889  16.400 -0.7744 -0.1583  0.0597
 5988TIP3    H139379   2.280   2.818  16.338  1.2260 -0.1074  0.5525
 5988TIP3    H239380   2.192   2.940  16.357 -0.3669 -0.8732 -1.5386
 5989TIP3   OH239381   5.788   6.032   2.323 -0.7144  0.0076  0.3242
 5989TIP3    H139382   5.755   6.048   2.412 -1.0080 -0.5816  0.3251
 5989TIP3    H239383   5.828   6.115   2.298 -0.2687  0.0604  1.1580
 5990TIP3   OH239384   6.238   0.860   1.424 -0.1785 -0.0613 -0.6729
 5990TIP3    H139385   6.263   0.860   1.332 -1.2576 -2.7467 -1.0422
 5990TIP3    H239386   6.147   0.891   1.425 -1.2155 -2.7803 -0.9786
 5991TIP3   OH239387   6.262   3.494  12.965  0.1262 -0.0069  0.8228
 5991TIP3    H139388   6.337   3.477  12.908  0.2433  1.3290  0.5345
 5991TIP3    H239389   6.241   3.586  12.950 -1.4816 -0.3044  1.0105
 5992TIP3   OH239390   6.182   5.216  16.969  0.9855 -0.2449  0.0488
 5992TIP3    H139391   6.249   5.249  16.910  0.7572  0.4607  0.1745
 5992TIP3    H239392   6.212   5.128  16.993  0.1339 -1.3468 -2.5804
 5993TIP3   OH239393   5.771   2.640   3.258  0.1378 -0.1015 -0.0212
 5993TIP3    H139394   5.771   2.735   3.265 -1.3822  0.2472 -3.1759
 5993TIP3    H239395   5.681   2.614   3.276  0.0624 -0.6906 -1.1563
 5994TIP3   OH239396   3.550   5.812   1.624  0.1970 -0.0441 -0.0993
 5994TIP3    H139397   3.604   5.741   1.588  0.3701  0.3000 -0.5263
 5994TIP3    H239398   3.588   5.830   1.710  0.4210 -0.1745 -0.1699
 5995TIP3   OH239399   1.551   6.723   0.012  0.6770 -0.3223 -0.1649
 5995TIP3    H139400   1.508   6.659  -0.044  1.3982  0.0740 -1.2067
 5995TIP3    H239401   1.483   6.751   0.073 -0.0316 -1.0316 -0.6104
 5996TIP3   OH239402   4.605   5.438  14.344  0.4458 -0.0412 -0.2431
 5996TIP3    H139403   4.561   5.353  14.340  0.9599 -0.3493  0.5495
 5996TIP3    H239404   4.544   5.499  14.302 -0.1674 -0.6988 -0.3115
 5997TIP3   OH239405   4.251   3.729   1.825  0.5677 -0.2195  0.3697
 5997TIP3    H139406   4.224   3.703   1.737 -2.0544 -0.7609  1.2347
 5997TIP3    H239407   4.304   3.808   1.812  0.1891 -0.2570 -1.6780
 5998TIP3   OH239408   1.904   6.218   1.168 -0.2082  0.2515  0.1417
 5998TIP3    H139409   1.832   6.201   1.230  0.9311  0.3424  1.5355
 5998TIP3    H239410   1.976   6.248   1.223  0.7455  0.6614 -1.2925
 5999TIP3   OH239411   2.033   3.853  15.386 -0.9441  0.4688  0.1664
 5999TIP3    H139412   2.051   3.805  15.466 -0.7536  0.9649  0.4299
 5999TIP3    H239413   2.109   3.836  15.330  0.2419  2.2319  1.1200
 6000TIP3   OH239414   1.857   3.323   3.402  0.5251 -0.1557  0.8327
 6000TIP3    H139415   1.782   3.328   3.342  1.1043 -0.4451  0.0678
 6000TIP3    H239416   1.860   3.231   3.428 -0.1517  0.1048  1.8823
 6001TIP3   OH239417   4.825   4.334   3.493  0.3583 -0.0810  0.3440
 6001TIP3    H139418   4.906   4.299   3.455 -0.1797 -1.5877  0.4808
 6001TIP3    H239419   4.758   4.311   3.428 -0.1210  0.1270  0.7650
 6002TIP3   OH239420   5.354   4.295   5.497 -0.4227  0.0530 -0.4468
 6002TIP3    H139421   5.446   4.306   5.522 -1.2240  2.1703  2.0153
 6002TIP3    H239422   5.333   4.205   5.523  0.5140  0.0981  0.5612
 6003TIP3   OH239423   3.489   2.089   4.762 -0.6280  0.5177 -0.4674
 6003TIP3    H139424   3.518   2.005   4.798 -0.9228  1.1379  1.3387
 6003TIP3    H239425   3.395   2.092   4.782 -0.9655  0.5950 -1.9778
 6004TIP3   OH239426   0.694   4.303  17.024 -0.4239 -0.4042  0.5084
 6004TIP3    H139427   0.775   4.337  17.060  0.0199 -0.5998 -0.2691
 6004TIP3    H239428   0.722   4.249  16.950 -1.2346 -0.8326  0.5031
 6005TIP3   OH239429   1.309   3.901  10.705  0.1998 -0.5964 -0.0589
 6005TIP3    H139430   1.399   3.932  10.715 -0.4955  1.4219  0.4294
 6005TIP3    H239431   1.260   3.943  10.776 -0.7230 -3.5873  1.2127
 6006TIP3   OH239432   2.961   1.843   6.377  0.4291  0.5862  0.2027
 6006TIP3    H139433   3.023   1.910   6.405 -1.3987  2.5999 -0.3104
 6006TIP3    H239434   2.904   1.830   6.453 -1.2705  2.1692 -0.7051
 6007TIP3   OH239435   6.001   2.890  10.500 -0.6090  0.5484 -0.0905
 6007TIP3    H139436   5.910   2.896  10.469 -1.1876  0.3382  1.4782
 6007TIP3    H239437   6.035   2.809  10.461 -1.6536 -0.2736  0.6651
 6008TIP3   OH239438   1.141   1.913  15.928  0.0609  0.1336 -0.1266
 6008TIP3    H139439   1.232   1.944  15.932  0.6427 -1.5662  1.0154
 6008TIP3    H239440   1.145   1.823  15.961 -1.8499 -0.4327 -1.2624
 6009TIP3   OH239441   5.540   1.315   2.240  0.4002 -0.1067  0.0824
 6009TIP3    H139442   5.447   1.309   2.216  0.4343 -0.9758  0.1079
 6009TIP3    H239443   5.557   1.234   2.288  0.6816  0.9646  1.8640
 6010TIP3   OH239444   4.103   2.857  17.122 -0.1398 -0.0868 -0.4497
 6010TIP3    H139445   4.023   2.815  17.154  0.6476 -1.3011  0.0060
 6010TIP3    H239446   4.138   2.903  17.199  0.0709 -0.3156 -0.4073
 6011TIP3   OH239447   4.886   5.859  12.254 -0.0157  0.1531 -0.2905
 6011TIP3    H139448   4.869   5.786  12.314 -0.4484  0.3014 -0.2308
 6011TIP3    H239449   4.890   5.936  12.311 -1.2825  0.4157 -0.5344
 6012TIP3   OH239450   2.129   6.228  14.287  0.1709 -0.3297 -0.0929
 6012TIP3    H139451   2.113   6.170  14.213 -2.5965 -1.4420  1.2367
 6012TIP3    H239452   2.176   6.174  14.351  1.2904  0.2144 -0.4112
 6013TIP3   OH239453   1.321   5.089  14.267  0.3037  0.3998  0.0915
 6013TIP3    H139454   1.399   5.060  14.314  1.3888  0.7059 -1.4684
 6013TIP3    H239455   1.266   5.128  14.335  0.1278 -2.4442  1.7694
 6014TIP3   OH239456   4.928   6.780   2.831 -0.3911 -0.1388 -0.2469
 6014TIP3    H139457   4.940   6.768   2.737 -0.0777  0.7684 -0.3343
 6014TIP3    H239458   4.930   6.691   2.867 -0.7186 -0.5060 -1.1147
 6015TIP3   OH239459   0.427   1.136  15.434 -0.4388  0.0838  0.2147
 6015TIP3    H139460   0.519   1.150  15.457 -0.6733  2.0960  0.1014
 6015TIP3    H239461   0.425   1.146  15.339 -0.7342 -0.2985  0.1771
 6016TIP3   OH239462   2.031   4.224  16.119  0.0032  0.0779  0.6047
 6016TIP3    H139463   2.099   4.276  16.077 -0.9351  0.1209 -0.9493
 6016TIP3    H239464   1.981   4.287  16.172 -0.3596  0.5349 -0.2686
 6017TIP3   OH239465   5.202   6.105   3.302 -0.5780  0.5656  0.3568
 6017TIP3    H139466   5.184   6.109   3.209  0.4533  1.2592  0.1662
 6017TIP3    H239467   5.159   6.182   3.339 -1.0827  0.2290  0.4739
 6018TIP3   OH239468   6.514   4.911   2.593 -0.3540  0.0294  0.1739
 6018TIP3    H139469   6.576   4.865   2.537 -1.6478  1.7450 -2.9025
 6018TIP3    H239470   6.536   5.004   2.583 -3.9392  0.8423 -2.0458
 6019TIP3   OH239471   2.967   3.006  17.074 -0.1966 -0.2348 -0.4821
 6019TIP3    H139472   2.892   3.044  17.029 -0.3024 -0.0439 -0.1459
 6019TIP3    H239473   2.978   3.059  17.153 -0.2903 -0.8368 -0.0530
 6020TIP3   OH239474   0.182   0.839  13.342 -0.4829  0.5259 -0.8036
 6020TIP3    H139475   0.138   0.787  13.275 -1.0573  0.8416 -0.6874
 6020TIP3    H239476   0.174   0.929  13.311  1.4362  0.4939 -1.5356
 6021TIP3   OH239477   2.222   5.501  14.614  0.4617 -0.4919 -0.0338
 6021TIP3    H139478   2.256   5.485  14.702 -0.6966  1.2550  0.7836
 6021TIP3    H239479   2.266   5.436  14.559  2.6968 -0.3695  1.4874
 6022TIP3   OH239480   5.440   0.996   0.537  0.3746  0.1938  0.4945
 6022TIP3    H139481   5.355   0.973   0.574  0.2444  1.0840  0.7588
 6022TIP3    H239482   5.429   0.985   0.442  0.1611 -0.3115  0.5797
 6023TIP3   OH239483   2.565   4.218   1.440  0.2667  0.6345  0.2739
 6023TIP3    H139484   2.534   4.303   1.472  0.2424  0.8880 -0.4189
 6023TIP3    H239485   2.519   4.154   1.495 -2.2209  0.9576 -1.2915
 6024TIP3   OH239486   5.230   5.969  12.036 -0.2150  0.3133  0.2462
 6024TIP3    H139487   5.312   5.936  11.997  0.7576  0.6297  1.9303
 6024TIP3    H239488   5.182   6.006  11.962  0.1699 -1.7910 -1.1550
 6025TIP3   OH239489   3.640   2.113   0.470  0.3320 -0.2985 -0.3169
 6025TIP3    H139490   3.609   2.026   0.447  0.1701 -0.3760  0.1976
 6025TIP3    H239491   3.698   2.100   0.545  0.2319  0.0430 -0.1755
 6026TIP3   OH239492   1.118   1.581   1.988 -0.0952 -0.3159 -0.1233
 6026TIP3    H139493   1.169   1.609   2.064 -0.2325  0.6810 -0.3868
 6026TIP3    H239494   1.178   1.589   1.914 -0.4630  0.3783 -0.3602
 6027TIP3   OH239495   1.469   3.954  11.942 -0.6228  0.0407 -0.0436
 6027TIP3    H139496   1.438   3.911  12.022 -0.7865 -1.2168 -0.7537
 6027TIP3    H239497   1.564   3.951  11.948 -0.5441 -2.6214 -1.1314
 6028TIP3   OH239498   5.931   2.326   2.444  0.9542  0.0793 -0.2993
 6028TIP3    H139499   5.883   2.390   2.390  1.3207 -0.6592 -1.5341
 6028TIP3    H239500   5.874   2.311   2.519 -0.2237  0.0939 -1.1626
 6029TIP3   OH239501   5.990   5.624  10.347 -0.2545 -0.0018  0.1268
 6029TIP3    H139502   5.959   5.711  10.375  0.9302  0.3068  0.5644
 6029TIP3    H239503   6.062   5.643  10.286  0.8508 -0.6396  1.1799
 6030TIP3   OH239504   3.804   5.439   1.097 -0.1687  0.2281  0.1065
 6030TIP3    H139505   3.841   5.430   1.185  0.4179  1.8238  0.0465
 6030TIP3    H239506   3.716   5.402   1.104  0.6122 -1.6178  0.8057
 6031TIP3   OH239507   4.420   0.428   1.464  0.3349  0.4687 -0.1610
 6031TIP3    H139508   4.511   0.406   1.480  0.7570  2.2838  0.1284
 6031TIP3    H239509   4.380   0.346   1.434  2.9928  0.4665 -4.5719
 6032TIP3   OH239510   5.911   0.288   6.482 -0.1546  0.5120  0.6179
 6032TIP3    H139511   5.927   0.207   6.433  0.6618  2.2582 -2.2046
 6032TIP3    H239512   5.996   0.330   6.488 -0.7319  1.6509  1.1452
 6033TIP3   OH239513   4.143   5.295   2.709 -0.5542 -0.2568 -0.2599
 6033TIP3    H139514   4.144   5.259   2.798 -0.6065 -0.1544 -0.2173
 6033TIP3    H239515   4.217   5.356   2.707 -0.5502 -0.2624 -0.2872
 6034TIP3   OH239516   1.029   3.097   2.128  0.2404  0.1400  0.1841
 6034TIP3    H139517   0.945   3.108   2.083  0.0709  0.7632  0.6384
 6034TIP3    H239518   1.007   3.100   2.221  1.0581  3.1744  0.3799
 6035TIP3   OH239519   5.340   4.842  13.795  0.5634 -0.3374 -0.3013
 6035TIP3    H139520   5.258   4.890  13.789  0.5732 -0.3693 -0.7696
 6035TIP3    H239521   5.404   4.899  13.752  0.6255 -0.6484 -0.6284
 6036TIP3   OH239522   1.984   0.587   3.257  0.9890 -0.3242 -0.1675
 6036TIP3    H139523   2.049   0.641   3.302  0.7345  0.6912 -0.9873
 6036TIP3    H239524   2.008   0.591   3.165 -0.4571  0.4288 -0.5457
 6037TIP3   OH239525   3.355   1.533  14.259 -0.1084 -0.3725  0.3052
 6037TIP3    H139526   3.449   1.532  14.243 -0.2823 -1.4773 -0.8362
 6037TIP3    H239527   3.343   1.479  14.337  0.1244 -1.1901 -0.2079
 6038TIP3   OH239528   1.899   6.529  16.580  0.4633  0.0591 -0.0377
 6038TIP3    H139529   1.809   6.522  16.612  0.6044 -0.1815  0.3171
 6038TIP3    H239530   1.946   6.573  16.651  1.3167 -2.6428  1.2085
 6039TIP3   OH239531   1.449   4.928   0.939 -0.0540  0.5273 -0.1842
 6039TIP3    H139532   1.396   4.996   0.897 -0.6214 -0.5175 -1.2353
 6039TIP3    H239533   1.539   4.960   0.933 -0.2423  0.9088 -1.2425
 6040TIP3   OH239534   2.856   1.648   1.094  0.1209 -0.6836 -0.0650
 6040TIP3    H139535   2.831   1.556   1.097 -2.0315 -0.1491  0.5668
 6040TIP3    H239536   2.889   1.661   1.005  0.5308 -2.0601 -0.1353
 6041TIP3   OH239537   1.280   4.763   5.671 -0.3834  0.5551  0.0440
 6041TIP3    H139538   1.340   4.759   5.598  1.4825 -0.9302  1.5527
 6041TIP3    H239539   1.331   4.733   5.746 -2.9376 -0.6051  1.4696
 6042TIP3   OH239540   5.012   4.520  13.677 -0.2272 -0.2988 -0.4662
 6042TIP3    H139541   4.996   4.497  13.586 -1.1206  0.0772 -0.4200
 6042TIP3    H239542   4.927   4.506  13.720  0.0703 -0.0563  0.2130
 6043TIP3   OH239543   2.146   0.455  10.504 -0.2272 -0.4267  0.0641
 6043TIP3    H139544   2.182   0.424  10.421 -3.4060 -2.6694 -0.6341
 6043TIP3    H239545   2.142   0.551  10.494 -0.1441 -0.6113 -2.2076
 6044TIP3   OH239546   4.666   0.639   2.756  0.2958 -0.6686 -0.0079
 6044TIP3    H139547   4.632   0.656   2.668 -0.2912  0.6291  0.4366
 6044TIP3    H239548   4.750   0.597   2.741  0.1403 -0.6097 -1.1922
 6045TIP3   OH239549   5.251   0.338  12.534  0.4329  0.6764  0.2705
 6045TIP3    H139550   5.203   0.408  12.579 -1.9519 -1.1888  0.8716
 6045TIP3    H239551   5.219   0.341  12.444 -1.6693 -1.1107  0.8650
 6046TIP3   OH239552   2.898   0.592  15.756 -0.0926  0.2489  0.0287
 6046TIP3    H139553   2.912   0.627  15.668  0.6273 -1.2305 -0.4777
 6046TIP3    H239554   2.962   0.637  15.810 -0.5440  1.1758 -0.1901
 6047TIP3   OH239555   2.776   3.425   2.682  0.1351 -0.5118 -0.6226
 6047TIP3    H139556   2.750   3.397   2.595  1.9724  0.3215 -1.4822
 6047TIP3    H239557   2.832   3.502   2.668  0.7339 -0.5481  1.2435
 6048TIP3   OH239558   0.494   3.489   2.026  0.1073  0.0205  0.0087
 6048TIP3    H139559   0.503   3.557   1.959  1.8796  0.3173  0.4980
 6048TIP3    H239560   0.483   3.538   2.108  1.7192 -0.2268  0.4112
 6049TIP3   OH239561   4.387   3.302   1.151 -0.2188 -0.1147 -0.7595
 6049TIP3    H139562   4.439   3.284   1.230  0.6060  0.1842 -1.2234
 6049TIP3    H239563   4.452   3.311   1.082 -0.9165  0.0564 -1.3953
 6050TIP3   OH239564   2.035   2.722   5.795  0.0316 -0.3655 -0.5424
 6050TIP3    H139565   2.043   2.808   5.836  0.9191  0.3195 -2.0439
 6050TIP3    H239566   1.976   2.673   5.852  0.7809  0.6887  1.2139
 6051TIP3   OH239567   2.629   3.043  11.751 -0.6890 -0.1216  0.4597
 6051TIP3    H139568   2.697   3.012  11.691 -0.9691 -0.5593  0.3592
 6051TIP3    H239569   2.661   3.127  11.783 -0.4997  0.0812 -0.2522
 6052TIP3   OH239570   6.750   4.557  11.294  0.9417  0.7255 -0.1511
 6052TIP3    H139571   6.814   4.490  11.319  1.6843  1.2530 -0.6052
 6052TIP3    H239572   6.797   4.640  11.303  0.5861  1.0696 -1.2707
 6053TIP3   OH239573   3.852   0.650   2.817  0.1169 -0.3877 -0.1122
 6053TIP3    H139574   3.783   0.686   2.762  0.5985 -0.1407 -0.5647
 6053TIP3    H239575   3.815   0.568   2.851 -0.3846 -0.2716 -0.3657
 6054TIP3   OH239576   5.096   5.372  14.852  0.1776 -0.3775  0.1450
 6054TIP3    H139577   5.071   5.315  14.779  0.5404 -0.6840  0.2556
 6054TIP3    H239578   5.182   5.405  14.828 -0.0970  0.2478  0.0152
 6055TIP3   OH239579   3.230   1.171  12.633  0.8462  0.0195  0.2940
 6055TIP3    H139580   3.204   1.232  12.703 -0.1783 -1.8832  1.6601
 6055TIP3    H239581   3.196   1.086  12.662  0.4801 -0.8679 -2.5060
 6056TIP3   OH239582   3.361   0.282  13.498 -0.2692 -0.6591 -0.2536
 6056TIP3    H139583   3.395   0.246  13.416  0.2807  0.5217 -0.5583
 6056TIP3    H239584   3.329   0.205  13.546  1.4222 -1.6473 -0.6150
 6057TIP3   OH239585   5.666   6.458  14.887 -0.1649 -0.2655 -0.4741
 6057TIP3    H139586   5.741   6.438  14.831  0.9675 -1.8863  1.4960
 6057TIP3    H239587   5.704   6.497  14.965 -1.5266  0.1836 -0.0032
 6058TIP3   OH239588   6.383   5.635   0.684  0.1541 -0.5203 -0.0982
 6058TIP3    H139589   6.387   5.686   0.765  0.2394 -2.1885  1.0114
 6058TIP3    H239590   6.291   5.606   0.678  0.1114 -0.2753 -0.6882
 6059TIP3   OH239591   3.970   3.388  15.700  0.1686  0.6871 -0.5432
 6059TIP3    H139592   3.922   3.466  15.672  0.5809  1.0173 -0.3462
 6059TIP3    H239593   3.917   3.315  15.669 -1.5506  0.9939  1.3940
 6060TIP3   OH239594   6.108   2.467   4.451  0.1111  0.4839 -0.0741
 6060TIP3    H139595   6.043   2.535   4.469 -0.7898 -0.0001 -1.3599
 6060TIP3    H239596   6.062   2.384   4.465  0.7172  0.1347 -0.0965
 6061TIP3   OH239597   5.625   1.680   4.442  0.2555  0.1036  0.8979
 6061TIP3    H139598   5.671   1.620   4.384  0.5203  0.2987  0.9068
 6061TIP3    H239599   5.691   1.709   4.504  0.0171  0.0439  1.1809
 6062TIP3   OH239600   5.440   4.129   4.336 -0.2124 -0.2119  0.0572
 6062TIP3    H139601   5.484   4.179   4.405 -1.8400 -0.3684  1.2697
 6062TIP3    H239602   5.509   4.074   4.299  1.0515  1.0301  0.4586
 6063TIP3   OH239603   0.070   1.779   3.035  0.2086  0.6595 -0.0154
 6063TIP3    H139604   0.052   1.865   2.997  0.0200  0.0110 -1.4418
 6063TIP3    H239605   0.024   1.717   2.979  2.0536 -0.5532 -0.2664
 6064TIP3   OH239606   2.432   3.184   0.871 -0.5445 -0.4393 -0.1300
 6064TIP3    H139607   2.417   3.150   0.783 -0.0648 -2.6097  0.5506
 6064TIP3    H239608   2.358   3.150   0.922 -0.4802  0.2468  0.4334
 6065TIP3   OH239609   5.770   5.773   5.187  0.2032 -0.5853 -0.0542
 6065TIP3    H139610   5.865   5.764   5.182  0.2446 -0.0925 -0.2199
 6065TIP3    H239611   5.737   5.699   5.136  0.5195 -0.1549 -0.9080
 6066TIP3   OH239612   1.385   6.426  15.000 -0.2524  0.0133  0.0499
 6066TIP3    H139613   1.398   6.518  15.021  0.9519 -0.2096  0.4072
 6066TIP3    H239614   1.295   6.420  14.968 -0.0931  1.4370 -0.7306
 6067TIP3   OH239615   2.229   5.217   2.299 -0.1094 -0.0145 -0.0379
 6067TIP3    H139616   2.231   5.132   2.344  1.3819 -0.2009 -0.4328
 6067TIP3    H239617   2.319   5.247   2.299 -0.4200  0.9873 -1.0311
 6068TIP3   OH239618   0.078   2.639  15.497  0.5049 -0.2329  0.1881
 6068TIP3    H139619   0.094   2.564  15.439  2.4284 -0.5417  1.0365
 6068TIP3    H239620   0.122   2.616  15.579  2.1396  2.2536  0.1241
 6069TIP3   OH239621   2.315   3.775  14.509  0.2228 -0.3201 -0.0894
 6069TIP3    H139622   2.278   3.789  14.597 -1.6343  0.3618 -0.9322
 6069TIP3    H239623   2.351   3.860  14.484  2.3814 -0.9374  0.6561
 6070TIP3   OH239624   2.622   1.068   2.828 -0.0456  0.4281  0.3056
 6070TIP3    H139625   2.607   0.980   2.861  0.1090  1.2904  2.8758
 6070TIP3    H239626   2.717   1.075   2.817 -0.0866  0.1868 -0.2484
 6071TIP3   OH239627   0.669   6.061  15.606  0.1077 -0.0927  0.0817
 6071TIP3    H139628   0.618   6.002  15.550  0.3078 -0.3671  0.1893
 6071TIP3    H239629   0.663   6.023  15.693 -0.5487  0.5602  0.3298
 6072TIP3   OH239630   4.348   3.130   3.754 -0.0995  0.5058 -0.4665
 6072TIP3    H139631   4.313   3.106   3.839  0.6194  0.4539 -0.1765
 6072TIP3    H239632   4.436   3.092   3.752 -0.2181  0.2389 -1.3547
 6073TIP3   OH239633   2.457   2.519   2.828 -0.3918 -0.1589 -0.1002
 6073TIP3    H139634   2.446   2.476   2.913 -0.1395 -0.7334 -0.3543
 6073TIP3    H239635   2.551   2.511   2.810 -0.9416 -3.5040 -2.2319
 6074TIP3   OH239636   1.130   3.173  13.394  0.3061 -0.0762  0.3998
 6074TIP3    H139637   1.098   3.262  13.378  2.9851  0.5543 -2.2935
 6074TIP3    H239638   1.219   3.185  13.427  0.7175 -1.7337 -0.0140
 6075TIP3   OH239639   4.144   3.388  17.130 -0.3655 -0.3785 -0.7946
 6075TIP3    H139640   4.153   3.466  17.185  2.2311 -1.3765  0.3672
 6075TIP3    H239641   4.051   3.367  17.133 -0.5886  0.6022  1.8684
 6076TIP3   OH239642   5.866   0.031  15.038 -0.0415  0.1299  0.2834
 6076TIP3    H139643   5.945   0.022  14.984 -1.8605 -0.1143 -2.5629
 6076TIP3    H239644   5.800   0.064  14.977 -2.1777  0.2546  2.5356
 6077TIP3   OH239645   2.565   3.400  16.890  0.1607 -0.0151 -0.0367
 6077TIP3    H139646   2.537   3.310  16.908 -0.0872  0.0377 -0.1625
 6077TIP3    H239647   2.561   3.407  16.795 -0.6128  0.3849  0.0176
 6078TIP3   OH239648   2.882   4.122   4.260 -0.1304  0.3562  0.0175
 6078TIP3    H139649   2.870   4.188   4.192 -4.9022 -1.5844 -1.4740
 6078TIP3    H239650   2.818   4.145   4.327 -1.1620 -2.0655 -0.0504
 6079TIP3   OH239651   0.159   3.490  12.899  0.3821 -0.2240  0.2547
 6079TIP3    H139652   0.164   3.395  12.895  0.5925 -0.1869 -2.2408
 6079TIP3    H239653   0.077   3.508  12.945 -0.7913 -1.6724 -1.1490
 6080TIP3   OH239654   1.598   3.373  14.420 -0.0961 -0.9730 -0.0018
 6080TIP3    H139655   1.632   3.327  14.497 -0.3543  0.6209  1.1018
 6080TIP3    H239656   1.609   3.310  14.348  1.3883 -2.0028  1.0660
 6081TIP3   OH239657   5.602   4.994  16.756 -0.2787 -0.0712  0.5471
 6081TIP3    H139658   5.554   5.008  16.675 -0.3691  0.1850  0.6472
 6081TIP3    H239659   5.657   5.071  16.766 -0.2078 -0.1387  0.6892
 6082TIP3   OH239660   2.552   4.729  15.987 -0.0191 -0.5521 -0.0943
 6082TIP3    H139661   2.566   4.768  15.900  2.5482  1.1090  0.9599
 6082TIP3    H239662   2.631   4.677  16.003  0.0428  0.0192  1.6562
 6083TIP3   OH239663   4.674   1.564  13.722  0.2278 -0.1853 -0.1631
 6083TIP3    H139664   4.591   1.592  13.761  0.1436  0.6624 -0.9147
 6083TIP3    H239665   4.663   1.470  13.707 -0.4796 -0.1382  0.0150
 6084TIP3   OH239666   1.882   5.977  12.887 -0.2413  0.2992 -0.3234
 6084TIP3    H139667   1.908   5.918  12.816 -0.9788  0.6117 -0.8717
 6084TIP3    H239668   1.786   5.979  12.883 -0.5065 -1.8545  2.5021
 6085TIP3   OH239669   3.377   3.705  15.254  0.5342  0.3404  0.2659
 6085TIP3    H139670   3.313   3.709  15.183  2.5399  2.6812 -1.6061
 6085TIP3    H239671   3.333   3.745  15.329 -1.2232 -1.1194  0.1020
 6086TIP3   OH239672   2.249   3.546   4.443 -0.1631  0.1225 -0.8058
 6086TIP3    H139673   2.329   3.598   4.441  0.2514 -0.4271  0.3840
 6086TIP3    H239674   2.179   3.610   4.452  0.3350  0.5052  0.6369
 6087TIP3   OH239675   2.135   5.554   5.807 -0.0555 -0.1397  0.2081
 6087TIP3    H139676   2.121   5.626   5.868 -1.1286 -0.7403  0.7011
 6087TIP3    H239677   2.076   5.485   5.837  1.5190 -1.5269  0.2005
 6088TIP3   OH239678   4.884   2.698  12.900  0.3012 -0.5867  0.0351
 6088TIP3    H139679   4.845   2.611  12.894  0.3835 -0.5401 -2.9408
 6088TIP3    H239680   4.862   2.739  12.816  3.9458  0.6515 -0.4946
 6089TIP3   OH239681   6.756   3.760   5.845 -0.6367  0.7480  0.3849
 6089TIP3    H139682   6.756   3.690   5.911  1.7106  0.2573 -0.0442
 6089TIP3    H239683   6.844   3.756   5.806 -1.9461  0.8573 -2.9433
 6090TIP3   OH239684   5.898   3.656  15.477  0.1304  0.0428  0.2505
 6090TIP3    H139685   5.905   3.663  15.572  0.7099  0.3907  0.1800
 6090TIP3    H239686   5.897   3.746  15.445  1.3601 -0.0770 -0.1724
 6091TIP3   OH239687   1.254   5.561  10.318  0.7277 -0.3396 -0.3544
 6091TIP3    H139688   1.273   5.608  10.400  1.7128  1.7859 -1.7043
 6091TIP3    H239689   1.340   5.544  10.280  0.3324 -2.3856 -0.4306
 6092TIP3   OH239690   1.307   3.449   3.990  0.1155  0.0224 -0.1285
 6092TIP3    H139691   1.368   3.426   3.920 -1.5548  0.0574 -1.6486
 6092TIP3    H239692   1.220   3.434   3.953 -0.8901  1.9892  1.2473
 6093TIP3   OH239693   6.593   1.987  13.906 -0.3154 -0.1245 -0.1103
 6093TIP3    H139694   6.520   1.979  13.968 -1.2680 -1.1171 -1.2814
 6093TIP3    H239695   6.668   1.951  13.952 -0.4616  1.1875  1.2368
 6094TIP3   OH239696   5.489   0.066  10.618 -0.6560 -0.1222  0.0689
 6094TIP3    H139697   5.404   0.106  10.603 -0.6749  0.0984  0.7428
 6094TIP3    H239698   5.481  -0.022  10.580 -1.0301  0.0519 -0.2639
 6095TIP3   OH239699   2.689   1.766  16.742 -0.3382 -0.2960 -0.2518
 6095TIP3    H139700   2.639   1.847  16.731 -0.3881 -0.3273 -0.2581
 6095TIP3    H239701   2.722   1.745  16.655  0.7745  0.4205 -0.0302
 6096TIP3   OH239702   5.319   6.113  15.012  0.1970  0.2927 -0.5620
 6096TIP3    H139703   5.364   6.155  14.939  0.1110  0.0423 -0.7586
 6096TIP3    H239704   5.256   6.053  14.971  0.0807  0.2225 -0.2845
 6097TIP3   OH239705   3.460   5.111   2.682 -0.4348  0.0432  0.2918
 6097TIP3    H139706   3.499   5.156   2.606  0.1413 -0.5541  0.2169
 6097TIP3    H239707   3.443   5.181   2.745  1.1401  0.3092  0.4847
 6098TIP3   OH239708   3.395   2.278   0.633 -0.1499 -0.0582 -0.9533
 6098TIP3    H139709   3.363   2.195   0.667  1.3513  0.2354  1.3341
 6098TIP3    H239710   3.479   2.257   0.592  0.9218  0.5000  0.8811
 6099TIP3   OH239711   2.163   6.033   1.020 -0.1813 -0.3492  0.1263
 6099TIP3    H139712   2.178   6.115   1.068 -0.4948 -0.0467 -0.2959
 6099TIP3    H239713   2.134   5.971   1.087 -0.6734  0.0889  0.3234
 6100TIP3   OH239714   2.136   2.036  11.695  0.2273  0.2151 -0.0872
 6100TIP3    H139715   2.157   1.992  11.777 -1.2417 -0.5124 -0.0794
 6100TIP3    H239716   2.092   2.117  11.722 -0.2765 -0.0351 -0.1547
 6101TIP3   OH239717   4.104   4.496  14.391  0.2823 -0.7216 -0.3173
 6101TIP3    H139718   4.159   4.573  14.377  0.3165 -0.6170  0.3492
 6101TIP3    H239719   4.059   4.513  14.474 -0.0925 -1.1960 -0.4165
 6102TIP3   OH239720   1.030   5.799   3.503  0.2904 -0.5080  0.2756
 6102TIP3    H139721   1.027   5.713   3.460 -0.9536 -0.3740  0.0708
 6102TIP3    H239722   0.948   5.841   3.479  0.7131  0.5961  0.7014
 6103TIP3   OH239723   5.209   1.094  10.583  0.1828 -0.1579  0.5476
 6103TIP3    H139724   5.187   1.186  10.571  0.3840  0.0035  1.3342
 6103TIP3    H239725   5.130   1.055  10.620  0.7191  0.1265  2.0557
 6104TIP3   OH239726   2.880   3.640   2.340  0.0538 -0.7042 -0.7330
 6104TIP3    H139727   2.794   3.601   2.328 -0.8403  0.5965  1.0480
 6104TIP3    H239728   2.882   3.714   2.279  0.2233 -1.2000 -1.3318
 6105TIP3   OH239729   4.239   6.553   4.153  0.3717 -0.3803 -0.6715
 6105TIP3    H139730   4.279   6.633   4.118  2.3186 -0.4266  1.2228
 6105TIP3    H239731   4.313   6.498   4.178 -0.8547 -1.1187  1.6430
 6106TIP3   OH239732   0.239   1.254  17.008  0.1486  0.5111 -0.0402
 6106TIP3    H139733   0.256   1.179  16.951  0.9867 -0.4849  1.4470
 6106TIP3    H239734   0.188   1.314  16.954  1.3506 -0.1320 -2.0005
 6107TIP3   OH239735   5.203   4.506  15.074  0.3102  0.0750  0.1150
 6107TIP3    H139736   5.228   4.415  15.090 -2.1366 -1.2330 -2.5868
 6107TIP3    H239737   5.203   4.546  15.161  0.9966 -2.6123  1.4638
 6108TIP3   OH239738   4.216   0.902   4.297  0.0576  0.0710  0.3424
 6108TIP3    H139739   4.248   0.961   4.229  1.0889 -0.9277 -0.0790
 6108TIP3    H239740   4.168   0.834   4.249  0.1288 -0.2181  0.6767
 6109TIP3   OH239741   4.288   4.081  15.803  0.3619 -0.1813  0.2965
 6109TIP3    H139742   4.267   4.020  15.874 -2.3227 -1.0461 -1.1287
 6109TIP3    H239743   4.258   4.037  15.724  1.0271  1.7885 -1.1278
 6110TIP3   OH239744   1.100   3.012   5.763  0.6171  0.0870  0.3502
 6110TIP3    H139745   1.074   3.041   5.850  2.8120 -0.7563  1.3490
 6110TIP3    H239746   1.154   3.084   5.729  1.6977 -0.5534  0.6747
 6111TIP3   OH239747   1.277   0.067   2.256 -0.0576 -0.3446  0.1696
 6111TIP3    H139748   1.292   0.136   2.192  1.9927 -1.1363 -0.2973
 6111TIP3    H239749   1.233   0.111   2.329 -0.8198  0.9451 -1.0262
 6112TIP3   OH239750   5.888   1.434   2.334 -0.1318  0.9461 -0.7125
 6112TIP3    H139751   5.857   1.407   2.421  1.1748  1.6288 -0.0105
 6112TIP3    H239752   5.908   1.351   2.290 -1.0288  0.5821 -0.4686
 6113TIP3   OH239753   4.581   4.909   0.296  0.1389  0.2653 -0.7067
 6113TIP3    H139754   4.492   4.879   0.280  0.0847 -0.5689  0.9605
 6113TIP3    H239755   4.626   4.834   0.336  0.7934  1.4958  0.9926
 6114TIP3   OH239756   5.253   0.659   0.193  0.0529 -0.0280  0.5859
 6114TIP3    H139757   5.315   0.598   0.233  1.4642  1.4959  0.8300
 6114TIP3    H239758   5.190   0.677   0.263  1.1748  0.8264  1.4328
 6115TIP3   OH239759   0.176   4.356  13.294  0.4718 -0.3832 -0.5161
 6115TIP3    H139760   0.147   4.268  13.267 -0.6766  0.1669 -1.1305
 6115TIP3    H239761   0.270   4.356  13.276  0.2320 -0.9989 -1.8904
 6116TIP3   OH239762   1.622   0.704   5.829  0.0505  0.1208  0.3048
 6116TIP3    H139763   1.605   0.644   5.757 -1.7656 -0.3116  1.0500
 6116TIP3    H239764   1.562   0.677   5.898 -0.0559  2.1331  1.0731
 6117TIP3   OH239765   2.253   0.058   6.146  0.0783 -0.3683  0.1892
 6117TIP3    H139766   2.188   0.110   6.192 -1.5445 -1.8713 -0.2807
 6117TIP3    H239767   2.336   0.078   6.189 -0.9917  0.1710  2.0838
 6118TIP3   OH239768   0.961   3.238  12.014  0.0150  0.2367 -0.3947
 6118TIP3    H139769   0.910   3.233  12.095  0.0903  1.4444 -0.2583
 6118TIP3    H239770   0.937   3.322  11.976 -0.1229 -0.3815 -1.7103
 6119TIP3   OH239771   6.373   2.802   5.181 -0.0468 -1.0467 -0.5507
 6119TIP3    H139772   6.362   2.865   5.110 -0.7982  0.3983  0.7981
 6119TIP3    H239773   6.462   2.819   5.213 -0.6947  0.2615  0.6373
 6120TIP3   OH239774   2.799   3.719  16.989  0.2861  0.0128 -0.5800
 6120TIP3    H139775   2.871   3.656  16.992 -1.0893 -1.5952  1.2282
 6120TIP3    H239776   2.842   3.804  16.981  2.3537 -0.9296 -0.2267
 6121TIP3   OH239777   4.782   4.185  11.981  0.2027  0.2149  0.0350
 6121TIP3    H139778   4.699   4.149  11.949  0.7429 -1.4301  0.3802
 6121TIP3    H239779   4.758   4.232  12.060 -0.6863  1.6223 -1.0092
 6122TIP3   OH239780   4.974   1.533  12.840 -0.4204  0.1041 -0.4444
 6122TIP3    H139781   5.025   1.601  12.796 -0.2353 -0.1323 -0.5974
 6122TIP3    H239782   4.999   1.452  12.796 -0.0699 -0.1686  0.2483
 6123TIP3   OH239783   0.634   6.630   0.004  0.8149  0.2119  0.5335
 6123TIP3    H139784   0.687   6.632  -0.076  2.7765  0.1948  1.7799
 6123TIP3    H239785   0.543   6.629  -0.028  1.5228 -2.3344 -1.7588
 6124TIP3   OH239786   5.704   6.355  11.379  0.2946  0.2567  0.6105
 6124TIP3    H139787   5.663   6.339  11.294 -0.6063 -2.8550  1.5196
 6124TIP3    H239788   5.789   6.394  11.357 -0.1303  0.0168 -1.6848
 6125TIP3   OH239789   0.108   0.216   4.727 -0.1089 -0.8715 -0.6345
 6125TIP3    H139790   0.064   0.140   4.766 -0.1768 -0.7574 -0.4894
 6125TIP3    H239791   0.178   0.178   4.673  0.7641 -1.0009  0.5531
 6126TIP3   OH239792   4.934   3.582   0.089  0.0694 -0.0190 -0.9053
 6126TIP3    H139793   4.922   3.564  -0.004  0.4131 -0.1477 -0.9248
 6126TIP3    H239794   4.880   3.660   0.105  1.4871  1.1726 -1.6390
 6127TIP3   OH239795   3.630   4.672  15.807  0.5327 -0.4892  0.5090
 6127TIP3    H139796   3.639   4.627  15.891 -0.4879 -0.5096  0.6212
 6127TIP3    H239797   3.596   4.758  15.830 -1.3709 -1.0745  0.0147
 6128TIP3   OH239798   2.464   1.613  13.282  0.1163 -0.4592 -0.2831
 6128TIP3    H139799   2.488   1.660  13.361  1.3506 -1.6255  0.0598
 6128TIP3    H239800   2.487   1.673  13.211  2.0917 -0.6601  0.1258
 6129TIP3   OH239801   6.277   6.531  12.335 -0.2581  0.1582 -0.0179
 6129TIP3    H139802   6.211   6.572  12.391 -2.0618 -1.9953 -0.4253
 6129TIP3    H239803   6.235   6.524  12.249 -0.8326 -3.8925  0.3768
 6130TIP3   OH239804   4.654   3.961   2.721 -0.6739  0.5535 -0.0047
 6130TIP3    H139805   4.566   3.997   2.715 -0.8092  0.0882 -1.1914
 6130TIP3    H239806   4.702   4.001   2.648 -0.5176 -0.7589 -0.6635
 6131TIP3   OH239807   5.289   3.182  11.133 -0.2142  0.1826 -0.3103
 6131TIP3    H139808   5.221   3.177  11.201 -0.2161  1.9449 -0.1346
 6131TIP3    H239809   5.282   3.099  11.086 -1.4932 -0.2892  0.6476
 6132TIP3   OH239810   1.232   5.017  11.961  0.1728 -0.9266  0.0815
 6132TIP3    H139811   1.227   5.011  12.056  0.9326  0.1694  0.2107
 6132TIP3    H239812   1.263   5.106  11.944  1.4756 -1.5725 -1.1396
 6133TIP3   OH239813   6.390   1.694   1.905  0.0599  0.2942  0.0114
 6133TIP3    H139814   6.329   1.689   1.831  0.2492  0.3588 -0.1490
 6133TIP3    H239815   6.414   1.602   1.922 -0.7907  0.1789  0.6695
 6134TIP3   OH239816   0.389   5.119   4.968  0.3697  0.2025 -0.3531
 6134TIP3    H139817   0.453   5.188   4.946  0.1207 -0.8101 -5.7406
 6134TIP3    H239818   0.443   5.045   4.996  1.0880  0.9534  0.2975
 6135TIP3   OH239819   3.810   0.557   1.883 -0.1591 -0.0144 -0.3926
 6135TIP3    H139820   3.841   0.637   1.926 -0.5122  0.1335 -0.4184
 6135TIP3    H239821   3.891   0.507   1.866  0.0665  0.3658 -0.4448
 6136TIP3   OH239822   5.994   5.696  16.013 -0.1693  0.4423  0.2761
 6136TIP3    H139823   6.032   5.613  15.984  0.1502  0.7653 -0.2465
 6136TIP3    H239824   6.060   5.761  15.990 -0.5605  0.8784  0.3862
 6137TIP3   OH239825   6.464   2.640  16.140  0.2246  0.0574 -0.2642
 6137TIP3    H139826   6.485   2.648  16.047 -0.7829 -0.5166 -0.5635
 6137TIP3    H239827   6.370   2.623  16.142  0.0888  0.8280  0.9089
 6138TIP3   OH239828   2.813   4.735  16.425 -0.0244  0.3560  0.3116
 6138TIP3    H139829   2.873   4.791  16.377  2.6240 -2.3341  0.1752
 6138TIP3    H239830   2.758   4.695  16.358  0.4895  0.1358  0.0160
 6139TIP3   OH239831   0.172   6.025  16.529 -0.2234 -0.3960 -0.3693
 6139TIP3    H139832   0.176   6.079  16.450 -0.4330 -1.3704 -1.0509
 6139TIP3    H239833   0.217   6.078  16.596  2.3671 -0.6858 -1.7757
 6140TIP3   OH239834   5.421   0.099  16.138 -0.2308 -0.0396  0.0587
 6140TIP3    H139835   5.370   0.171  16.174 -1.7141 -1.5012  1.0131
 6140TIP3    H239836   5.371   0.020  16.160  2.3707 -1.5854  0.9899
 6141TIP3   OH239837   2.284   0.540  15.134  0.4970  0.4798 -0.0489
 6141TIP3    H139838   2.225   0.563  15.205  2.1189  2.5749  0.7078
 6141TIP3    H239839   2.249   0.585  15.057 -1.0293 -1.4652 -0.5818
 6142TIP3   OH239840   4.934   3.896   3.837  0.4182  0.4041 -0.0995
 6142TIP3    H139841   4.918   3.987   3.812  0.1513 -0.0749 -1.8678
 6142TIP3    H239842   4.869   3.846   3.787  1.7306 -0.8916 -0.5835
 6143TIP3   OH239843   4.267   5.569  15.243  0.0202  0.1861  0.0858
 6143TIP3    H139844   4.231   5.643  15.194  0.4189  1.7762  2.0761
 6143TIP3    H239845   4.352   5.551  15.203  0.6309  1.8927  0.5448
 6144TIP3   OH239846   3.774   4.934  16.011 -0.4046  0.2068  0.4063
 6144TIP3    H139847   3.858   4.900  16.043  0.1540 -0.1657 -1.3688
 6144TIP3    H239848   3.781   5.029  16.020 -0.4505  0.1093  1.7533
 6145TIP3   OH239849   6.306   5.915   3.491  0.0319 -0.5456 -0.5258
 6145TIP3    H139850   6.265   5.958   3.416 -1.4993 -2.6033 -0.9406
 6145TIP3    H239851   6.393   5.889   3.459 -0.2380 -0.5515 -1.2693
 6146TIP3   OH239852   2.834   1.320   2.799 -0.9595 -0.1681 -0.6501
 6146TIP3    H139853   2.927   1.318   2.820 -1.6068 -1.7998  2.8224
 6146TIP3    H239854   2.828   1.274   2.715  1.4276  1.3861 -1.7848
 6147TIP3   OH239855   1.259   0.595   3.242 -0.0470 -0.0199 -0.0677
 6147TIP3    H139856   1.209   0.676   3.246 -1.7198 -1.0080 -0.0756
 6147TIP3    H239857   1.340   0.619   3.196 -0.2513  1.7382  0.4132
 6148TIP3   OH239858   0.492   5.194   3.523 -0.3796 -0.2195  0.1955
 6148TIP3    H139859   0.583   5.166   3.536 -0.6758 -0.2590  2.7857
 6148TIP3    H239860   0.442   5.144   3.588 -2.1251  0.4448 -0.5831
 6149TIP3   OH239861   2.679   5.277  13.374 -0.0742  0.0627 -0.1750
 6149TIP3    H139862   2.659   5.199  13.324  1.7381 -1.6422  1.5907
 6149TIP3    H239863   2.770   5.297  13.354  0.6399 -0.5402  2.1390
 6150TIP3   OH239864   2.937   3.707  12.620  0.0616  0.5021  0.0551
 6150TIP3    H139865   3.014   3.651  12.613 -0.6152 -0.2832 -1.4814
 6150TIP3    H239866   2.962   3.774  12.684  1.8212 -0.0400 -0.0183
 6151TIP3   OH239867   6.112   0.353  15.590 -0.0324  0.5278  0.7536
 6151TIP3    H139868   6.157   0.340  15.507 -0.3720  2.0432  0.2917
 6151TIP3    H239869   6.181   0.344  15.656  0.2174 -0.7980  0.3404
 6152TIP3   OH239870   5.243   0.426  14.381 -0.0033 -0.2504  0.1318
 6152TIP3    H139871   5.245   0.517  14.409  0.2608 -0.2285  0.0392
 6152TIP3    H239872   5.152   0.398  14.397  0.1716 -0.2737  1.1082
 6153TIP3   OH239873   3.841   5.218  14.028 -0.3346  0.4675 -0.1526
 6153TIP3    H139874   3.887   5.157  13.970 -1.5720 -0.8809  0.2258
 6153TIP3    H239875   3.904   5.236  14.098 -0.5232 -1.8804  0.7175
 6154TIP3   OH239876   3.447   0.344   4.982 -0.4428 -0.4378  0.5538
 6154TIP3    H139877   3.366   0.310   4.946 -0.4399  1.0545 -1.0007
 6154TIP3    H239878   3.505   0.355   4.907 -0.1700  2.1156  1.0193
 6155TIP3   OH239879   0.188   6.789   1.228 -0.6406  0.3869  0.1525
 6155TIP3    H139880   0.199   6.696   1.208  0.8685  0.7260 -0.7128
 6155TIP3    H239881   0.204   6.795   1.322 -1.6750 -0.3330  0.3996
 6156TIP3   OH239882   1.324   3.058  14.231 -0.2695 -0.2589 -0.1340
 6156TIP3    H139883   1.397   3.044  14.292 -1.1531 -2.2801  0.5408
 6156TIP3    H239884   1.306   3.151  14.237  0.8583 -0.0879  1.3256
 6157TIP3   OH239885   3.330   6.465   4.623  0.0815 -0.0547  0.1232
 6157TIP3    H139886   3.405   6.506   4.666  0.0552  1.6294 -1.3491
 6157TIP3    H239887   3.368   6.391   4.575  0.6232  0.1374  0.2509
 6158TIP3   OH239888   2.707   2.258   1.650  0.4847  0.1231  0.5511
 6158TIP3    H139889   2.729   2.225   1.737 -2.1003 -0.4660  1.0656
 6158TIP3    H239890   2.714   2.353   1.657 -0.7535  0.1541  1.7922
 6159TIP3   OH239891   2.158   4.014  16.225 -0.3014  0.2251 -0.1412
 6159TIP3    H139892   2.109   3.932  16.214  0.1405 -0.1085  0.3538
 6159TIP3    H239893   2.098   4.082  16.193 -0.0989 -0.4258 -1.9960
 6160TIP3   OH239894   3.966   6.236  15.100 -0.1419 -0.0851 -0.1558
 6160TIP3    H139895   4.056   6.205  15.098  0.0087  0.3727 -1.3298
 6160TIP3    H239896   3.947   6.250  15.193  0.9132 -0.4008  0.1168
 6161TIP3   OH239897   6.150   2.499   3.476 -0.6640  0.2862  0.1069
 6161TIP3    H139898   6.150   2.537   3.564  1.3206  0.9935 -0.1361
 6161TIP3    H239899   6.157   2.405   3.491  0.5505  0.4576  0.7321
 6162TIP3   OH239900   4.694   3.132  15.432  0.1410 -0.0165  0.2607
 6162TIP3    H139901   4.704   3.079  15.511 -0.6235 -0.0603  0.3347
 6162TIP3    H239902   4.614   3.100  15.391  1.4167 -1.1536 -1.4565
 6163TIP3   OH239903   2.101   1.239   0.751 -0.3308  0.3873 -0.3216
 6163TIP3    H139904   2.196   1.246   0.761 -0.4201 -0.4410  1.3643
 6163TIP3    H239905   2.089   1.164   0.692  0.0486  0.5958 -0.6723
 6164TIP3   OH239906   0.236   6.207   2.574 -0.2186 -0.1499  0.1526
 6164TIP3    H139907   0.212   6.176   2.487 -0.8933 -1.6710  0.8292
 6164TIP3    H239908   0.162   6.262   2.600 -1.0543 -1.3867  0.5434
 6165TIP3   OH239909   1.246   2.329   3.885  0.4439 -0.3437  0.1076
 6165TIP3    H139910   1.333   2.293   3.867  0.0161 -0.2116 -2.6581
 6165TIP3    H239911   1.191   2.252   3.899  0.3402 -0.6657 -1.7689
 6166TIP3   OH239912   5.430   0.097  12.738 -0.2735 -0.1503  0.2764
 6166TIP3    H139913   5.499   0.069  12.677  1.3258 -1.6563  2.6180
 6166TIP3    H239914   5.432   0.193  12.734 -0.5532 -0.1700 -2.2749
 6167TIP3   OH239915   3.477   1.869   0.491 -0.4104 -0.1512  0.3428
 6167TIP3    H139916   3.525   1.789   0.469  2.7644  1.5689  0.4983
 6167TIP3    H239917   3.458   1.861   0.584 -1.2254 -1.2372  0.0977
 6168TIP3   OH239918   2.291   2.383  10.542  0.2332 -0.2717 -0.0742
 6168TIP3    H139919   2.382   2.404  10.561  0.3912 -0.9332 -0.0620
 6168TIP3    H239920   2.241   2.422  10.613 -0.0073  3.9833 -2.2303
 6169TIP3   OH239921   4.068   1.581   2.746  0.6122 -0.2427  0.4308
 6169TIP3    H139922   4.021   1.615   2.822 -0.1941 -0.2513 -0.0548
 6169TIP3    H239923   4.010   1.599   2.671  1.5138  0.0340 -0.2282
 6170TIP3   OH239924   5.348   4.384   1.629  0.3333 -0.1738  0.5000
 6170TIP3    H139925   5.268   4.369   1.578 -1.0995  3.7220  1.2451
 6170TIP3    H239926   5.416   4.400   1.563 -0.0218 -1.1752 -0.1356
 6171TIP3   OH239927   4.943   1.457   3.298  0.0478 -0.5496  0.4330
 6171TIP3    H139928   4.884   1.529   3.275  1.5581  1.2128  1.7946
 6171TIP3    H239929   5.019   1.469   3.241 -0.3032 -2.0105 -0.3870
 6172TIP3   OH239930   3.774   3.909   0.870  0.1210 -0.0159  0.2098
 6172TIP3    H139931   3.685   3.899   0.906 -0.0951 -1.2451 -0.5959
 6172TIP3    H239932   3.805   3.819   0.859  1.0452  0.3855 -0.5710
 6173TIP3   OH239933   6.039   3.117  16.458  0.3154 -0.3985 -0.1239
 6173TIP3    H139934   6.098   3.158  16.394 -0.5904  0.4305 -0.4426
 6173TIP3    H239935   5.980   3.063  16.404 -1.5875  1.6579 -0.2357
 6174TIP3   OH239936   2.964   5.039   3.271  0.6597 -0.0733  0.0886
 6174TIP3    H139937   2.916   4.978   3.215  0.9169 -1.9960  1.8266
 6174TIP3    H239938   2.904   5.113   3.283 -1.5134 -1.8834  1.2764
 6175TIP3   OH239939   2.843   4.464  12.913  0.2003  0.2946 -0.7894
 6175TIP3    H139940   2.908   4.396  12.897  0.2281  0.3242 -0.8018
 6175TIP3    H239941   2.763   4.433  12.870  0.1578  0.1773 -0.6305
 6176TIP3   OH239942   5.531   2.468  15.807 -0.2975 -0.7572  0.1371
 6176TIP3    H139943   5.550   2.474  15.713 -0.3912  1.9572  0.1995
 6176TIP3    H239944   5.449   2.419  15.811 -0.0536 -1.3250 -1.1498
 6177TIP3   OH239945   5.967   0.287  12.509  0.2458  0.0150 -0.3041
 6177TIP3    H139946   5.989   0.364  12.456 -0.6676  1.3494  1.1393
 6177TIP3    H239947   5.901   0.240  12.459  1.4471 -0.3289 -1.6073
 6178TIP3   OH239948   6.656   6.517  12.715  0.4036 -0.2642 -0.4017
 6178TIP3    H139949   6.718   6.514  12.788 -0.2939 -1.1349  0.1779
 6178TIP3    H239950   6.630   6.609  12.710  2.9138  0.4773 -1.7051
 6179TIP3   OH239951   4.219   5.582  16.736  0.2089 -0.4290  0.0346
 6179TIP3    H139952   4.201   5.674  16.751  1.5408 -0.4636  2.4160
 6179TIP3    H239953   4.275   5.580  16.658  0.8208  0.8730  0.4183
 6180TIP3   OH239954   4.325   1.907   0.995 -0.0680 -0.0198  0.3109
 6180TIP3    H139955   4.373   1.892   0.913 -0.8677  0.1736 -0.2075
 6180TIP3    H239956   4.389   1.891   1.064  0.0105 -2.7289 -0.2586
 6181TIP3   OH239957   3.704   0.432   0.288 -0.0219 -0.1265 -0.2766
 6181TIP3    H139958   3.769   0.362   0.285 -0.8238 -0.8537 -1.0163
 6181TIP3    H239959   3.655   0.416   0.369  1.1239  0.8261  0.6479
 6182TIP3   OH239960   4.711   0.261  12.834  0.1522 -0.0617 -0.9235
 6182TIP3    H139961   4.640   0.291  12.891  0.2463  0.7415 -1.2206
 6182TIP3    H239962   4.666   0.213  12.764 -0.4390  2.8401 -2.7128
 6183TIP3   OH239963   3.948   5.262   5.412 -0.2998  0.8073  0.5209
 6183TIP3    H139964   3.890   5.211   5.470  0.3385 -0.4321  0.0996
 6183TIP3    H239965   3.898   5.272   5.331 -0.2698  0.4590  0.4550
 6184TIP3   OH239966   1.146   1.249   2.843 -0.0493 -0.5227  0.0992
 6184TIP3    H139967   1.091   1.262   2.920  0.5122 -0.9448  0.5784
 6184TIP3    H239968   1.139   1.156   2.823  0.8545 -0.6801  0.4566
 6185TIP3   OH239969   0.890   3.194  13.759  0.2186 -0.2140  0.3617
 6185TIP3    H139970   0.923   3.266  13.705 -0.5778 -1.6162 -2.1514
 6185TIP3    H239971   0.811   3.229  13.800 -0.6809  0.1508 -1.5535
 6186TIP3   OH239972   0.433   2.826  10.866  0.2783  0.1553  0.5776
 6186TIP3    H139973   0.413   2.837  10.772  1.6269  2.2735  0.4754
 6186TIP3    H239974   0.512   2.879  10.880  0.0781 -0.0776  2.9263
 6187TIP3   OH239975   1.579   4.454  13.888 -0.1306 -0.2706  0.2445
 6187TIP3    H139976   1.495   4.413  13.866  0.0162  0.0781 -0.9945
 6187TIP3    H239977   1.577   4.459  13.984 -0.8667 -1.6409  0.3442
 6188TIP3   OH239978   1.684   5.232  11.497 -0.3083 -0.4323  0.3888
 6188TIP3    H139979   1.666   5.153  11.447 -3.0667 -0.5221  1.3773
 6188TIP3    H239980   1.700   5.300  11.431 -1.3166 -1.0812 -0.5408
 6189TIP3   OH239981   5.573   2.567  16.626 -0.3868 -0.3030 -0.3240
 6189TIP3    H139982   5.533   2.486  16.657 -1.1602  0.0513 -0.3776
 6189TIP3    H239983   5.533   2.636  16.679 -2.0433  0.3650 -2.3320
 6190TIP3   OH239984   3.608   2.397  12.298 -0.0606 -0.0663  0.0840
 6190TIP3    H139985   3.600   2.374  12.391 -0.2805 -0.3642 -0.0068
 6190TIP3    H239986   3.645   2.319  12.257  0.5201  0.2471  0.0006
 6191TIP3   OH239987   4.215   5.418  12.600 -0.0506  0.0366 -0.0016
 6191TIP3    H139988   4.302   5.396  12.568 -0.3271 -0.2816 -0.5436
 6191TIP3    H239989   4.156   5.364  12.548 -0.5245 -0.3478  0.9028
 6192TIP3   OH239990   0.841   6.227   2.758  0.2030  0.0079  0.1113
 6192TIP3    H139991   0.828   6.192   2.846  1.2658 -2.6218 -0.6808
 6192TIP3    H239992   0.929   6.263   2.759  1.0519 -1.9068 -0.3497
 6193TIP3   OH239993   1.637   2.726   0.022  0.0066 -0.7305  0.1822
 6193TIP3    H139994   1.550   2.754   0.049 -0.3778 -2.2037  0.5791
 6193TIP3    H239995   1.660   2.655   0.083  1.8951  0.2530  0.7035
 6194TIP3   OH239996   1.256   6.462  11.043  0.4447 -0.3182  0.8112
 6194TIP3    H139997   1.268   6.422  10.957 -1.3965 -0.1693  0.4391
 6194TIP3    H239998   1.247   6.556  11.025  0.3379 -0.2531  1.1962
 6195TIP3   OH239999   5.489   3.122   2.735 -0.2014 -0.4181  0.0220
 6195TIP3    H140000   5.471   3.199   2.682 -0.3693 -0.2403  0.3333
 6195TIP3    H240001   5.450   3.142   2.821 -1.5009 -1.4132 -0.2935
 6196TIP3   OH240002   3.716   3.215   6.151 -0.7587  0.0317  0.3324
 6196TIP3    H140003   3.672   3.263   6.221 -1.7557 -0.2612 -0.0767
 6196TIP3    H240004   3.669   3.241   6.072  0.8013  0.9083 -0.3472
 6197TIP3   OH240005   1.846   0.169  15.395 -0.3217 -0.1528 -0.1274
 6197TIP3    H140006   1.823   0.242  15.452 -0.7756 -0.3546 -0.0495
 6197TIP3    H240007   1.836   0.204  15.306  0.1348  0.0835 -0.0888
 6198TIP3   OH240008   5.872   5.915   5.900  0.1884  0.1717  0.5884
 6198TIP3    H140009   5.834   5.994   5.937  0.4066  0.4025  0.3258
 6198TIP3    H240010   5.937   5.947   5.836 -0.3358 -0.2108 -0.1490
 6199TIP3   OH240011   1.257   5.775   2.329  0.0705  0.5522  0.1999
 6199TIP3    H140012   1.202   5.756   2.405  0.7093 -0.9431  0.3026
 6199TIP3    H240013   1.335   5.816   2.366 -0.1995  1.0688  0.2113
 6200TIP3   OH240014   6.284   0.554  11.966  0.6540 -0.3211  0.1992
 6200TIP3    H140015   6.316   0.510  11.888 -0.5036 -0.0526 -0.4438
 6200TIP3    H240016   6.293   0.489  12.036 -2.1334 -2.1155 -0.9357
 6201TIP3   OH240017   5.864   6.790  16.745  0.6378  0.4689  0.2057
 6201TIP3    H140018   5.893   6.873  16.708  1.4956 -0.2981 -0.9171
 6201TIP3    H240019   5.868   6.728  16.672 -0.1677 -0.5258  0.9650
 6202TIP3   OH240020   2.945   3.824  12.072 -0.1654  0.2498 -0.0933
 6202TIP3    H140021   2.967   3.750  12.129  0.2063 -0.4214 -1.0764
 6202TIP3    H240022   3.022   3.880  12.076 -0.4816  0.6421  0.7214
 6203TIP3   OH240023   1.740   3.931  11.998 -0.2854 -0.4755 -0.3137
 6203TIP3    H140024   1.773   3.893  12.080  0.4621  0.1414 -0.3161
 6203TIP3    H240025   1.726   3.856  11.940 -0.1914 -0.8580  0.1582
 6204TIP3   OH240026   3.173   0.637   5.717 -0.2853 -0.1365  0.2192
 6204TIP3    H140027   3.138   0.549   5.700 -0.3776 -0.1474  0.4601
 6204TIP3    H240028   3.098   0.688   5.747 -0.3180  0.1420 -0.3177
 6205TIP3   OH240029   4.792   0.053  15.719 -0.1367  0.2884  0.0443
 6205TIP3    H140030   4.833   0.048  15.632 -0.9006 -1.2816 -0.2686
 6205TIP3    H240031   4.811   0.141  15.749  0.5751  0.7100 -1.5124
 6206TIP3   OH240032   6.017   1.810   2.179 -0.0026 -0.3490 -0.5249
 6206TIP3    H140033   5.973   1.750   2.239  1.0409 -0.2372  0.3803
 6206TIP3    H240034   6.097   1.764   2.154  2.0080  1.5042  1.9983
 6207TIP3   OH240035   6.074   3.049  11.625  0.0970 -0.4862 -0.0430
 6207TIP3    H140036   6.158   3.017  11.658  0.6392  1.3180  0.4515
 6207TIP3    H240037   6.080   3.144  11.633 -2.4176 -0.3357  1.0359
 6208TIP3   OH240038   1.862   0.434  14.302  0.2782  0.3767  0.0735
 6208TIP3    H140039   1.809   0.367  14.259  0.6423  0.2737 -0.2257
 6208TIP3    H240040   1.935   0.448  14.242 -0.3027  1.7608 -0.3355
 6209TIP3   OH240041   1.715   4.634  12.796  0.1714  0.3025  0.1778
 6209TIP3    H140042   1.705   4.726  12.769 -0.4594 -0.3600 -2.0270
 6209TIP3    H240043   1.810   4.621  12.802  0.3586  0.4758 -1.9293
 6210TIP3   OH240044   1.380   6.517  15.359  0.0580  0.4650  0.4703
 6210TIP3    H140045   1.474   6.518  15.343  0.2996  2.8562  1.5202
 6210TIP3    H240046   1.346   6.588  15.305 -1.5836 -1.7759 -1.6729
 6211TIP3   OH240047   1.631   6.715   3.563 -0.1378 -0.5981 -0.1747
 6211TIP3    H140048   1.671   6.771   3.629 -0.2832  0.3582 -0.8894
 6211TIP3    H240049   1.702   6.696   3.501 -0.3072 -0.5050 -0.3967
 6212TIP3   OH240050   5.812   4.550   4.484  0.6266  0.8344  0.5534
 6212TIP3    H140051   5.840   4.569   4.395 -0.3415 -1.7570 -0.4285
 6212TIP3    H240052   5.893   4.532   4.532  1.1533  2.2287  0.2165
 6213TIP3   OH240053   1.032   5.531   1.847  0.3570 -0.1886  0.2822
 6213TIP3    H140054   0.974   5.556   1.919  0.3164 -0.0609  0.2042
 6213TIP3    H240055   1.094   5.470   1.887  0.1041 -0.4105  0.3449
 6214TIP3   OH240056   6.088   1.920   3.315 -0.0092  0.7074  0.0474
 6214TIP3    H140057   6.152   1.849   3.314 -1.8470 -1.0620  1.0131
 6214TIP3    H240058   6.106   1.970   3.236  2.0299 -0.1943 -0.1102
 6215TIP3   OH240059   5.728   3.479  12.680 -0.4019 -0.4170 -0.3905
 6215TIP3    H140060   5.763   3.499  12.767 -0.4973  0.0283 -0.4534
 6215TIP3    H240061   5.635   3.499  12.687 -0.3476 -0.0686 -0.6942
 6216TIP3   OH240062   1.386   2.412   5.246  1.0089 -0.1964 -0.0881
 6216TIP3    H140063   1.313   2.417   5.185  1.6273 -0.0836 -0.8298
 6216TIP3    H240064   1.356   2.460   5.324 -0.0701 -0.9909  0.0124
 6217TIP3   OH240065   5.170   0.417   4.223  0.2669 -0.1299 -0.0264
 6217TIP3    H140066   5.075   0.411   4.216  0.1197  1.1122  0.6809
 6217TIP3    H240067   5.185   0.475   4.297  1.5671  0.1954 -0.5205
 6218TIP3   OH240068   5.063   1.330   4.055  0.2714 -0.2165 -0.6465
 6218TIP3    H140069   5.147   1.362   4.086  0.3911 -2.0734  1.1858
 6218TIP3    H240070   5.070   1.330   3.960  1.7886  1.0099 -0.5659
 6219TIP3   OH240071   6.079   1.427   0.382 -0.1346 -0.2785  0.4790
 6219TIP3    H140072   5.984   1.418   0.387 -0.0762 -1.4524 -0.1040
 6219TIP3    H240073   6.112   1.340   0.404  0.8194  0.1803  0.9111
 6220TIP3   OH240074   3.610   5.965   6.567 -0.2206  0.0246 -0.2150
 6220TIP3    H140075   3.519   5.941   6.552 -0.2650 -1.3831  1.9197
 6220TIP3    H240076   3.649   5.966   6.479 -1.5058 -2.7651 -0.9442
 6221TIP3   OH240077   4.946   1.581  13.749 -0.1129  0.6649 -0.2042
 6221TIP3    H140078   4.979   1.539  13.828 -1.6261 -0.8083 -0.2929
 6221TIP3    H240079   4.853   1.595  13.767 -0.4685  0.3473 -1.6879
 6222TIP3   OH240080   3.815   3.374   2.995 -0.5305  0.0507  0.8265
 6222TIP3    H140081   3.742   3.355   2.936  0.6170 -1.0363 -0.3037
 6222TIP3    H240082   3.832   3.467   2.983 -1.6900  0.3187  1.0920
 6223TIP3   OH240083   1.360   2.149   4.251  0.1706 -0.1324 -0.3128
 6223TIP3    H140084   1.350   2.238   4.217 -0.3988 -0.5359 -1.2349
 6223TIP3    H240085   1.385   2.161   4.343 -1.0911  0.9772 -0.0886
 6224TIP3   OH240086   3.057   0.883   1.883  0.1771  0.4754  0.4498
 6224TIP3    H140087   3.068   0.793   1.916  1.9794  1.4439  2.7380
 6224TIP3    H240088   2.969   0.908   1.912  0.5201  0.1860  1.8192
 6225TIP3   OH240089   5.227   2.986   3.544  0.4441  0.0280 -0.1778
 6225TIP3    H140090   5.281   3.065   3.533 -0.5253  0.6177 -0.9608
 6225TIP3    H240091   5.247   2.932   3.467  0.0962  0.1568 -0.3653
 6226TIP3   OH240092   3.438   3.443  15.008  0.7205 -0.1465  0.3816
 6226TIP3    H140093   3.532   3.465  15.005  1.1240 -1.7316 -2.1000
 6226TIP3    H240094   3.404   3.475  14.925 -0.4828 -1.3434  0.3795
 6227TIP3   OH240095   0.452   3.496  11.177  0.2440  0.3517 -0.3586
 6227TIP3    H140096   0.488   3.490  11.088  1.6426 -0.8154  0.2434
 6227TIP3    H240097   0.383   3.430  11.179  0.8905 -0.3431 -0.3063
 6228TIP3   OH240098   0.341   2.275   3.444  0.7774 -0.0601 -0.2455
 6228TIP3    H140099   0.372   2.185   3.441  1.7562  0.2615 -0.0530
 6228TIP3    H240100   0.310   2.288   3.534  0.6553 -0.1962 -0.2682
 6229TIP3   OH240101   4.733   2.327   3.117 -0.0185 -0.3957  0.6502
 6229TIP3    H140102   4.734   2.233   3.098 -1.0824 -0.1496 -0.9008
 6229TIP3    H240103   4.644   2.354   3.095 -0.3577  0.6403  3.0409
 6230TIP3   OH240104   5.264   0.009  16.811 -0.5931 -0.1989 -0.1382
 6230TIP3    H140105   5.277   0.026  16.718 -0.8428  1.1542  0.0468
 6230TIP3    H240106   5.211  -0.071  16.814 -1.4659  0.3110 -1.2010
 6231TIP3   OH240107   3.996   0.935  15.998  0.3033 -0.1475 -0.0014
 6231TIP3    H140108   3.910   0.944  16.039  0.3662 -0.8916  0.3047
 6231TIP3    H240109   3.994   0.998  15.926  0.6414  2.0912  1.8212
 6232TIP3   OH240110   0.762   4.564  11.375 -0.2858 -0.0543 -0.0009
 6232TIP3    H140111   0.773   4.658  11.389 -0.5072 -0.0957  0.4871
 6232TIP3    H240112   0.850   4.527  11.390 -0.1453  0.1003 -0.4392
 6233TIP3   OH240113   6.188   1.090  13.543 -0.0732  0.1980  0.8250
 6233TIP3    H140114   6.184   1.153  13.615 -1.5958  0.9434  0.1393
 6233TIP3    H240115   6.117   1.028  13.561  0.5046 -0.5041  0.7414
 6234TIP3   OH240116   4.064   3.464  14.093 -0.2262  0.0291 -0.0999
 6234TIP3    H140117   4.008   3.487  14.167 -2.4158 -3.1429 -0.5547
 6234TIP3    H240118   4.028   3.513  14.020 -0.2630  0.5355  0.2521
 6235TIP3   OH240119   1.154   0.763  13.871  0.1729  0.2074 -0.3523
 6235TIP3    H140120   1.180   0.794  13.784  1.1148  0.1495 -0.1095
 6235TIP3    H240121   1.061   0.782  13.877  0.5545  2.3786 -0.4868
 6236TIP3   OH240122   4.577   4.921   5.502 -0.7074 -0.7594  1.1065
 6236TIP3    H140123   4.598   4.930   5.409 -2.4821 -3.2986  0.3371
 6236TIP3    H240124   4.652   4.874   5.539 -0.5165 -0.7783  0.6974
 6237TIP3   OH240125   6.594   6.064   0.231 -0.0629  0.1037 -0.5751
 6237TIP3    H140126   6.634   6.002   0.291  0.9293 -1.3638 -2.5999
 6237TIP3    H240127   6.501   6.065   0.254 -0.5103 -3.6466 -1.5530
 6238TIP3   OH240128   3.119   4.779   1.105  0.0140  0.6164 -0.3425
 6238TIP3    H140129   3.063   4.707   1.075 -0.0466  0.7336 -0.5095
 6238TIP3    H240130   3.066   4.827   1.168 -0.3672  1.2074 -1.0994
 6239TIP3   OH240131   1.440   4.625  11.631  0.1624 -0.0794  0.2742
 6239TIP3    H140132   1.458   4.583  11.547 -3.9466 -1.4190 -0.1545
 6239TIP3    H240133   1.401   4.709  11.608 -0.1470 -0.0563  0.8568
 6240TIP3   OH240134   3.386   1.178  10.652 -0.3039 -0.0713 -0.5038
 6240TIP3    H140135   3.432   1.224  10.583 -1.8606  2.6877  0.1652
 6240TIP3    H240136   3.298   1.163  10.617 -0.6964  0.1209  0.3772
 6241TIP3   OH240137   0.367   0.346   4.902  0.6684  0.3176 -0.3290
 6241TIP3    H140138   0.375   0.251   4.896  0.3312  0.3905 -2.6869
 6241TIP3    H240139   0.443   0.373   4.953  0.6977 -1.2027  0.4951
 6242TIP3   OH240140   0.464   1.286   4.640 -0.3985  0.0081  0.5468
 6242TIP3    H140141   0.439   1.376   4.660  0.4804  0.4344 -0.2176
 6242TIP3    H240142   0.425   1.235   4.711 -0.9349  0.9769  0.9788
 6243TIP3   OH240143   0.329   0.629   1.145  0.3677 -0.0669  0.3307
 6243TIP3    H140144   0.358   0.584   1.224 -3.2100 -3.4829 -0.0342
 6243TIP3    H240145   0.289   0.710   1.176  1.4389 -0.0132  1.6529
 6244TIP3   OH240146   5.818   1.805  13.224  0.2611  0.1055  0.6254
 6244TIP3    H140147   5.895   1.801  13.282  0.2966  1.1680  0.6701
 6244TIP3    H240148   5.754   1.856  13.273 -0.5364 -0.8754  0.6369
 6245TIP3   OH240149   1.924   6.401   4.311 -0.2968 -0.0026 -0.7727
 6245TIP3    H140150   1.940   6.493   4.330  0.3509 -0.0616 -1.0305
 6245TIP3    H240151   2.011   6.362   4.305 -0.5668 -0.8754  0.5193
 6246TIP3   OH240152   5.814   0.432  11.251  0.0333 -0.1529 -0.0822
 6246TIP3    H140153   5.830   0.527  11.247  1.2780 -0.3986 -1.8970
 6246TIP3    H240154   5.738   0.419  11.194  0.6622 -0.3750 -0.8904
 6247TIP3   OH240155   1.686   3.488  12.889  0.6601  0.0105  0.0338
 6247TIP3    H140156   1.661   3.493  12.797  0.5133  2.9599  0.1281
 6247TIP3    H240157   1.630   3.553  12.932  1.2868 -0.7239  2.0598
 6248TIP3   OH240158   5.277   4.018  16.743  0.1261  0.2339 -0.5862
 6248TIP3    H140159   5.367   4.032  16.715 -0.0280  2.5022 -0.1337
 6248TIP3    H240160   5.224   4.069  16.682 -0.9004 -1.2251 -0.9698
 6249TIP3   OH240161   4.816   1.189   2.077  0.0912  0.3179 -0.2856
 6249TIP3    H140162   4.853   1.274   2.101  0.0258  0.8301 -1.8692
 6249TIP3    H240163   4.842   1.177   1.985 -1.0189 -0.7615 -0.4812
 6250TIP3   OH240164   1.076   0.353   3.685 -0.1119  0.1775  0.4970
 6250TIP3    H140165   1.166   0.339   3.654 -0.2910  1.0789 -0.5099
 6250TIP3    H240166   1.076   0.443   3.718 -0.9518  0.6712 -0.7690
 6251TIP3   OH240167   0.969   4.677   4.678  0.4253 -0.2646 -0.5114
 6251TIP3    H140168   0.953   4.661   4.771 -2.0135 -0.7993 -0.9495
 6251TIP3    H240169   0.886   4.655   4.635  1.5786 -0.3903 -2.8706
 6252TIP3   OH240170   5.447   2.863  14.103 -0.1712 -0.4749 -0.1234
 6252TIP3    H140171   5.396   2.788  14.133  0.1363 -0.6191  0.0424
 6252TIP3    H240172   5.536   2.844  14.132 -0.2543  0.4055  0.7515
 6253TIP3   OH240173   4.223   2.052   6.580  0.3189  0.4137 -0.0640
 6253TIP3    H140174   4.218   1.964   6.543 -0.3049  0.7123 -0.7161
 6253TIP3    H240175   4.135   2.088   6.568  1.0281  1.7902 -1.4960
 6254TIP3   OH240176   4.661   3.531  11.601  0.4398 -0.0529  0.0819
 6254TIP3    H140177   4.613   3.454  11.634 -0.0824  0.7086  1.1500
 6254TIP3    H240178   4.702   3.500  11.520 -0.8415 -1.0815 -0.2091
 6255TIP3   OH240179   1.860   2.232   5.834 -0.3517 -0.2051  0.0554
 6255TIP3    H140180   1.845   2.320   5.868  2.0825  0.7390 -1.1397
 6255TIP3    H240181   1.802   2.176   5.887 -1.2155  1.9402  1.5148
 6256TIP3   OH240182   0.704   2.841   3.880  0.1303 -0.1695 -0.0757
 6256TIP3    H140183   0.777   2.851   3.941 -0.5962  1.3879  0.6132
 6256TIP3    H240184   0.633   2.806   3.933 -0.2701  0.4309 -0.1997
 6257TIP3   OH240185   4.976   0.370  14.441 -0.3409 -0.0260 -0.4099
 6257TIP3    H140186   4.933   0.455  14.434 -0.4002  0.2706  2.5937
 6257TIP3    H240187   4.916   0.309  14.398 -1.2825  1.1253 -0.7667
 6258TIP3   OH240188   4.223   1.178   0.568  0.1345  0.9257 -0.2212
 6258TIP3    H140189   4.178   1.251   0.525 -0.2119  0.5420 -0.5253
 6258TIP3    H240190   4.203   1.189   0.661  2.8735  3.1679  0.2502
 6259TIP3   OH240191   2.452   1.355  13.384  0.1922 -0.5706 -0.1047
 6259TIP3    H140192   2.490   1.306  13.311 -1.2315 -0.8623 -0.6816
 6259TIP3    H240193   2.461   1.447  13.357  2.4560 -0.4909  0.7784
 6260TIP3   OH240194   3.502   0.620  12.079  0.1446  0.4679  0.3122
 6260TIP3    H140195   3.433   0.619  12.012 -0.2238 -0.9880  0.6910
 6260TIP3    H240196   3.507   0.712  12.106 -0.6012  0.8573 -0.7809
 6261TIP3   OH240197   6.617   3.222  16.105  0.0903  0.1451  0.3307
 6261TIP3    H140198   6.590   3.171  16.029  1.7175 -0.5607  0.1816
 6261TIP3    H240199   6.553   3.201  16.173  0.1852 -1.3733 -0.0161
 6262TIP3   OH240200   2.106   1.615  12.765 -0.1279 -0.0033 -0.3222
 6262TIP3    H140201   2.172   1.549  12.784 -1.4058 -1.2124  0.0638
 6262TIP3    H240202   2.095   1.612  12.670  0.0933 -0.0720 -0.3451
 6263TIP3   OH240203   2.448   6.206  15.267 -0.5122  0.0699 -0.0376
 6263TIP3    H140204   2.473   6.134  15.210  1.2632  2.5835 -2.6857
 6263TIP3    H240205   2.529   6.231  15.312 -0.4493  1.9385 -1.0789
 6264TIP3   OH240206   3.291   5.488   1.051  0.1951 -0.6400 -0.5181
 6264TIP3    H140207   3.230   5.561   1.050  0.4357 -0.4068  0.4162
 6264TIP3    H240208   3.255   5.427   1.115  0.4797 -0.9162 -0.6155
 6265TIP3   OH240209   0.857   1.506  14.890  0.5183 -0.2112  0.0896
 6265TIP3    H140210   0.783   1.552  14.849  2.4677  1.8087 -1.4565
 6265TIP3    H240211   0.913   1.481  14.816  1.8941 -0.7264  1.2603
 6266TIP3   OH240212   4.994   3.415  12.157  0.1075 -1.0220  0.0879
 6266TIP3    H140213   5.060   3.346  12.146  1.5401  0.1234  1.0983
 6266TIP3    H240214   4.999   3.437  12.250 -0.6817  0.0929 -0.1219
 6267TIP3   OH240215   4.428   1.895   4.540  0.2918 -0.0319  0.5477
 6267TIP3    H140216   4.425   1.864   4.630 -1.4881 -0.1098  0.5084
 6267TIP3    H240217   4.417   1.816   4.487 -0.3029  0.1852  0.3349
 6268TIP3   OH240218   3.103   1.805   5.731  0.0424  0.0224  0.3597
 6268TIP3    H140219   3.179   1.795   5.788 -0.1665 -0.8104  0.4943
 6268TIP3    H240220   3.086   1.899   5.731  0.5206  0.1146  1.0426
 6269TIP3   OH240221   2.501   6.506  11.900 -0.5104  0.4788  0.3492
 6269TIP3    H140222   2.416   6.548  11.906 -0.5300  0.3717  0.9133
 6269TIP3    H240223   2.538   6.514  11.988 -0.1226  0.1441  0.2235
 6270TIP3   OH240224   5.276   6.513  14.885  0.0028 -0.4526 -0.0141
 6270TIP3    H140225   5.287   6.540  14.977  2.8756 -2.2471  0.3305
 6270TIP3    H240226   5.235   6.427  14.891 -0.8293 -0.0875 -0.4905
 6271TIP3   OH240227   3.994   4.294  16.359  0.2770 -0.1432 -0.1687
 6271TIP3    H140228   4.072   4.332  16.399  0.2956 -0.4089  0.0503
 6271TIP3    H240229   3.947   4.254  16.432  0.3589 -0.7215 -0.4244
 6272TIP3   OH240230   2.188   6.046   3.147  1.0469  0.0178  0.1718
 6272TIP3    H140231   2.163   6.072   3.236  0.6453  1.4414 -0.3283
 6272TIP3    H240232   2.267   6.096   3.127  2.5135 -2.0276  0.5333
 6273TIP3   OH240233   5.524   1.253   4.894  0.3422  0.0266 -0.0254
 6273TIP3    H140234   5.568   1.172   4.917  0.7531  0.2155 -0.1324
 6273TIP3    H240235   5.434   1.242   4.926  0.8031  0.1575  1.3662
 6274TIP3   OH240236   0.699   2.375   3.317  0.2458  0.3887  0.4314
 6274TIP3    H140237   0.751   2.331   3.384  0.1857 -0.0968  0.1631
 6274TIP3    H240238   0.751   2.366   3.237  0.1841  0.7157  0.3525
 6275TIP3   OH240239   2.129   3.236   5.376  0.1535 -0.1201 -0.3302
 6275TIP3    H140240   2.167   3.227   5.463  0.9628 -0.7311 -0.7289
 6275TIP3    H240241   2.092   3.150   5.356  0.7153 -0.2353 -0.9180
 6276TIP3   OH240242   6.341   6.208   1.674  0.0566  0.4186  0.1222
 6276TIP3    H140243   6.391   6.217   1.755  0.2864  0.6206 -0.0430
 6276TIP3    H240244   6.250   6.213   1.702  0.0875 -0.8130  0.5475
 6277TIP3   OH240245   6.531   5.699   1.920 -0.3822  0.2691 -0.5125
 6277TIP3    H140246   6.595   5.687   1.850 -1.3556 -1.5399 -1.1798
 6277TIP3    H240247   6.485   5.615   1.925 -2.2111  1.2580  0.4196
 6278TIP3   OH240248   5.944   0.600   3.968 -0.0487 -0.3480  0.3112
 6278TIP3    H140249   5.860   0.586   3.924 -1.3583  0.9798  2.2286
 6278TIP3    H240250   5.982   0.676   3.925  0.1136 -0.8176 -0.4088
 6279TIP3   OH240251   5.483   0.418   4.959 -0.5998  0.1748  0.1095
 6279TIP3    H140252   5.400   0.446   4.919  0.4694  0.8893 -1.7516
 6279TIP3    H240253   5.461   0.335   5.002 -1.5207 -1.9092 -3.8740
 6280TIP3   OH240254   5.195   3.539  15.531 -0.0307 -0.3725 -0.7514
 6280TIP3    H140255   5.117   3.483  15.532 -0.7049  0.5325 -1.2920
 6280TIP3    H240256   5.262   3.487  15.577 -0.4242 -1.8983 -1.8122
 6281TIP3   OH240257   5.742   5.764   4.545 -0.1050  0.4677 -0.2940
 6281TIP3    H140258   5.836   5.759   4.561 -0.3084 -2.3826  0.6518
 6281TIP3    H240259   5.720   5.856   4.558  2.4335  1.1008  0.0532
 6282TIP3   OH240260   5.070   5.050  16.194  0.5006 -0.0643 -0.1410
 6282TIP3    H140261   4.979   5.020  16.190 -0.3398  2.2723  0.2535
 6282TIP3    H240262   5.120   4.971  16.215 -1.7345 -0.9623  2.4354
 6283TIP3   OH240263   6.460   3.832  13.771 -0.2573 -0.2553 -0.2859
 6283TIP3    H140264   6.372   3.850  13.738 -0.7894 -0.6712  0.8367
 6283TIP3    H240265   6.501   3.918  13.779 -0.1479 -0.1363 -1.8691
 6284TIP3   OH240266   2.705   4.643   2.448  0.8222  0.1266 -0.0395
 6284TIP3    H140267   2.763   4.700   2.499  0.3132 -0.4247  1.2125
 6284TIP3    H240268   2.760   4.568   2.425  0.4121 -0.8828  2.0182
 6285TIP3   OH240269   5.301   5.654   1.445 -0.1166 -0.1803  0.1995
 6285TIP3    H140270   5.292   5.637   1.539 -1.1259 -0.9645 -0.0160
 6285TIP3    H240271   5.326   5.746   1.440 -0.0009 -0.1408  1.2446
 6286TIP3   OH240272   5.713   6.509  16.837  0.0535  0.3639  0.2881
 6286TIP3    H140273   5.713   6.533  16.930 -0.5473 -1.3330  0.7500
 6286TIP3    H240274   5.802   6.529  16.808 -0.0000  1.7323  0.9847
 6287TIP3   OH240275   1.862   6.159   0.146 -0.2740 -0.5099  0.7577
 6287TIP3    H140276   1.888   6.143   0.055  0.6004 -0.4247  0.9868
 6287TIP3    H240277   1.880   6.252   0.160 -0.5440 -0.4890  0.9828
 6288TIP3   OH240278   1.538   6.328   1.459  0.2539  0.2252 -0.1755
 6288TIP3    H140279   1.447   6.301   1.477  0.6642 -1.0886  0.0492
 6288TIP3    H240280   1.578   6.335   1.546  1.3280 -2.7960 -0.3340
 6289TIP3   OH240281   0.819   4.897  17.180  0.2532 -0.0070  0.0120
 6289TIP3    H140282   0.769   4.826  17.138  0.0850  0.0523  0.1094
 6289TIP3    H240283   0.754   4.941  17.235  0.4614 -0.0558  0.2958
 6290TIP3   OH240284   6.110   6.419  16.007  0.6635  0.0616 -0.3602
 6290TIP3    H140285   6.026   6.463  16.018  1.4146  1.9721 -1.7840
 6290TIP3    H240286   6.148   6.457  15.928  3.4228  0.2197  0.8964
 6291TIP3   OH240287   2.978   1.772  11.861 -0.1686  0.4573  0.6950
 6291TIP3    H140288   3.014   1.699  11.811  0.1002  0.3456  1.0483
 6291TIP3    H240289   2.984   1.744  11.952  2.1423  1.8603  1.0436
 6292TIP3   OH240290   0.078   2.272  11.074 -0.1432  0.1519 -0.1915
 6292TIP3    H140291  -0.007   2.308  11.049  0.2432  0.4038 -1.1810
 6292TIP3    H240292   0.140   2.342  11.057  0.2671 -0.0040  0.5974
 6293TIP3   OH240293   3.639   4.220   2.525 -0.4125  0.3441  0.5680
 6293TIP3    H140294   3.683   4.150   2.476 -0.4589  1.2217 -0.7715
 6293TIP3    H240295   3.706   4.252   2.585  0.1876  0.3512 -0.0823
 6294TIP3   OH240296   3.034   4.278   6.186 -0.0018 -0.0997 -0.0505
 6294TIP3    H140297   3.065   4.325   6.264  2.9574 -2.0136  0.0836
 6294TIP3    H240298   3.055   4.336   6.113  1.5708 -0.2413  0.2653
 6295TIP3   OH240299   2.104   5.770   6.003 -0.1471  0.0734 -0.2188
 6295TIP3    H140300   2.043   5.842   5.991 -1.4360 -0.6656  1.4291
 6295TIP3    H240301   2.137   5.781   6.093 -0.2819 -1.2918  0.0265
 6296TIP3   OH240302   4.816   6.767   3.950 -0.5182  0.2570 -0.1616
 6296TIP3    H140303   4.910   6.783   3.950 -0.4045 -0.3516  0.4020
 6296TIP3    H240304   4.788   6.790   4.038 -1.1540  1.7326 -0.7059
 6297TIP3   OH240305   0.004   5.055   4.963  0.3702  0.2278  0.2714
 6297TIP3    H140306   0.025   5.148   4.954 -0.1930  0.2468 -0.9974
 6297TIP3    H240307   0.044   5.030   5.047  1.5702  1.3139  0.0648
 6298TIP3   OH240308   0.903   5.321  16.046 -0.5763  0.5538 -0.0749
 6298TIP3    H140309   0.891   5.358  16.134  0.2387 -1.5944  1.0173
 6298TIP3    H240310   0.986   5.358  16.016 -0.6628  0.9979  0.2191
 6299TIP3   OH240311   2.332   0.705   0.386 -0.3821 -0.1298 -0.0418
 6299TIP3    H140312   2.393   0.711   0.312 -0.3292  1.0646  0.0797
 6299TIP3    H240313   2.248   0.683   0.346 -0.0035 -1.2172 -0.2683
 6300TIP3   OH240314   5.481   2.023  10.503 -0.0561  0.0314 -0.0894
 6300TIP3    H140315   5.421   2.087  10.466  0.3623  1.2353  1.2104
 6300TIP3    H240316   5.432   1.983  10.575  0.8186  1.4078  1.3286
 6301TIP3   OH240317   1.404   3.750   5.352 -0.4573  0.0248 -0.0746
 6301TIP3    H140318   1.414   3.656   5.338  1.3515  0.1019  0.4892
 6301TIP3    H240319   1.422   3.763   5.446  1.2208  1.1393 -0.5066
 6302TIP3   OH240320   3.126   2.585  14.584  0.0221  0.1946  0.0443
 6302TIP3    H140321   3.142   2.677  14.563 -0.4880  0.0139 -1.2197
 6302TIP3    H240322   3.214   2.549  14.601  0.4266  0.5113 -1.2406
 6303TIP3   OH240323   6.245   3.115   1.891 -0.5027 -0.1118 -0.1837
 6303TIP3    H140324   6.215   3.171   1.963  0.3528 -0.0192  0.1105
 6303TIP3    H240325   6.211   3.028   1.913 -1.1874  0.1300 -0.2509
 6304TIP3   OH240326   2.633   5.571   5.026  0.0892 -0.2440 -0.0395
 6304TIP3    H140327   2.567   5.603   5.088  0.8695  0.2694  0.5633
 6304TIP3    H240328   2.598   5.488   4.994 -0.6521 -0.1834  0.5741
 6305TIP3   OH240329   5.424   4.860   3.767  0.2239 -0.0104  0.4310
 6305TIP3    H140330   5.338   4.901   3.778  0.0935  0.3190 -1.5458
 6305TIP3    H240331   5.473   4.921   3.712  0.2200 -2.1715 -2.1223
 6306TIP3   OH240332   6.199   6.072  11.668  0.6268  0.0936  0.1299
 6306TIP3    H140333   6.283   6.033  11.691 -0.2603 -2.6235 -0.8327
 6306TIP3    H240334   6.135   6.021  11.718 -0.5267  2.1909  0.9636
 6307TIP3   OH240335   2.563   1.032   5.389  0.0927  0.1605  0.3809
 6307TIP3    H140336   2.558   1.080   5.472  1.7956 -1.5011  1.5330
 6307TIP3    H240337   2.517   1.088   5.326  0.7384  2.5961  1.9168
 6308TIP3   OH240338   1.291   1.162   1.772 -0.1221 -0.5687 -0.3456
 6308TIP3    H140339   1.209   1.114   1.783  0.6286 -2.3230 -1.8417
 6308TIP3    H240340   1.300   1.172   1.677  0.3703  1.5141 -0.1257
 6309TIP3   OH240341   1.459   0.521   0.518 -0.0095  0.2200  0.2653
 6309TIP3    H140342   1.439   0.606   0.480  0.2030 -0.5500 -1.6942
 6309TIP3    H240343   1.420   0.524   0.605 -0.7909  1.9795 -0.0975
 6310TIP3   OH240344   1.477   5.631  14.309  0.0725 -0.2713 -0.2853
 6310TIP3    H140345   1.551   5.692  14.312  0.2609 -0.5270  0.4353
 6310TIP3    H240346   1.442   5.641  14.220  0.7698  0.0889 -0.5314
 6311TIP3   OH240347   1.816   0.301  15.637  0.5298  0.0147 -0.7850
 6311TIP3    H140348   1.721   0.298  15.625  0.2183  1.5777  0.8759
 6311TIP3    H240349   1.831   0.249  15.716  0.8391  1.1247 -0.1012
 6312TIP3   OH240350   4.291   1.011  12.500 -0.0368 -0.0435  0.2779
 6312TIP3    H140351   4.208   1.048  12.472  0.7035  0.5705 -1.2284
 6312TIP3    H240352   4.275   0.916  12.505 -0.8192  0.0698  0.0168
 6313TIP3   OH240353   4.483   2.045  15.441 -0.5056 -0.3682 -0.2979
 6313TIP3    H140354   4.417   2.083  15.498 -1.0300 -2.1519  0.3587
 6313TIP3    H240355   4.558   2.104  15.450 -1.4198  0.7582  0.2732
 6314TIP3   OH240356   0.861   6.498  12.814 -0.2346  0.2586  0.0200
 6314TIP3    H140357   0.789   6.492  12.751 -0.1940  1.9629 -0.2311
 6314TIP3    H240358   0.929   6.549  12.769  0.2160  0.6052  1.0524
 6315TIP3   OH240359   2.503   0.656  16.696  0.4470  0.1660  0.4556
 6315TIP3    H140360   2.592   0.623  16.709 -0.2973 -1.8138  0.9063
 6315TIP3    H240361   2.464   0.595  16.633 -0.1442  1.8854 -0.9105
 6316TIP3   OH240362   1.332   1.137   2.046  0.1794  0.2717  0.1167
 6316TIP3    H140363   1.319   1.128   1.952  0.0241 -1.7081  0.2861
 6316TIP3    H240364   1.427   1.149   2.056  0.1731  0.6936 -0.2892
 6317TIP3   OH240365   0.486   2.757  12.716 -0.3564  0.4483 -0.1554
 6317TIP3    H140366   0.489   2.775  12.622  1.1261 -0.0290 -0.2401
 6317TIP3    H240367   0.482   2.661  12.721  1.9930  0.2990  0.2048
 6318TIP3   OH240368   4.758   3.806  10.745 -0.1913  0.6426 -0.4152
 6318TIP3    H140369   4.820   3.814  10.817 -0.9578 -0.1262  0.3479
 6318TIP3    H240370   4.763   3.890  10.700  0.8918  0.8416  0.0368
 6319TIP3   OH240371   4.517   1.562  10.716 -0.4547  0.2516 -0.8170
 6319TIP3    H140372   4.458   1.629  10.680 -2.1757 -1.0179 -0.4783
 6319TIP3    H240373   4.596   1.611  10.741 -2.4398  2.6059  1.5071
 6320TIP3   OH240374   4.397   6.491   4.616 -0.3638  0.2802 -0.1406
 6320TIP3    H140375   4.356   6.525   4.536 -0.9147  0.7697  0.3423
 6320TIP3    H240376   4.473   6.441   4.584  0.4219  1.8672 -0.8989
 6321TIP3   OH240377   2.376   6.690   1.132 -0.1010 -0.1446  0.2477
 6321TIP3    H140378   2.422   6.606   1.129 -0.0138 -0.1056  0.4628
 6321TIP3    H240379   2.292   6.670   1.171  0.8797  0.2892  2.7419
 6322TIP3   OH240380   0.089   4.566  12.260 -0.4358 -0.0308 -0.1404
 6322TIP3    H140381   0.096   4.647  12.311 -0.7453 -0.3842  0.4750
 6322TIP3    H240382   0.179   4.545  12.237 -0.1375 -0.5528  1.3756
 6323TIP3   OH240383   3.704   0.442  17.183  0.0171 -0.2516  0.0963
 6323TIP3    H140384   3.635   0.399  17.234  0.2864  0.0733  0.7530
 6323TIP3    H240385   3.749   0.498  17.246 -0.0221  0.6272 -0.6312
 6324TIP3   OH240386   5.976   0.193   0.857  0.4221  0.7151 -0.0167
 6324TIP3    H140387   5.983   0.118   0.915 -0.6230 -0.5593 -1.4487
 6324TIP3    H240388   5.900   0.241   0.889 -0.3991 -0.2060 -0.5201
 6325TIP3   OH240389   6.135   4.873   1.428  0.2813  0.1230  0.0992
 6325TIP3    H140390   6.151   4.924   1.348 -3.0506  0.8639 -0.2391
 6325TIP3    H240391   6.198   4.908   1.491  2.6231 -0.0715 -1.9466
 6326TIP3   OH240392   3.424   6.531  15.191  0.5113 -0.1634 -0.2534
 6326TIP3    H140393   3.429   6.584  15.270 -2.0307  1.6301 -1.1715
 6326TIP3    H240394   3.515   6.514  15.168  1.3434  0.1741  2.4151
 6327TIP3   OH240395   0.676   3.405   4.981 -0.6072  0.5352 -0.6010
 6327TIP3    H140396   0.673   3.379   4.889 -1.2220  0.4797 -0.5678
 6327TIP3    H240397   0.751   3.464   4.987 -0.8493  0.9109 -1.2357
 6328TIP3   OH240398   4.309   1.914   0.262  0.1517 -0.7773 -0.8250
 6328TIP3    H140399   4.228   1.894   0.216  0.0775 -2.3741 -0.0570
 6328TIP3    H240400   4.378   1.884   0.204  0.3680  2.2753 -2.3361
 6329TIP3   OH240401   5.973   4.388   3.433  0.5698  0.0044  0.1346
 6329TIP3    H140402   5.882   4.417   3.438  0.2644 -1.1548  2.9160
 6329TIP3    H240403   5.971   4.311   3.378  0.0010  0.3999 -0.4124
 6330TIP3   OH240404   6.211   4.207  11.107  0.7411  0.1812 -0.2404
 6330TIP3    H140405   6.140   4.150  11.079 -0.9070  1.9200  0.1781
 6330TIP3    H240406   6.283   4.148  11.127  0.1128 -1.5167 -2.6033
 6331TIP3   OH240407   1.706   2.300   3.694  0.2944 -0.6902  0.1447
 6331TIP3    H140408   1.783   2.282   3.747  1.3309  2.0038 -0.2868
 6331TIP3    H240409   1.734   2.283   3.604  0.5607  0.6219 -0.0462
 6332TIP3   OH240410   6.063   5.978   1.887 -0.0280 -0.3119 -0.0787
 6332TIP3    H140411   6.147   5.953   1.926  0.1469  1.6081  0.8849
 6332TIP3    H240412   5.998   5.932   1.940  0.3413 -0.4537  0.2609
 6333TIP3   OH240413   1.790   6.371  11.140  0.4151  0.0861 -0.0306
 6333TIP3    H140414   1.779   6.413  11.054  0.3669  0.9543  0.3872
 6333TIP3    H240415   1.876   6.330  11.136  0.2703 -0.1717 -0.6152
 6334TIP3   OH240416   6.488   1.514   3.419  0.3707  0.2149 -0.3599
 6334TIP3    H140417   6.426   1.544   3.486  0.5722  1.4262 -0.6885
 6334TIP3    H240418   6.560   1.577   3.424  1.9481 -1.5693  0.5027
 6335TIP3   OH240419   2.481   3.089   4.543 -0.2769 -0.2294 -0.1714
 6335TIP3    H140420   2.542   3.142   4.594  1.1667 -3.1493  1.4000
 6335TIP3    H240421   2.394   3.122   4.567  0.5317  1.3590  0.7438
 6336TIP3   OH240422   4.837   3.362   3.861 -0.0514  0.6240 -0.2786
 6336TIP3    H140423   4.910   3.412   3.823  0.1575  0.0214 -0.6805
 6336TIP3    H240424   4.777   3.429   3.894  0.7583  1.1320  0.2063
 6337TIP3   OH240425   5.763   3.398  14.860  0.3615 -0.4278 -0.0264
 6337TIP3    H140426   5.749   3.449  14.780 -0.9725  0.2661  0.6227
 6337TIP3    H240427   5.813   3.322  14.831 -2.8059 -1.9162 -2.2224
 6338TIP3   OH240428   1.059   0.287   3.168  0.7660 -0.4005  0.3220
 6338TIP3    H140429   1.079   0.194   3.156 -1.1365 -0.9435  0.9469
 6338TIP3    H240430   1.144   0.329   3.181  1.5365 -2.4443  2.6071
 6339TIP3   OH240431   6.018   4.347  17.065 -0.1346  0.3327 -0.0107
 6339TIP3    H140432   6.109   4.325  17.042 -0.2025 -0.6196  0.5724
 6339TIP3    H240433   5.982   4.388  16.987  1.6222  3.3830  0.5702
 6340TIP3   OH240434   6.662   3.651   0.926  0.3150 -0.5626  0.3491
 6340TIP3    H140435   6.641   3.679   0.837  1.4662 -2.8405 -0.7122
 6340TIP3    H240436   6.727   3.714   0.957 -0.8990  0.8927  0.0512
 6341TIP3   OH240437   6.715   2.687  11.500  0.2485  0.5737 -0.7701
 6341TIP3    H140438   6.742   2.605  11.458 -1.9867 -0.6637  0.0282
 6341TIP3    H240439   6.665   2.733  11.433 -1.5196 -0.4329 -0.2282
 6342TIP3   OH240440   2.899   0.299  12.291 -0.2381 -0.2022 -0.2343
 6342TIP3    H140441   2.900   0.314  12.385  1.4324  1.0141 -0.4004
 6342TIP3    H240442   2.970   0.353  12.257 -0.6210 -0.8234 -2.1714
 6343TIP3   OH240443   4.375   2.730   1.006  0.3256 -0.0350 -0.6585
 6343TIP3    H140444   4.381   2.775   1.090 -1.7728 -0.7260 -0.0612
 6343TIP3    H240445   4.288   2.753   0.972  0.4379 -1.1446 -1.8089
 6344TIP3   OH240446   2.828   0.486  13.734 -0.4304 -0.1640 -0.1943
 6344TIP3    H140447   2.803   0.408  13.784 -1.0451  0.2933  0.2244
 6344TIP3    H240448   2.922   0.475  13.717 -0.2206 -0.3549  1.0180
 6345TIP3   OH240449   1.408   6.707   3.059 -0.4848 -0.0066  0.3193
 6345TIP3    H140450   1.404   6.756   3.141 -0.1465 -0.0632  0.3686
 6345TIP3    H240451   1.441   6.621   3.083  2.3208  0.8002 -0.2211
 6346TIP3   OH240452   4.111   6.699  12.279  0.0660 -0.0141  0.0757
 6346TIP3    H140453   4.045   6.727  12.343  1.1215  0.9160  0.8074
 6346TIP3    H240454   4.078   6.732  12.195 -1.0400 -0.7278  0.2058
 6347TIP3   OH240455   3.110   2.209  11.312 -0.0027  0.8521  0.2257
 6347TIP3    H140456   3.089   2.214  11.405 -0.2491  1.8077  0.1286
 6347TIP3    H240457   3.069   2.128  11.282  0.8234  0.0744  1.1231
 6348TIP3   OH240458   3.621   3.721  13.314  0.1188 -0.1818 -0.2353
 6348TIP3    H140459   3.553   3.679  13.261  1.4525  0.5324 -2.6942
 6348TIP3    H240460   3.634   3.806  13.272  0.7470  0.7382  1.7476
 6349TIP3   OH240461   1.081   4.156  16.504  0.1783  0.2967  0.3056
 6349TIP3    H140462   1.156   4.127  16.556 -0.3143  0.5939  1.2010
 6349TIP3    H240463   1.110   4.237  16.462  0.6380 -0.0402 -0.0372
 6350TIP3   OH240464   6.084   2.342  14.638  0.6057  0.4855  0.3008
 6350TIP3    H140465   6.064   2.365  14.547 -0.0515 -0.3887  0.2040
 6350TIP3    H240466   6.095   2.247  14.637  0.5691  0.4620  1.1332
 6351TIP3   OH240467   1.214   6.002   3.503  0.2169  0.1453 -0.1859
 6351TIP3    H140468   1.172   5.919   3.480  2.2851 -1.2383  0.7203
 6351TIP3    H240469   1.204   6.007   3.599  1.1589  0.3093 -0.0899
 6352TIP3   OH240470   2.865   4.930  12.725  0.0222 -0.2304 -0.1492
 6352TIP3    H140471   2.869   4.894  12.636  1.1658  2.3033 -1.2215
 6352TIP3    H240472   2.953   4.964  12.741 -0.7563  1.3175  1.0793
 6353TIP3   OH240473   0.171   5.508  13.832  0.4179 -0.5318  0.0586
 6353TIP3    H140474   0.163   5.532  13.740  2.8422  1.5012  0.3010
 6353TIP3    H240475   0.257   5.468  13.840 -0.3713 -2.1429  1.2223
 6354TIP3   OH240476   2.652   2.888  12.684  0.1261 -0.3355  0.2685
 6354TIP3    H140477   2.589   2.944  12.730  2.9849  3.5175  0.0045
 6354TIP3    H240478   2.599   2.838  12.622 -2.6679  3.4570 -0.7768
 6355TIP3   OH240479   6.499   0.538  13.310 -0.7835  0.1437  0.4625
 6355TIP3    H140480   6.438   0.498  13.373 -0.0962 -1.2785  0.2526
 6355TIP3    H240481   6.485   0.489  13.229 -1.6490  1.9478 -0.5279
 6356TIP3   OH240482   2.451   1.435   5.794  0.2587 -0.4114  0.4345
 6356TIP3    H140483   2.434   1.362   5.854  1.9998 -1.4764 -0.3107
 6356TIP3    H240484   2.540   1.463   5.815  0.4821 -0.0835 -0.8924
 6357TIP3   OH240485   2.670   0.535  14.951 -0.3443  0.3155 -0.4721
 6357TIP3    H140486   2.696   0.452  14.989 -0.6155  0.5924  0.3497
 6357TIP3    H240487   2.748   0.590  14.956 -1.0174  1.1778  2.0800
 6358TIP3   OH240488   4.384   3.468   3.466 -0.2484  0.0119  0.0212
 6358TIP3    H140489   4.354   3.503   3.382 -0.2362  2.8376  1.0833
 6358TIP3    H240490   4.479   3.471   3.460 -0.2411 -0.5044 -0.1321
 6359TIP3   OH240491   4.290   2.033   5.283  0.0527 -0.3550 -0.1778
 6359TIP3    H140492   4.249   1.985   5.211 -0.6202 -0.5300  0.3130
 6359TIP3    H240493   4.289   2.124   5.255 -1.3009 -0.2616  0.1039
 6360TIP3   OH240494   5.878   5.031   4.025  0.0133 -0.0490 -0.0402
 6360TIP3    H140495   5.950   5.069   3.976 -0.9229  0.0549 -1.3733
 6360TIP3    H240496   5.801   5.045   3.970 -0.3553 -4.2023 -0.8715
 6361TIP3   OH240497   4.542   4.770   2.886  0.2759  0.2406 -0.0641
 6361TIP3    H140498   4.509   4.770   2.975  2.1832 -1.2789  0.7193
 6361TIP3    H240499   4.536   4.678   2.858  1.0927  0.4306 -0.9341
 6362TIP3   OH240500   0.016   0.809   4.746  0.4902  0.0773 -0.3103
 6362TIP3    H140501   0.051   0.866   4.814  0.6708  1.2513 -1.3531
 6362TIP3    H240502  -0.068   0.778   4.781  0.8123  0.2603  0.6467
 6363TIP3   OH240503   5.523   6.054   3.668 -0.1072  0.0155  0.3874
 6363TIP3    H140504   5.453   6.119   3.663  0.0250  0.1566  0.3738
 6363TIP3    H240505   5.559   6.063   3.756  0.7369  0.8242 -0.0256
 6364TIP3   OH240506   4.090   0.826   6.239 -0.2561  0.2963 -0.0203
 6364TIP3    H140507   4.011   0.827   6.186 -0.8610 -0.9640  0.8122
 6364TIP3    H240508   4.060   0.804   6.327  0.8178  1.5485  0.6990
 6365TIP3   OH240509   6.599   5.997   1.395 -0.9533  0.4546  0.4981
 6365TIP3    H140510   6.595   6.077   1.342  0.2795  1.0946  1.3231
 6365TIP3    H240511   6.666   5.943   1.354 -2.3258 -0.5413 -0.5184
 6366TIP3   OH240512   4.613   6.657  12.129  0.2506 -0.0573 -0.2136
 6366TIP3    H140513   4.565   6.726  12.082 -1.5849 -0.2809  1.1919
 6366TIP3    H240514   4.661   6.703  12.198 -0.0119 -0.0562 -0.0287
 6367TIP3   OH240515   2.802   6.509  13.791 -0.0870  0.4331  0.0599
 6367TIP3    H140516   2.831   6.580  13.848  0.8281 -0.6894  1.0534
 6367TIP3    H240517   2.779   6.552  13.708 -2.0484  2.1939  1.4174
 6368TIP3   OH240518   4.210   4.137   3.298 -0.3673 -0.0031 -0.1579
 6368TIP3    H140519   4.182   4.132   3.389 -2.0649 -0.4450 -0.6704
 6368TIP3    H240520   4.245   4.050   3.280 -1.8996 -0.5900 -0.4658
 6369TIP3   OH240521   2.557   1.498   0.862  0.2078 -0.2048  0.2634
 6369TIP3    H140522   2.490   1.432   0.847 -0.3244 -0.0431  1.7536
 6369TIP3    H240523   2.511   1.573   0.900  0.7633  1.1584 -1.5923
 6370TIP3   OH240524   0.152   1.890  14.409 -0.0004 -0.1474 -0.8109
 6370TIP3    H140525   0.137   1.833  14.484 -2.4986 -0.8069 -1.7154
 6370TIP3    H240526   0.086   1.959  14.419 -0.0292  0.0254 -2.1199
 6371TIP3   OH240527   2.757   1.794  12.623  0.2636 -0.4081 -0.0878
 6371TIP3    H140528   2.730   1.771  12.712  0.8266  0.3781  0.2877
 6371TIP3    H240529   2.750   1.889  12.619  0.6081 -0.4054 -0.7636
 6372TIP3   OH240530   4.946   2.401   2.265  0.8156 -0.3176  0.1827
 6372TIP3    H140531   4.967   2.489   2.233  0.3928 -0.4023 -0.3507
 6372TIP3    H240532   4.976   2.400   2.356  1.5806  0.1046 -0.0542
 6373TIP3   OH240533   6.727   5.864   1.672 -0.0116  0.3114  0.5777
 6373TIP3    H140534   6.761   5.951   1.651  0.1807 -0.1751 -1.4152
 6373TIP3    H240535   6.679   5.838   1.592 -2.7254 -0.1734  2.2253
 6374TIP3   OH240536   3.255   4.992   5.490 -0.0904  0.4749  0.2746
 6374TIP3    H140537   3.243   5.051   5.564 -1.4840  0.9862 -0.3175
 6374TIP3    H240538   3.333   5.024   5.445  1.6137 -0.6628  2.2255
 6375TIP3   OH240539   4.602   1.251  11.783  0.2639  0.5306 -0.4898
 6375TIP3    H140540   4.571   1.335  11.817  0.0691  0.1197  0.3971
 6375TIP3    H240541   4.522   1.204  11.758  0.2405 -0.0038  0.5283
 6376TIP3   OH240542   4.613   1.960   5.877 -0.5453  0.2572 -0.3503
 6376TIP3    H140543   4.563   1.992   5.952  1.5082  1.3223  0.6601
 6376TIP3    H240544   4.663   1.887   5.912  1.7311  1.8195 -0.1232
 6377TIP3   OH240545   1.659   1.451   2.717 -0.4666  0.5654 -0.2635
 6377TIP3    H140546   1.720   1.470   2.788  0.5088 -0.0145 -0.9094
 6377TIP3    H240547   1.643   1.536   2.675  1.1665  0.5310 -1.0417
 6378TIP3   OH240548   4.728   1.272   5.775  0.4283 -0.1368 -0.5146
 6378TIP3    H140549   4.806   1.327   5.776 -0.5064  1.3308  2.5855
 6378TIP3    H240550   4.671   1.312   5.709  0.9168  0.8943 -0.3281
 6379TIP3   OH240551   6.149   5.870   3.094  0.0474 -0.2426  0.2022
 6379TIP3    H140552   6.224   5.888   3.151  1.5709  2.5199 -2.3962
 6379TIP3    H240553   6.181   5.804   3.033 -0.7001 -1.2457  0.8632
 6380TIP3   OH240554   6.477   4.418  16.541 -0.1557 -0.1610  0.1246
 6380TIP3    H140555   6.405   4.400  16.601  0.2068 -3.6493 -0.2570
 6380TIP3    H240556   6.465   4.509  16.515 -2.8938  0.1392  2.0327
 6381TIP3   OH240557   1.376   0.499  17.095 -0.4099  0.4474  0.1364
 6381TIP3    H140558   1.442   0.566  17.114 -0.2558  0.2490  0.3046
 6381TIP3    H240559   1.296   0.533  17.134 -0.2252  0.3151  0.6299
 6382TIP3   OH240560   3.974   3.504  16.358 -0.0057  0.1046 -0.0029
 6382TIP3    H140561   4.051   3.514  16.414  1.2737 -1.5407 -1.3402
 6382TIP3    H240562   3.915   3.447  16.407  0.0567  0.5436  0.6004
 6383TIP3   OH240563   1.168   5.989   3.795  0.8092  0.2839  0.7530
 6383TIP3    H140564   1.233   5.936   3.841  0.8990  0.2023  0.5314
 6383TIP3    H240565   1.143   6.057   3.858 -0.5818 -1.0232  1.7068
 6384TIP3   OH240566   5.811   2.507   2.248 -0.4243 -0.0255  0.4263
 6384TIP3    H140567   5.865   2.471   2.178 -0.6267  0.9586 -0.2509
 6384TIP3    H240568   5.721   2.490   2.220 -0.5914  2.5174 -0.7892
 6385TIP3   OH240569   6.550   5.377  13.014  1.0397 -0.0303 -0.5538
 6385TIP3    H140570   6.587   5.416  13.094  2.8735  0.7379 -1.7157
 6385TIP3    H240571   6.486   5.441  12.983 -0.0688 -0.5662  0.5387
 6386TIP3   OH240572   6.777   2.107  14.359 -0.0935 -0.4401 -0.1470
 6386TIP3    H140573   6.732   2.028  14.328 -1.3155 -0.0975  0.6655
 6386TIP3    H240574   6.710   2.175  14.356  0.4963  0.1920  0.6786
 6387TIP3   OH240575   6.260   6.291   2.775 -0.2661 -0.4330  0.6967
 6387TIP3    H140576   6.192   6.358   2.769 -0.1205 -0.3610 -0.2465
 6387TIP3    H240577   6.221   6.213   2.734  0.3286 -0.2982 -0.1418
 6388TIP3   OH240578   6.262   5.977   5.590  0.3365  0.0384 -0.0065
 6388TIP3    H140579   6.332   6.041   5.577 -0.0724  0.4892 -0.0002
 6388TIP3    H240580   6.222   6.002   5.673 -0.7102  0.6231 -0.6597
 6389TIP3   OH240581   2.572   6.281   4.428  0.3087 -0.3620 -0.4532
 6389TIP3    H140582   2.510   6.282   4.356  1.4869 -0.5911 -1.5109
 6389TIP3    H240583   2.605   6.371   4.433 -0.2745 -0.1811  0.2674
 6390TIP3   OH240584   6.027   0.272  13.305 -0.3206 -0.4899 -0.3980
 6390TIP3    H140585   5.950   0.263  13.360 -0.7908 -0.7636 -1.0805
 6390TIP3    H240586   5.996   0.252  13.216  0.5712 -0.8031 -0.6595
 6391TIP3   OH240587   4.662   3.150  16.728  0.3331 -0.4717  0.1546
 6391TIP3    H140588   4.598   3.220  16.731  0.3345 -0.4997  0.9114
 6391TIP3    H240589   4.744   3.190  16.756  0.2130 -0.8951  1.1640
 6392TIP3   OH240590   5.238   3.577   4.024 -0.1171 -0.3075 -0.3700
 6392TIP3    H140591   5.328   3.600   4.047  0.3634  0.4272 -2.6517
 6392TIP3    H240592   5.208   3.651   3.971 -1.6075 -1.1297 -0.7200
 6393TIP3   OH240593   6.127   0.078  14.151 -0.2835 -0.2652  0.0016
 6393TIP3    H140594   6.202   0.036  14.109  0.3515  0.3318  0.5247
 6393TIP3    H240595   6.052   0.022  14.129  0.2555 -0.6749 -0.8143
 6394TIP3   OH240596   1.328   5.056   3.707 -0.3458  0.0947 -0.0331
 6394TIP3    H140597   1.418   5.088   3.709  0.0506 -0.9385  2.8664
 6394TIP3    H240598   1.333   4.970   3.748 -2.5728 -0.3270 -0.5406
 6395TIP3   OH240599   4.486   1.096  15.764 -0.2535  0.6240  0.2904
 6395TIP3    H140600   4.472   1.175  15.712 -1.2608  0.2820  0.0244
 6395TIP3    H240601   4.439   1.113  15.846 -1.3974 -0.1144 -0.1909
 6396TIP3   OH240602   3.097   2.870  12.568  0.0461 -0.3874 -0.2034
 6396TIP3    H140603   3.158   2.817  12.621  1.2771  2.3537  1.3116
 6396TIP3    H240604   3.152   2.931  12.521 -1.4322  2.1289  1.1243
 6397TIP3   OH240605   2.990   3.217  11.779 -0.2131 -0.1677  0.1617
 6397TIP3    H140606   2.933   3.243  11.851 -2.3131  0.0127 -1.4711
 6397TIP3    H240607   2.990   3.121  11.781 -0.3008 -0.1626  0.3801
 6398TIP3   OH240608   3.462   0.681   0.206  0.1268 -0.2892  0.0367
 6398TIP3    H140609   3.483   0.637   0.124 -0.9106  0.8350 -0.8842
 6398TIP3    H240610   3.522   0.756   0.209 -1.2233  0.8984 -0.8283
 6399TIP3   OH240611   5.524   6.721   1.838 -0.1485  0.4921 -0.3578
 6399TIP3    H140612   5.595   6.745   1.777 -0.4212  0.1864 -0.8004
 6399TIP3    H240613   5.444   6.735   1.788 -0.3864  0.4412  0.0075
 6400TIP3   OH240614   1.945   4.104   3.146 -0.1552 -0.9293  0.3942
 6400TIP3    H140615   1.911   4.085   3.058  0.4564 -1.9637  0.3578
 6400TIP3    H240616   1.993   4.025   3.170 -1.1964 -1.0856  2.1166
 6401TIP3   OH240617   6.373   2.139   4.189 -0.0557 -0.3943 -0.2023
 6401TIP3    H140618   6.437   2.152   4.118  0.6830  1.0301  0.6788
 6401TIP3    H240619   6.334   2.226   4.202 -1.8269 -1.1211 -0.3502
 6402TIP3   OH240620   0.716   4.222   3.258  0.3624  0.3821 -0.2643
 6402TIP3    H140621   0.741   4.299   3.309 -0.4893  0.1628  0.5099
 6402TIP3    H240622   0.785   4.213   3.192  1.0721  1.1262  0.3635
 6403TIP3   OH240623   4.040   2.203   0.038  0.0136  0.6289 -0.4612
 6403TIP3    H140624   4.007   2.113   0.027 -2.5079  1.4900 -0.5842
 6403TIP3    H240625   4.135   2.195   0.025 -0.0601 -2.0753 -0.0348
 6404TIP3   OH240626   5.831   3.302   2.418 -0.1552  0.0290  0.0186
 6404TIP3    H140627   5.739   3.327   2.418 -0.3599 -0.5144 -1.8894
 6404TIP3    H240628   5.838   3.237   2.348  1.4256 -0.9893  1.0507
 6405TIP3   OH240629   6.378   5.193   5.512  1.0949 -0.3149 -0.2538
 6405TIP3    H140630   6.369   5.249   5.435  1.3744  1.1499  0.7271
 6405TIP3    H240631   6.408   5.253   5.581  1.5218 -1.7162  0.8135
 6406TIP3   OH240632   4.151   4.846   4.617  0.0476 -0.3242 -0.3350
 6406TIP3    H140633   4.187   4.861   4.530  1.0113  0.4897  0.1834
 6406TIP3    H240634   4.228   4.834   4.673 -0.5078  0.4480  0.6292
 6407TIP3   OH240635   5.849   1.646  13.569  0.2886  0.0845 -0.3264
 6407TIP3    H140636   5.772   1.637  13.625  1.5352  1.7340  1.7929
 6407TIP3    H240637   5.923   1.632  13.628  1.6440  0.3832 -1.8966
 6408TIP3   OH240638   1.206   5.851  12.030  0.0307 -0.6189 -0.3788
 6408TIP3    H140639   1.288   5.902  12.031  0.5466 -1.4373 -0.2103
 6408TIP3    H240640   1.173   5.858  12.120  0.7542 -1.5873 -0.0122
 6409TIP3   OH240641   2.178   2.659  12.909  0.2911 -0.3016  0.2116
 6409TIP3    H140642   2.188   2.711  12.829  0.2541  1.4908  1.3020
 6409TIP3    H240643   2.200   2.720  12.980 -2.9819 -0.7461  1.8078
 6410TIP3   OH240644   1.211   4.089  16.196 -0.0851  0.0899  0.2446
 6410TIP3    H140645   1.202   4.182  16.215 -2.0689  0.1567 -0.7022
 6410TIP3    H240646   1.121   4.060  16.179  0.5238 -1.9376  0.2509
 6411TIP3   OH240647   1.643   3.108   2.747  0.2775  0.3957  0.5998
 6411TIP3    H140648   1.572   3.138   2.803  1.0857  0.1789  1.7842
 6411TIP3    H240649   1.648   3.013   2.763 -0.1822  0.1363 -0.6809
 6412TIP3   OH240650   0.130   2.238   0.917 -0.0230  0.1081 -0.7916
 6412TIP3    H140651   0.115   2.323   0.875 -0.4986 -0.1101 -1.0756
 6412TIP3    H240652   0.043   2.209   0.942  0.3380  0.7307  1.3683
 6413TIP3   OH240653   4.059   1.237  15.099  0.1996  0.2142 -0.5550
 6413TIP3    H140654   4.020   1.153  15.079  0.7508 -0.5097  1.2132
 6413TIP3    H240655   4.103   1.224  15.183  2.7802  1.4369 -1.6038
 6414TIP3   OH240656   4.276   4.005   3.041  0.2922 -0.5260  0.7049
 6414TIP3    H140657   4.231   4.075   3.087 -0.8805 -1.1376  0.5295
 6414TIP3    H240658   4.214   3.932   3.041  1.0179 -1.1742 -0.1416
 6415TIP3   OH240659   3.938   4.856   4.202 -0.4461  0.3343 -0.0879
 6415TIP3    H140660   3.929   4.883   4.293 -1.0700  0.0930 -0.0752
 6415TIP3    H240661   3.961   4.936   4.155 -0.7752  0.5887  0.1802
 6416TIP3   OH240662   0.075   5.678  14.010  0.7208  0.3869  0.0925
 6416TIP3    H140663   0.137   5.729  14.061  0.2380  2.8867 -1.6055
 6416TIP3    H240664   0.129   5.627  13.950  1.2242  1.5012 -0.4398
 6417TIP3   OH240665   2.498   5.732  14.146 -0.5940 -0.0587  0.0014
 6417TIP3    H140666   2.427   5.668  14.144 -1.2533  0.6684 -0.3443
 6417TIP3    H240667   2.578   5.679  14.145 -1.1259 -0.8777 -0.1039
 6418TIP3   OH240668   0.579   3.755   4.819 -0.3407  0.0299 -0.0406
 6418TIP3    H140669   0.659   3.785   4.862 -0.4353  0.7545 -0.3482
 6418TIP3    H240670   0.603   3.746   4.726 -0.4367 -0.4115 -0.0246
 6419TIP3   OH240671   3.443   6.405  14.684 -0.3416 -1.4250 -0.2038
 6419TIP3    H140672   3.430   6.364  14.770  0.7403 -0.8803  0.2433
 6419TIP3    H240673   3.533   6.382  14.660  0.4187  0.8747  0.1998
 6420TIP3   OH240674   6.694   5.424   2.012  0.0048 -0.4007 -0.3945
 6420TIP3    H140675   6.732   5.354   2.066  1.4542 -1.0709 -2.1593
 6420TIP3    H240676   6.754   5.498   2.022 -0.9931  0.2863  0.6980
 6421TIP3   OH240677   2.993   3.265  16.022 -1.1189  0.2059  0.0052
 6421TIP3    H140678   2.924   3.324  15.991  0.3321  0.7188 -2.4608
 6421TIP3    H240679   2.946   3.187  16.050 -2.7036 -0.0951 -3.0749
 6422TIP3   OH240680   4.585   6.045  11.778 -0.0260 -0.0094  0.0259
 6422TIP3    H140681   4.644   6.082  11.712 -1.7702  0.7386 -1.1996
 6422TIP3    H240682   4.532   6.120  11.807 -1.8971 -1.0320 -0.6080
 6423TIP3   OH240683   6.335   2.006  15.431 -0.0221 -0.4408  0.3175
 6423TIP3    H140684   6.356   1.913  15.419  0.6280 -0.2333 -0.1588
 6423TIP3    H240685   6.396   2.036  15.499  0.4594 -0.1182 -0.2518
 6424TIP3   OH240686   0.678   5.841   1.970  0.2800  0.2194 -0.0647
 6424TIP3    H140687   0.616   5.787   2.018  0.8299  0.2653  0.7151
 6424TIP3    H240688   0.722   5.893   2.037 -0.0654  1.4663 -0.7601
 6425TIP3   OH240689   1.979   5.536  13.638 -0.1318  0.0479 -0.2509
 6425TIP3    H140690   1.981   5.598  13.565 -1.5654 -0.2347 -0.5733
 6425TIP3    H240691   1.962   5.451  13.596  0.7735 -0.4050  0.2755
 6426TIP3   OH240692   4.892   6.204  16.398  0.3116 -0.2518  0.3904
 6426TIP3    H140693   4.863   6.295  16.388 -1.0074 -0.7130 -0.2364
 6426TIP3    H240694   4.813   6.156  16.423  0.6023 -1.5008 -0.9408
 6427TIP3   OH240695   4.425   3.517  10.786 -0.5348 -0.2948 -0.6389
 6427TIP3    H140696   4.350   3.461  10.811  0.2590 -0.4434  1.6479
 6427TIP3    H240697   4.501   3.459  10.792  0.0764  0.5308 -0.1957
 6428TIP3   OH240698   4.820   1.739   3.732 -0.0322  0.1053  0.1013
 6428TIP3    H140699   4.839   1.742   3.638 -0.6126  1.3058  0.0044
 6428TIP3    H240700   4.903   1.764   3.774 -0.2997  1.5904 -0.1866
 6429TIP3   OH240701   4.686   2.960  15.669 -0.0144 -0.3063 -0.5352
 6429TIP3    H140702   4.629   2.883  15.674 -0.8450  0.3508  1.4078
 6429TIP3    H240703   4.747   2.949  15.742  0.4824  0.3939 -0.8395
 6430TIP3   OH240704   4.137   3.856  16.688 -0.0219  0.3939 -0.5210
 6430TIP3    H140705   4.124   3.875  16.595 -0.8742 -0.7797 -0.6675
 6430TIP3    H240706   4.074   3.786  16.707  1.0767 -0.3220  0.6209
 6431TIP3   OH240707   5.610   0.618   1.894 -0.5381 -0.4842 -0.2213
 6431TIP3    H140708   5.603   0.612   1.989  1.9830  1.3457  0.1953
 6431TIP3    H240709   5.695   0.578   1.874 -0.0140  1.1291 -1.3979
 6432TIP3   OH240710   0.251   1.985  15.974 -0.4605  0.9063  0.0265
 6432TIP3    H140711   0.346   2.000  15.967 -0.3319  0.5200  0.8090
 6432TIP3    H240712   0.242   1.931  16.053 -1.2569  0.2459 -0.5070
 6433TIP3   OH240713   4.564   3.434   4.649  0.2050 -0.9346  0.3880
 6433TIP3    H140714   4.639   3.467   4.699  1.1572  0.4962 -1.7983
 6433TIP3    H240715   4.604   3.388   4.574 -1.0977 -0.5196 -0.5947
 6434TIP3   OH240716   4.426   5.172  11.968 -0.0594  0.5667 -0.4675
 6434TIP3    H140717   4.353   5.113  11.950 -0.1492  0.5339 -0.0003
 6434TIP3    H240718   4.394   5.230  12.037 -0.0533  1.3148 -1.0731
 6435TIP3   OH240719   5.770   1.521  11.303 -0.0249  0.1182 -0.6572
 6435TIP3    H140720   5.858   1.549  11.325 -0.6786  2.8928 -1.1852
 6435TIP3    H240721   5.774   1.498  11.210  0.2724 -0.4335 -0.5105
 6436TIP3   OH240722   0.789   5.824   4.609 -0.1581 -0.2013 -0.3385
 6436TIP3    H140723   0.738   5.884   4.555  0.7643  0.3406 -0.6306
 6436TIP3    H240724   0.879   5.834   4.578  0.2350 -0.6408  0.6118
 6437TIP3   OH240725   5.001   4.088   1.008  0.2384  0.1429  0.2146
 6437TIP3    H140726   5.048   4.052   1.083 -0.6533 -1.1501  0.1784
 6437TIP3    H240727   4.954   4.164   1.043 -0.1173 -0.4056  0.9696
 6438TIP3   OH240728   1.289   0.138   3.828 -0.2130  0.4950 -0.2739
 6438TIP3    H140729   1.324   0.178   3.748  1.9169  1.7969  1.2099
 6438TIP3    H240730   1.366   0.109   3.876 -1.4083  0.0605  1.4807
 6439TIP3   OH240731   2.795   3.448  15.968  0.2251 -0.0506 -0.3370
 6439TIP3    H140732   2.776   3.541  15.952  1.3669  0.3305  0.3530
 6439TIP3    H240733   2.807   3.443  16.063 -0.0490 -0.9522 -0.3490
 6440TIP3   OH240734   4.389   1.999  12.685 -0.6087  0.1087 -0.8358
 6440TIP3    H140735   4.341   1.920  12.710 -0.1000 -0.2184 -0.8732
 6440TIP3    H240736   4.367   2.063  12.752  0.7642 -0.7591  0.4938
 6441TIP3   OH240737   6.399   6.279   5.364 -0.1263  0.4833  0.0795
 6441TIP3    H140738   6.364   6.215   5.302  0.8750  1.2286 -1.3086
 6441TIP3    H240739   6.493   6.261   5.366  0.0093  1.2035  0.5097
 6442TIP3   OH240740   2.167   1.806   4.761 -0.3116  0.0881  0.0464
 6442TIP3    H140741   2.207   1.881   4.717 -0.6395  0.7792  0.9114
 6442TIP3    H240742   2.075   1.830   4.769 -0.7859 -1.1667 -1.2400
 6443TIP3   OH240743   1.090   3.848   1.962  0.6060  0.1667 -0.0175
 6443TIP3    H140744   1.056   3.768   1.922 -0.9560  0.3733  0.8266
 6443TIP3    H240745   1.068   3.918   1.901 -0.0394  0.2345  0.2909
 6444TIP3   OH240746   6.723   3.268  11.200  0.1134 -0.3211 -0.1229
 6444TIP3    H140747   6.634   3.292  11.226  0.3646  0.7602 -0.2294
 6444TIP3    H240748   6.723   3.172  11.203 -0.7527 -0.3130  0.8745
 6445TIP3   OH240749   2.644   3.414  15.610 -0.0148  0.1877 -0.2816
 6445TIP3    H140750   2.731   3.385  15.582  0.1423  1.0807 -0.7252
 6445TIP3    H240751   2.614   3.344  15.668  1.1301  0.0173  0.1325
 6446TIP3   OH240752   1.172   4.354  16.269 -0.6311  0.2621  0.0416
 6446TIP3    H140753   1.240   4.417  16.243 -0.6253  0.0119 -0.5688
 6446TIP3    H240754   1.095   4.408  16.285 -0.2560  0.5673  0.8871
 6447TIP3   OH240755   1.588   3.534  15.386  0.2180  0.1838  0.1896
 6447TIP3    H140756   1.513   3.535  15.327  0.6997 -1.9774 -0.5371
 6447TIP3    H240757   1.663   3.555  15.330  0.3660  0.7663  0.5935
 6448TIP3   OH240758   6.378   3.065  15.702  0.3601  0.4856 -0.5399
 6448TIP3    H140759   6.305   3.004  15.705  1.0562 -0.3345  0.3667
 6448TIP3    H240760   6.337   3.152  15.702 -0.6253  0.0385 -1.2998
 6449TIP3   OH240761   4.572   3.147   6.280  0.2027 -0.2707  0.2979
 6449TIP3    H140762   4.504   3.132   6.345 -0.5374  2.8244  0.3598
 6449TIP3    H240763   4.543   3.223   6.231  1.8662 -1.0969 -2.1902
 6450TIP3   OH240764   4.458   3.079   2.402 -0.6808  0.1929  0.4355
 6450TIP3    H140765   4.369   3.106   2.380 -0.6692 -0.4506 -0.4907
 6450TIP3    H240766   4.513   3.148   2.366 -0.7428 -0.0930 -0.2188
 6451TIP3   OH240767   4.500   4.501  14.428 -0.3147 -0.0917 -0.6162
 6451TIP3    H140768   4.449   4.582  14.425 -1.5569 -0.8468 -0.1640
 6451TIP3    H240769   4.591   4.531  14.416 -0.8107  1.2861 -1.2377
 6452TIP3   OH240770   4.818   1.877   2.444 -0.2763 -0.1334  0.0319
 6452TIP3    H140771   4.804   1.876   2.349  0.3720 -2.3463 -0.0908
 6452TIP3    H240772   4.766   1.951   2.474 -0.1196  0.9300 -2.0880
 6453TIP3   OH240773   0.676   0.662  16.867  0.1591  0.1787 -0.7538
 6453TIP3    H140774   0.661   0.747  16.909 -1.8244 -0.4107 -0.1905
 6453TIP3    H240775   0.589   0.633  16.838  0.9490 -1.1817 -1.9038
 6454TIP3   OH240776   5.640   3.373  13.443  0.1191  0.0430  0.0009
 6454TIP3    H140777   5.695   3.396  13.518 -0.0714 -2.6943  1.0913
 6454TIP3    H240778   5.701   3.366  13.369  1.1807 -2.1090  1.0101
 6455TIP3   OH240779   0.195   5.129   1.883 -0.6613  0.5915  0.1618
 6455TIP3    H140780   0.174   5.169   1.799 -0.7047 -0.6876 -0.4654
 6455TIP3    H240781   0.258   5.060   1.862 -0.8559  0.0936  1.1473
 6456TIP3   OH240782   5.047   0.214  13.867  0.1644 -0.8428  0.1866
 6456TIP3    H140783   5.111   0.195  13.936 -1.1735 -2.0278  1.1544
 6456TIP3    H240784   5.088   0.181  13.787  0.7698 -1.5757  0.7878
 6457TIP3   OH240785   2.685   2.756  10.652  0.1462 -0.3696  0.2397
 6457TIP3    H140786   2.704   2.758  10.746 -0.6426  0.3919  0.3958
 6457TIP3    H240787   2.725   2.837  10.619 -1.9900  0.8329  0.4281
 6458TIP3   OH240788   3.222   0.414   6.340  0.2033 -0.3927 -0.4906
 6458TIP3    H140789   3.163   0.488   6.349  2.8768  2.0322 -1.3355
 6458TIP3    H240790   3.260   0.402   6.427  1.3342  0.7250 -0.8002
 6459TIP3   OH240791   5.037   3.180   4.463  0.0168 -0.2435 -0.3527
 6459TIP3    H140792   5.091   3.188   4.384 -0.5203 -0.6884 -0.7794
 6459TIP3    H240793   5.027   3.085   4.475 -0.5239 -0.1725 -0.1923
 6460TIP3   OH240794   0.446   6.566  10.751 -0.6225  0.3940 -0.0878
 6460TIP3    H140795   0.357   6.543  10.780 -0.4427  0.4158  0.4886
 6460TIP3    H240796   0.473   6.636  10.810  0.5040 -0.8979  0.9855
 6461TIP3   OH240797   5.563   4.227   2.163 -0.1447 -0.0461  0.3517
 6461TIP3    H140798   5.608   4.282   2.098  1.3501  1.0044  2.1671
 6461TIP3    H240799   5.555   4.283   2.240 -0.9815 -1.5580  1.4070
 6462TIP3   OH240800   0.075   4.991   3.798 -0.2666  0.2757 -0.2626
 6462TIP3    H140801   0.070   4.896   3.784 -1.9341  0.2494  0.2805
 6462TIP3    H240802   0.166   5.006   3.825 -0.7143 -1.6319  2.7434
 6463TIP3   OH240803   6.322   2.562  14.704 -0.2050 -0.6151  0.2622
 6463TIP3    H140804   6.233   2.580  14.675  0.2890  0.4390 -0.6586
 6463TIP3    H240805   6.377   2.616  14.649  0.9788 -0.7962  1.2175
 6464TIP3   OH240806   4.196   3.776  11.798  0.1918 -0.4224 -0.3867
 6464TIP3    H140807   4.114   3.759  11.844  0.4555 -0.5767  0.0311
 6464TIP3    H240808   4.198   3.713  11.726 -0.7714  0.5801 -1.3204
 6465TIP3   OH240809   2.039   1.803  15.519  0.0327  0.0853 -0.6810
 6465TIP3    H140810   2.035   1.775  15.427  0.6356  3.2700 -1.8187
 6465TIP3    H240811   2.132   1.819  15.535 -0.0830 -0.3359  0.4621
 6466TIP3   OH240812   0.377   3.487   3.830 -0.3845 -0.4632 -0.7567
 6466TIP3    H140813   0.284   3.469   3.843 -0.1986 -1.2300 -0.4719
 6466TIP3    H240814   0.422   3.420   3.881  0.3349  0.6012  0.0541
 6467TIP3   OH240815   5.380   6.747  13.329  0.1669  0.4660  0.5522
 6467TIP3    H140816   5.309   6.713  13.275  0.0299 -0.1812  1.1212
 6467TIP3    H240817   5.449   6.772  13.267 -0.4024  0.7351  0.0219
 6468TIP3   OH240818   3.514   0.156  14.249  0.2292  0.4704 -0.1177
 6468TIP3    H140819   3.524   0.115  14.335 -0.2601  1.5458  0.4629
 6468TIP3    H240820   3.425   0.191  14.249  0.0075 -0.0326 -1.2968
 6469TIP3   OH240821   4.193   5.378  13.613 -0.3722  0.2266 -0.0092
 6469TIP3    H140822   4.245   5.428  13.677 -0.4869 -0.2675  0.4758
 6469TIP3    H240823   4.190   5.290  13.649  0.2318 -0.2615 -1.0913
 6470TIP3   OH240824   2.332   5.195   0.228  0.0610 -0.2544  0.0141
 6470TIP3    H140825   2.304   5.192   0.136 -0.5261 -2.9806  0.2014
 6470TIP3    H240826   2.378   5.279   0.236 -0.4568  0.3732 -2.5761
 6471TIP3   OH240827   0.886   2.574   2.753  0.2387  0.2299 -0.6114
 6471TIP3    H140828   0.808   2.549   2.801  2.1859 -0.3008  2.5255
 6471TIP3    H240829   0.940   2.495   2.751  1.4564  1.0343 -1.1426
 6472TIP3   OH240830   6.407   5.290   4.359 -0.9496 -0.6549 -0.0580
 6472TIP3    H140831   6.456   5.358   4.314 -0.3847 -0.9910  0.0458
 6472TIP3    H240832   6.396   5.324   4.448 -0.3919 -0.8351  0.0826
 6473TIP3   OH240833   1.124   1.407  11.059  0.1000  0.3558 -0.1596
 6473TIP3    H140834   1.085   1.350  10.993 -2.0979  0.8181  0.6637
 6473TIP3    H240835   1.112   1.360  11.142  1.5405  0.4211  0.1159
 6474TIP3   OH240836   4.706   1.302   5.457 -0.0507  0.0708  0.2522
 6474TIP3    H140837   4.668   1.271   5.375  1.1844  2.5518 -1.3870
 6474TIP3    H240838   4.790   1.256   5.463  0.5135  0.9405 -0.6836
 6475TIP3   OH240839   0.800   5.158  17.059 -0.0848 -0.3154  0.1135
 6475TIP3    H140840   0.748   5.133  16.983  0.6465 -0.5291 -0.3170
 6475TIP3    H240841   0.780   5.091  17.125 -0.9601  0.0430  0.2381
 6476TIP3   OH240842   0.780   4.893  13.160  0.1616 -0.0338  0.1107
 6476TIP3    H140843   0.743   4.971  13.118 -1.5504 -1.0978 -0.4500
 6476TIP3    H240844   0.740   4.890  13.246 -0.2903 -0.6346 -0.1126
 6477TIP3   OH240845   1.566   6.330  13.358 -0.7123  0.8757 -0.5199
 6477TIP3    H140846   1.612   6.411  13.383 -1.3822  1.1915 -0.2938
 6477TIP3    H240847   1.477   6.358  13.340 -0.7164  0.3344 -1.4017
 6478TIP3   OH240848   2.696   6.051   0.065  0.3798 -0.0397 -0.7504
 6478TIP3    H140849   2.672   6.012  -0.019  0.3890 -0.6593 -0.4729
 6478TIP3    H240850   2.787   6.024   0.078  0.6764  0.8352 -0.9754
 6479TIP3   OH240851   3.051   1.570  10.806  1.0426 -0.1610  0.1419
 6479TIP3    H140852   3.032   1.522  10.726 -0.6869  1.0411 -0.2337
 6479TIP3    H240853   3.022   1.660  10.788  1.9382  0.4675  1.6335
 6480TIP3   OH240854   2.578   0.499  13.976  0.1687 -0.4210 -0.3166
 6480TIP3    H140855   2.644   0.540  14.031  0.3604 -1.8439  0.5724
 6480TIP3    H240856   2.605   0.520  13.887 -0.4082  2.3328  0.0758
 6481TIP3   OH240857   3.173   3.776   2.579 -0.4981 -0.3682  0.1858
 6481TIP3    H140858   3.256   3.728   2.583  0.6308  1.4188 -0.2787
 6481TIP3    H240859   3.184   3.848   2.641 -1.2194  0.5593 -0.7147
 6482TIP3   OH240860   5.276   5.009  16.756  0.3325 -0.1727 -0.2009
 6482TIP3    H140861   5.218   5.019  16.681 -0.2030 -0.3867  0.1809
 6482TIP3    H240862   5.281   5.097  16.794  0.0013 -0.2202 -0.0462
 6483TIP3   OH240863   1.899   3.285   0.331 -0.0700 -0.2825 -0.5110
 6483TIP3    H140864   1.841   3.231   0.278  1.3015 -3.0590  0.6563
 6483TIP3    H240865   1.846   3.312   0.406 -0.6728 -0.2604 -0.9396
 6484TIP3   OH240866   2.209   3.237  16.666  0.2023  0.2013  0.2181
 6484TIP3    H140867   2.196   3.275  16.753 -0.4397 -1.5777  0.9397
 6484TIP3    H240868   2.133   3.179  16.654  0.0443  0.7495 -1.7296
 6485TIP3   OH240869   2.204   5.210  15.007 -0.1269 -0.3632  0.3180
 6485TIP3    H140870   2.296   5.198  15.029  0.6269  2.8822 -0.4773
 6485TIP3    H240871   2.160   5.221  15.091 -0.0552 -2.9167  0.7625
 6486TIP3   OH240872   2.376   3.192   6.001  0.2896  0.3639 -0.1063
 6486TIP3    H140873   2.399   3.285   6.002  0.8356  0.2480 -1.1799
 6486TIP3    H240874   2.434   3.152   6.066  0.0758  0.7604  0.3349
 6487TIP3   OH240875   4.067   6.185   3.550  0.5446 -0.4228  0.0689
 6487TIP3    H140876   4.087   6.118   3.484 -1.3638 -0.3722 -0.6371
 6487TIP3    H240877   4.012   6.248   3.503 -0.9787 -0.4513  1.7264
 6488TIP3   OH240878   0.131   3.755  12.074 -0.3411 -0.2644  0.3703
 6488TIP3    H140879   0.215   3.744  12.030 -0.5363  0.6091 -0.2416
 6488TIP3    H240880   0.133   3.845  12.107  0.0826 -1.0849  2.7769
 6489TIP3   OH240881   2.247   5.742   1.720  0.5800  0.1051 -0.1087
 6489TIP3    H140882   2.240   5.648   1.700 -1.6781  0.0639  0.5408
 6489TIP3    H240883   2.325   5.749   1.775 -0.1858 -1.6996  1.3330
 6490TIP3   OH240884   2.216   6.348   5.166 -0.3244 -0.4236 -0.4607
 6490TIP3    H140885   2.277   6.363   5.239  0.8763  0.5969 -1.6183
 6490TIP3    H240886   2.273   6.334   5.090 -1.5486 -0.1629 -1.4520
 6491TIP3   OH240887   2.184   2.218  12.022  0.3374 -0.4399  0.0178
 6491TIP3    H140888   2.233   2.168  12.087  0.8250  2.3970  2.0137
 6491TIP3    H240889   2.093   2.191  12.034  0.3930  0.1233  2.0628
 6492TIP3   OH240890   5.413   3.023   0.932  0.2964 -0.3701 -0.3640
 6492TIP3    H140891   5.322   3.030   0.903  0.5795  1.2822 -0.9815
 6492TIP3    H240892   5.427   3.100   0.987  1.4374 -0.3748 -0.6198
 6493TIP3   OH240893   4.199   4.141   1.208  0.0599 -0.2695 -0.1176
 6493TIP3    H140894   4.221   4.062   1.255  1.1295  0.1858  0.1631
 6493TIP3    H240895   4.104   4.150   1.218  0.2169 -0.3800  1.6206
 6494TIP3   OH240896   5.633   4.111  17.177 -0.0384  0.2135  0.5058
 6494TIP3    H140897   5.610   4.026  17.139  0.3571  0.4154 -0.2066
 6494TIP3    H240898   5.563   4.170  17.148  0.7154  0.5656 -0.6848
 6495TIP3   OH240899   3.110   4.127   0.583  0.1893  0.0897  0.0090
 6495TIP3    H140900   3.181   4.128   0.518  0.4682  0.8619  0.3083
 6495TIP3    H240901   3.081   4.218   0.586 -1.0299 -0.2707 -0.3314
 6496TIP3   OH240902   6.107   4.054  13.401 -0.8713  0.1677  0.2777
 6496TIP3    H140903   6.117   4.140  13.360 -0.3349 -0.0517 -0.0574
 6496TIP3    H240904   6.178   4.050  13.465  0.0235 -0.6123 -0.7369
 6497TIP3   OH240905   2.359   2.285  11.815  0.1739  0.2170 -0.1611
 6497TIP3    H140906   2.374   2.206  11.764 -3.2083  0.2299 -1.4211
 6497TIP3    H240907   2.303   2.256  11.888  0.7206  1.1133  0.6417
 6498TIP3   OH240908   4.338   3.073  15.972  0.6850  0.4414 -0.1449
 6498TIP3    H140909   4.419   3.123  15.986  0.8425  0.5772 -1.4074
 6498TIP3    H240910   4.344   3.044  15.881 -1.7686  2.4444 -1.0717
 6499TIP3   OH240911   4.672   3.193  13.614 -0.2809 -0.1488 -0.8193
 6499TIP3    H140912   4.637   3.246  13.542 -1.1660 -1.2503 -1.2181
 6499TIP3    H240913   4.595   3.153  13.654  0.0759  1.2510  1.4359
 6500TIP3   OH240914   4.270   2.756  14.651  0.3177  0.1741 -0.2366
 6500TIP3    H140915   4.335   2.815  14.614  0.9829  0.1215  0.8306
 6500TIP3    H240916   4.210   2.812  14.699 -0.7647  0.2831 -1.6625
 6501TIP3   OH240917   3.982   5.144   0.446 -0.3051  0.2431  0.2877
 6501TIP3    H140918   3.903   5.114   0.491  0.5064  1.2785  2.5635
 6501TIP3    H240919   4.021   5.209   0.505  2.1984 -0.1324 -0.7996
 6502TIP3   OH240920   4.755   4.936  12.819 -0.8831 -0.4552 -0.2907
 6502TIP3    H140921   4.706   4.963  12.897 -0.9670 -1.6963  0.1034
 6502TIP3    H240922   4.697   4.875  12.773 -0.3970 -0.5955 -0.7314
 6503TIP3   OH240923   0.990   1.416   4.340 -0.4187  0.0067  0.1120
 6503TIP3    H140924   1.000   1.326   4.372 -1.5044  0.5251  2.0871
 6503TIP3    H240925   0.956   1.464   4.416 -2.3130  1.5426 -1.6063
 6504TIP3   OH240926   6.633   5.054  13.651  0.0182  0.1803 -0.0771
 6504TIP3    H140927   6.550   5.007  13.657  0.9609 -1.4227  1.0987
 6504TIP3    H240928   6.682   5.010  13.582  1.3422 -1.3783  1.7671
 6505TIP3   OH240929   6.386   2.366   0.836 -0.3453 -0.7023 -0.1400
 6505TIP3    H140930   6.467   2.395   0.794 -2.4044  1.1337 -3.2100
 6505TIP3    H240931   6.372   2.277   0.802 -0.3606 -0.4507 -0.8036
 6506TIP3   OH240932   0.316   4.610  13.432  0.0795 -0.2964 -0.8535
 6506TIP3    H140933   0.305   4.517  13.452  0.5918  0.0927  1.5620
 6506TIP3    H240934   0.403   4.616  13.393  0.1986 -0.7904 -0.6675
 6507TIP3   OH240935   6.700   3.326  14.520 -0.1701 -0.1162  0.1324
 6507TIP3    H140936   6.792   3.303  14.512  0.1848  0.6191  1.7396
 6507TIP3    H240937   6.689   3.401  14.460  0.5110  0.3910  0.6313
 6508TIP3   OH240938   5.850   0.532   3.558  0.5965  0.2830  0.0532
 6508TIP3    H140939   5.832   0.626   3.559  0.5402  0.2721  0.9857
 6508TIP3    H240940   5.945   0.525   3.550  0.5426  0.3996 -0.7898
 6509TIP3   OH240941   1.633   4.136   0.439 -0.1710 -0.0197  0.1259
 6509TIP3    H140942   1.692   4.160   0.509  0.0840  1.2275 -0.4738
 6509TIP3    H240943   1.631   4.040   0.439  3.2230 -0.2085 -0.9489
 6510TIP3   OH240944   3.418   3.038  13.919  0.0948 -0.3637 -0.0433
 6510TIP3    H140945   3.507   3.074  13.927 -0.3396  1.2687 -1.9433
 6510TIP3    H240946   3.369   3.104  13.871 -1.9014 -1.7078  0.0256
 6511TIP3   OH240947   2.803   1.287  14.120 -0.2085 -0.1791  0.3158
 6511TIP3    H140948   2.716   1.269  14.156 -0.1381 -0.2041  0.4752
 6511TIP3    H240949   2.789   1.360  14.060  0.0841  1.5495  2.2531
 6512TIP3   OH240950   6.093   6.413   2.496  0.3948  0.0603 -0.1299
 6512TIP3    H140951   6.120   6.321   2.504  0.8107  0.0230 -1.6781
 6512TIP3    H240952   6.044   6.430   2.576 -2.3547 -2.4264 -1.0827
 6513TIP3   OH240953   4.825   3.608  13.371 -0.3885  0.5218  0.2824
 6513TIP3    H140954   4.848   3.675  13.306  2.1063  1.2054  1.7318
 6513TIP3    H240955   4.841   3.525  13.327 -0.2003  0.9591 -0.4868
 6514TIP3   OH240956   6.490   2.333   0.532 -0.4332 -0.3319 -0.6725
 6514TIP3    H140957   6.523   2.401   0.591  0.8623 -0.8465 -0.7765
 6514TIP3    H240958   6.559   2.322   0.467 -2.0574  0.5836 -2.6350
 6515TIP3   OH240959   5.891   0.360  15.449 -0.1004  0.1971 -0.6473
 6515TIP3    H140960   5.824   0.307  15.492 -0.7998  0.4518 -1.3870
 6515TIP3    H240961   5.965   0.359  15.509 -0.2679 -1.2264 -0.4341
 6516TIP3   OH240962   0.218   1.838   0.588 -0.2489  0.6288 -0.1598
 6516TIP3    H140963   0.314   1.842   0.592 -0.1946 -0.1766 -0.4983
 6516TIP3    H240964   0.198   1.834   0.494 -0.4754 -1.7642 -0.0683
 6517TIP3   OH240965   5.173   6.270   3.951 -0.2978  0.6019  0.1257
 6517TIP3    H140966   5.167   6.365   3.957 -0.2836  0.6405 -0.4164
 6517TIP3    H240967   5.083   6.241   3.937 -0.2268  0.5832 -0.3013
 6518TIP3   OH240968   4.849   5.687  13.468  0.1893 -0.0922  0.4406
 6518TIP3    H140969   4.893   5.654  13.390 -1.0421 -1.3985  0.2458
 6518TIP3    H240970   4.830   5.609  13.520 -3.6147  0.0845 -0.4264
 6519TIP3   OH240971   3.542   0.436   4.438 -0.3280  0.7279  0.2144
 6519TIP3    H140972   3.619   0.486   4.409  1.6012 -2.9163 -1.5602
 6519TIP3    H240973   3.504   0.402   4.358 -2.9077  1.0805  1.2096
 6520TIP3   OH240974   1.428   5.832   4.266  0.2560 -0.6097 -0.1320
 6520TIP3    H140975   1.500   5.817   4.328  1.3766 -1.2248 -1.5263
 6520TIP3    H240976   1.472   5.855   4.184 -1.1553 -0.9446 -1.0081
 6521TIP3   OH240977   4.448   2.706   5.079 -0.1689  0.6035 -0.6142
 6521TIP3    H140978   4.429   2.680   4.989  0.5002 -1.3911 -0.2401
 6521TIP3    H240979   4.543   2.718   5.081 -0.2011  0.7999 -0.2063
 6522TIP3   OH240980   0.959   3.935  12.160  0.1510 -0.0663 -0.0726
 6522TIP3    H140981   0.875   3.937  12.206 -0.5798  1.1934 -1.3722
 6522TIP3    H240982   0.972   3.843  12.137 -1.9439 -0.0586 -1.6617
 6523TIP3   OH240983   5.691   0.030  11.805  0.7139 -0.0350 -0.2352
 6523TIP3    H140984   5.743  -0.050  11.799 -0.2475 -0.5875 -2.1451
 6523TIP3    H240985   5.601   0.000  11.793  0.2259  1.2221  0.1662
 6524TIP3   OH240986   5.189   3.297  14.102 -0.0973 -0.8107  0.0886
 6524TIP3    H140987   5.251   3.225  14.089 -0.1009 -0.6455 -0.9982
 6524TIP3    H240988   5.232   3.373  14.061 -0.7315 -0.5444 -0.0935
 6525TIP3   OH240989   5.592   0.043  13.890 -0.0404 -0.4403  0.3328
 6525TIP3    H140990   5.683   0.048  13.861 -0.0880  0.2551  0.2752
 6525TIP3    H240991   5.593   0.084  13.977 -0.1152 -1.3793  0.7821
 6526TIP3   OH240992   1.672   0.172   1.228 -0.4403 -0.2160  0.1399
 6526TIP3    H140993   1.584   0.207   1.220 -0.9295 -1.5999 -1.0677
 6526TIP3    H240994   1.660   0.082   1.257  0.6122 -0.2073  0.6528
 6527TIP3   OH240995   4.983   0.377   5.799 -0.0986 -0.1777 -0.4992
 6527TIP3    H140996   4.978   0.303   5.738  2.9223 -0.0562 -1.0688
 6527TIP3    H240997   5.045   0.348   5.866  2.2626  2.1989 -1.4727
 6528TIP3   OH240998   0.078   2.375  14.049  0.7287  0.0645  0.4461
 6528TIP3    H140999   0.045   2.437  14.113  1.6357  1.5769 -0.4799
 6528TIP3    H241000   0.002   2.322  14.026 -0.1689  1.0393  1.0356
 6529TIP3   OH241001   3.681   3.250  15.772 -0.4791 -0.4318  0.3345
 6529TIP3    H141002   3.710   3.307  15.843 -0.0842  2.3986 -1.9031
 6529TIP3    H241003   3.660   3.167  15.815 -0.9568  1.2900  3.8191
 6530TIP3   OH241004   2.581   4.895   2.404  0.3995  0.0910  0.4766
 6530TIP3    H141005   2.550   4.883   2.494  1.5935  0.7918  1.0027
 6530TIP3    H241006   2.631   4.816   2.385  1.9032  0.8224  1.2124
 6531TIP3   OH241007   3.863   4.624   0.677 -1.1551 -0.0229  0.1671
 6531TIP3    H141008   3.958   4.628   0.687 -1.0324  0.0745 -0.8542
 6531TIP3    H241009   3.831   4.581   0.756 -0.4679  1.8069  1.5106
 6532TIP3   OH241010   4.954   4.538   0.754  0.1062  0.0941  0.2254
 6532TIP3    H141011   4.936   4.445   0.736  2.6235 -1.1566  3.1262
 6532TIP3    H241012   4.869   4.575   0.774 -0.7858 -2.2005  1.1004
 6533TIP3   OH241013   4.522   3.488   4.247  0.2905 -0.3590  0.9022
 6533TIP3    H141014   4.434   3.480   4.285 -0.9075  1.6422 -1.1676
 6533TIP3    H241015   4.511   3.465   4.155  1.5091  1.6823  0.1832
 6534TIP3   OH241016   1.824   3.390  12.487 -0.0421 -0.0573  0.0353
 6534TIP3    H141017   1.825   3.337  12.567 -2.9193 -0.9253 -0.3688
 6534TIP3    H241018   1.866   3.335  12.421  1.6661  0.3601  0.7192
 6535TIP3   OH241019   6.390   5.461   0.388 -0.6866 -0.3788 -0.1887
 6535TIP3    H141020   6.473   5.501   0.414 -0.9131 -0.5138  0.7787
 6535TIP3    H241021   6.349   5.436   0.471 -0.9643 -1.7976 -0.7389
 6536TIP3   OH241022   0.253   4.442   0.807  0.0554  0.0023  0.5092
 6536TIP3    H141023   0.298   4.387   0.743 -1.4915  1.9935 -2.5385
 6536TIP3    H241024   0.323   4.490   0.851  1.1246 -0.2070 -0.9007
 6537TIP3   OH241025   0.591   0.092  15.704  0.4374  0.1617  0.0268
 6537TIP3    H141026   0.610   0.100  15.611  0.6630  1.5900  0.1699
 6537TIP3    H241027   0.543   0.172  15.725 -0.8785 -0.7850  0.8535
 6538TIP3   OH241028   4.458   1.384   4.046 -0.1579  0.0666 -0.2153
 6538TIP3    H141029   4.429   1.473   4.064  0.3696  0.6609 -2.0818
 6538TIP3    H241030   4.387   1.346   3.994 -0.7156 -0.8903  1.1734
 6539TIP3   OH241031   2.226   5.731  15.670  0.1281 -0.4554  0.2154
 6539TIP3    H141032   2.135   5.727  15.641 -0.0155 -0.0316  0.6044
 6539TIP3    H241033   2.264   5.803  15.621 -0.2159  0.5173  1.3251
 6540TIP3   OH241034   1.715   4.167  11.855  0.1291 -0.2267  0.0411
 6540TIP3    H141035   1.712   4.101  11.786  0.9554 -0.4808  0.2350
 6540TIP3    H241036   1.774   4.130  11.921 -0.7908 -0.0802  0.9810
 6541TIP3   OH241037   1.277   3.465  15.449  0.4197 -0.1807  0.2107
 6541TIP3    H141038   1.353   3.519  15.472 -0.4266  1.4188 -0.5789
 6541TIP3    H241039   1.201   3.522  15.467 -0.4653 -0.6132 -1.8650
 6542TIP3   OH241040   1.291   5.804   3.251 -0.3819 -0.3285  0.2920
 6542TIP3    H141041   1.287   5.755   3.333 -1.7219 -1.2458 -0.2877
 6542TIP3    H241042   1.208   5.783   3.207  1.1295 -1.4504 -2.1893
 6543TIP3   OH241043   5.044   4.924   1.559  0.0540 -0.2260 -0.4613
 6543TIP3    H141044   5.119   4.865   1.560  0.4332  0.0828  3.2670
 6543TIP3    H241045   4.988   4.894   1.632  1.0293  4.6402  2.7906
 6544TIP3   OH241046   1.660   4.239   2.976 -0.4432  0.3246 -0.4741
 6544TIP3    H141047   1.669   4.217   2.883  0.7249  1.5964 -0.7008
 6544TIP3    H241048   1.577   4.285   2.982 -1.9491 -2.2317 -0.3348
 6545TIP3   OH241049   1.239   0.245   2.803  0.2356 -0.7792 -0.2961
 6545TIP3    H141050   1.247   0.339   2.820 -0.1479 -0.5443 -1.3556
 6545TIP3    H241051   1.146   0.233   2.782  0.2713 -1.4106 -0.1140
 6546TIP3   OH241052   5.541   4.870   1.138 -0.2488 -0.5281  0.2972
 6546TIP3    H141053   5.525   4.793   1.084  1.1849  0.7247 -2.0984
 6546TIP3    H241054   5.546   4.943   1.076  3.0648  0.8057  1.8338
 6547TIP3   OH241055   1.060   5.832  12.671  0.0397  0.0680 -0.0380
 6547TIP3    H141056   1.121   5.797  12.736 -0.0648 -0.0260  0.0098
 6547TIP3    H241057   1.084   5.924  12.661  1.4253 -0.3871 -1.3849
 6548TIP3   OH241058   1.524   5.057  11.933 -0.0501 -0.0788 -0.2534
 6548TIP3    H141059   1.466   5.053  11.857  0.9032  1.9806 -1.1684
 6548TIP3    H241060   1.608   5.023  11.902  0.0429 -0.2943  0.2140
 6549TIP3   OH241061   1.904   3.038  11.921  0.0438  0.3986 -0.4125
 6549TIP3    H141062   1.816   3.008  11.900 -0.1438 -0.1470  1.0494
 6549TIP3    H241063   1.890   3.121  11.967  0.2120 -0.2422  0.8192
 6550TIP3   OH241064   3.608   4.440   5.143  0.8716  0.5077  0.0604
 6550TIP3    H141065   3.572   4.441   5.055  1.6296 -0.4335 -0.2860
 6550TIP3    H241066   3.534   4.461   5.200 -0.2577 -1.3558 -0.6161
 6551TIP3   OH241067   3.169   2.952   3.472  0.5403  0.1560  0.4542
 6551TIP3    H141068   3.169   2.857   3.464  0.3879  0.0510  1.6162
 6551TIP3    H241069   3.103   2.971   3.538  1.5837  0.9721  1.2980
 6552TIP3   OH241070   3.899   1.105   5.047 -0.3134  0.5004  0.5381
 6552TIP3    H141071   3.886   1.023   5.094  1.5263  0.1099  0.4665
 6552TIP3    H241072   3.899   1.079   4.954  0.1429  0.5836  0.5109
 6553TIP3   OH241073   3.211   3.493   0.251 -0.0507  0.1796  0.3701
 6553TIP3    H141074   3.288   3.436   0.257 -0.1904  0.0697  1.1528
 6553TIP3    H241075   3.151   3.459   0.317 -0.8012  0.2340 -0.2697
 6554TIP3   OH241076   3.164   2.033   6.442  0.0999 -0.4046  0.0391
 6554TIP3    H141077   3.236   1.999   6.389  0.3723 -3.2703  1.9873
 6554TIP3    H241078   3.206   2.069   6.520 -0.4702  0.5106 -0.0557
 6555TIP3   OH241079   1.028   2.122  14.224 -0.4622 -0.7104  0.6058
 6555TIP3    H141080   1.108   2.171  14.209 -0.0972 -1.4609  0.0096
 6555TIP3    H241081   0.959   2.188  14.232  0.2195 -0.0603  1.1976
 6556TIP3   OH241082   6.047   1.603   2.615  0.0063 -0.4367  0.5621
 6556TIP3    H141083   6.115   1.537   2.605 -0.8502 -1.4204  0.9817
 6556TIP3    H241084   6.002   1.579   2.696 -1.3945 -0.3546 -0.1565
 6557TIP3   OH241085   0.314   4.631  11.287  0.3621 -0.4173 -0.2771
 6557TIP3    H141086   0.405   4.611  11.264  0.6121  0.7801 -0.3831
 6557TIP3    H241087   0.272   4.545  11.293  1.4423 -0.9812 -0.4387
 6558TIP3   OH241088   2.929   3.481  16.893  0.6404 -0.3995  0.0576
 6558TIP3    H141089   2.905   3.483  16.801  2.0226  1.2965 -0.3263
 6558TIP3    H241090   3.024   3.492  16.894  0.4750  1.5817  1.6985
 6559TIP3   OH241091   2.443   3.432  15.420  0.6288 -0.6978 -0.0098
 6559TIP3    H141092   2.447   3.509  15.362 -0.4770  1.0329  2.0640
 6559TIP3    H241093   2.524   3.436  15.470  0.6741 -1.0252 -0.0559
 6560TIP3   OH241094   3.845   5.527  14.728 -0.1690  0.5431 -0.6686
 6560TIP3    H141095   3.926   5.521  14.678  1.0052 -0.8922  1.2820
 6560TIP3    H241096   3.776   5.534  14.661  1.5187  2.1865 -2.3777
 6561TIP3   OH241097   4.602   5.881   5.191  0.6029  0.8400  0.5240
 6561TIP3    H141098   4.687   5.923   5.181  1.7337 -1.5081 -0.4430
 6561TIP3    H241099   4.557   5.896   5.108  1.0517  0.1036  0.1364
 6562TIP3   OH241100   1.626   1.735   2.729  0.4693 -0.0443 -0.5896
 6562TIP3    H141101   1.540   1.730   2.687  0.3897 -0.7643 -0.3490
 6562TIP3    H241102   1.612   1.789   2.806  0.8282  2.1692 -1.9820
 6563TIP3   OH241103   2.091   3.410  13.362 -0.4116  0.4558 -0.2103
 6563TIP3    H141104   2.089   3.331  13.308  0.7245  0.1038  0.2306
 6563TIP3    H241105   2.029   3.394  13.432  1.0206 -0.7891  0.8422
 6564TIP3   OH241106   0.644   5.693  17.152 -0.3590  0.3120  0.1456
 6564TIP3    H141107   0.639   5.728  17.241 -0.4253  0.1086  0.2205
 6564TIP3    H241108   0.715   5.742  17.111 -0.4635  0.5532  0.2444
 6565TIP3   OH241109   0.448   2.239  11.621 -0.1429 -0.1418 -0.3323
 6565TIP3    H141110   0.464   2.165  11.563  0.9814  0.7466 -1.2046
 6565TIP3    H241111   0.410   2.307  11.565  2.5682  1.3667 -0.5407
 6566TIP3   OH241112   3.073   5.754  12.832 -0.2412  0.5138  0.5806
 6566TIP3    H141113   3.028   5.781  12.752  0.4734  2.2597  0.7207
 6566TIP3    H241114   3.154   5.714  12.801  0.1771  1.4615  0.4130
 6567TIP3   OH241115   3.265   5.431  14.385  0.6255  0.3533  0.4025
 6567TIP3    H141116   3.257   5.416  14.479 -0.5384  0.4496  0.3277
 6567TIP3    H241117   3.176   5.419  14.351  0.7125  1.9375 -0.4458
 6568TIP3   OH241118   3.368   4.468  15.355 -0.4314  0.0196  0.2711
 6568TIP3    H141119   3.402   4.458  15.444 -0.7279  0.3746  0.4259
 6568TIP3    H241120   3.301   4.535  15.363 -0.3565  0.1544 -0.2523
 6569TIP3   OH241121   4.713   1.984   6.213 -0.1030 -0.1662 -0.3366
 6569TIP3    H141122   4.795   2.015   6.251  0.2616  0.5533 -1.6434
 6569TIP3    H241123   4.739   1.921   6.147 -0.4299  1.3838 -2.0428
 6570TIP3   OH241124   6.155   4.700   0.610 -1.3153 -0.4794  1.0016
 6570TIP3    H141125   6.209   4.778   0.623  0.4343 -1.2929 -0.9101
 6570TIP3    H241126   6.072   4.734   0.577 -0.3066  0.5580 -0.5725
 6571TIP3   OH241127   5.631   0.295  16.510  0.3830  0.0462  0.0257
 6571TIP3    H141128   5.598   0.341  16.433  0.1317  0.9778  0.6777
 6571TIP3    H241129   5.565   0.311  16.578  0.4089 -1.0774  0.3454
 6572TIP3   OH241130   0.090   5.557  16.266  0.1039  0.6174 -0.3606
 6572TIP3    H141131   0.102   5.462  16.267  0.0108  0.6046  0.5472
 6572TIP3    H241132   0.043   5.575  16.185  1.3994  0.0587 -1.2824
 6573TIP3   OH241133   2.474   5.577  17.117  0.4715 -0.0390 -0.4902
 6573TIP3    H141134   2.560   5.570  17.157 -0.5988  0.2016  2.0051
 6573TIP3    H241135   2.461   5.671  17.103  0.4134 -0.0363 -0.4166
 6574TIP3   OH241136   2.861   0.751   6.073 -0.0768  0.5267 -0.1800
 6574TIP3    H141137   2.944   0.783   6.110  0.0106  0.2846 -0.1647
 6574TIP3    H241138   2.843   0.811   6.000  0.7440 -0.1418 -0.9600
 6575TIP3   OH241139   0.397   4.811  16.882 -0.6786 -0.5670  0.0153
 6575TIP3    H141140   0.488   4.830  16.905 -0.5576  1.3121 -1.7931
 6575TIP3    H241141   0.346   4.864  16.943 -0.4490  1.1881 -1.2685
 6576TIP3   OH241142   3.291   3.213   4.455  0.3021 -0.0024 -0.1611
 6576TIP3    H141143   3.277   3.212   4.550 -0.3931 -0.3074 -0.2647
 6576TIP3    H241144   3.342   3.134   4.438  1.8442  0.8780  0.1544
 6577TIP3   OH241145   4.804   4.750  13.281 -0.0677 -0.1512 -0.4663
 6577TIP3    H141146   4.801   4.846  13.281 -0.3189 -0.1485  0.1275
 6577TIP3    H241147   4.773   4.725  13.194 -0.9171  0.2965 -0.3120
 6578TIP3   OH241148   2.140   2.655   5.530  0.2650  0.5936  0.3454
 6578TIP3    H141149   2.092   2.658   5.613 -0.5568  2.3819 -0.1285
 6578TIP3    H241150   2.193   2.735   5.531 -0.0294  0.8220 -0.9855
 6579TIP3   OH241151   2.644   3.152  10.680 -0.3148  0.1612 -0.6627
 6579TIP3    H141152   2.568   3.107  10.716  0.5956 -1.5290 -0.7743
 6579TIP3    H241153   2.627   3.244  10.699 -1.0200 -0.4059  1.9318
 6580TIP3   OH241154   3.118   4.430  14.933 -0.5658 -0.2687  0.0661
 6580TIP3    H141155   3.036   4.382  14.926  0.1771 -1.5265 -0.1849
 6580TIP3    H241156   3.156   4.402  15.016 -0.7307  0.8904  0.5595
 6581TIP3   OH241157   5.929   1.945  12.944 -0.1630 -0.6506  0.1895
 6581TIP3    H141158   6.014   1.961  12.904 -0.4925 -0.7538 -0.5740
 6581TIP3    H241159   5.943   1.868  13.000  0.7337  0.5568  1.7017
 6582TIP3   OH241160   1.159   3.324  16.203  0.5982 -0.3694  0.7631
 6582TIP3    H141161   1.094   3.328  16.273  1.4897 -3.2389  1.8949
 6582TIP3    H241162   1.243   3.334  16.247  1.0746  0.1306 -0.2300
 6583TIP3   OH241163   3.514   0.904  12.148 -0.1725  0.1083 -0.1023
 6583TIP3    H141164   3.462   0.916  12.069 -0.0864 -1.0844 -0.3586
 6583TIP3    H241165   3.595   0.952  12.131 -1.2434  2.2254  0.4152
 6584TIP3   OH241166   5.768   5.093   3.252  0.1332  0.6260 -0.2163
 6584TIP3    H141167   5.782   5.071   3.344 -0.3234  1.3895  0.0380
 6584TIP3    H241168   5.745   5.186   3.252 -1.1905  0.3241 -0.9760
 6585TIP3   OH241169   6.074   0.459   0.759  0.2209 -0.7752 -0.0319
 6585TIP3    H141170   6.049   0.367   0.757  1.9001 -1.3008 -3.3876
 6585TIP3    H241171   6.009   0.503   0.704  0.6542 -0.3237 -0.1905
 6586TIP3   OH241172   3.270   4.926   4.626 -0.0548  0.0627 -0.4572
 6586TIP3    H141173   3.252   4.925   4.532  1.6837 -1.3062 -0.8175
 6586TIP3    H241174   3.186   4.949   4.666 -1.0706 -0.2604 -2.2952
 6587TIP3   OH241175   4.120   4.285   5.510  0.1310 -0.4273  0.5098
 6587TIP3    H141176   4.081   4.297   5.423 -0.3568 -3.4063  0.2062
 6587TIP3    H241177   4.105   4.368   5.555 -2.9661 -0.0155 -1.0037
 6588TIP3   OH241178   3.972   4.744  16.407 -0.2885 -0.2891 -0.0382
 6588TIP3    H141179   3.995   4.772  16.318 -1.2686 -1.0832 -0.5596
 6588TIP3    H241180   3.963   4.826  16.456 -4.0304  0.5552 -1.7504
 6589TIP3   OH241181   0.574   3.266  17.015 -0.3970 -0.8811  0.3476
 6589TIP3    H141182   0.619   3.273  17.099  1.3972  0.5859 -0.6626
 6589TIP3    H241183   0.482   3.252  17.038  0.2542 -2.1071  2.5062
 6590TIP3   OH241184   5.105   3.019  14.317  0.2752 -0.2728  0.1166
 6590TIP3    H141185   5.073   2.945  14.266  0.5315 -1.2987  1.4077
 6590TIP3    H241186   5.027   3.060  14.353  0.1099  0.3147 -0.8600
 6591TIP3   OH241187   1.778   2.775   0.985 -0.0346 -0.0882 -0.4357
 6591TIP3    H141188   1.827   2.708   1.033  1.3710  0.0279 -1.6353
 6591TIP3    H241189   1.692   2.735   0.970  0.2420 -0.9800  0.2392
 6592TIP3   OH241190   6.555   0.082  15.376  0.3673 -0.9552  0.0644
 6592TIP3    H141191   6.506   0.001  15.391 -0.6476 -0.4073 -0.1576
 6592TIP3    H241192   6.570   0.083  15.281  0.5545 -0.9850  0.0940
 6593TIP3   OH241193   5.617   4.543   6.513  0.2941  0.0162  0.0240
 6593TIP3    H141194   5.609   4.521   6.606 -0.2693 -1.1892 -0.2952
 6593TIP3    H241195   5.548   4.607   6.498 -0.4870 -0.7891  0.1419
 6594TIP3   OH241196   6.221   5.870   0.569 -0.2545  0.2481  0.3833
 6594TIP3    H141197   6.175   5.792   0.601 -1.3376  0.8276  0.2564
 6594TIP3    H241198   6.164   5.907   0.502  0.7385  0.5812 -0.3069
 6595TIP3   OH241199   5.058   4.201   0.773 -0.1608  0.0046 -0.4996
 6595TIP3    H141200   5.023   4.152   0.699 -0.7240 -0.4661  0.0713
 6595TIP3    H241201   5.065   4.137   0.843  1.7943  0.0940 -0.5585
 6596TIP3   OH241202   1.780   0.239   2.735  0.9529 -0.0164  0.2842
 6596TIP3    H141203   1.820   0.308   2.683 -0.2260  0.7607  0.3647
 6596TIP3    H241204   1.703   0.213   2.683  1.3091 -1.1869  0.3122
 6597TIP3   OH241205   3.292   2.509   1.610  0.1981 -0.4465  1.0107
 6597TIP3    H141206   3.291   2.440   1.544 -1.3440  2.0737 -1.8714
 6597TIP3    H241207   3.385   2.527   1.626  0.7227  0.1986 -2.1616
 6598TIP3   OH241208   4.701   3.271   5.891 -0.8621 -0.2376  0.5968
 6598TIP3    H141209   4.609   3.297   5.899 -0.6962  0.8648 -0.7596
 6598TIP3    H241210   4.744   3.348   5.853  0.5071 -0.9618  0.6392
 6599TIP3   OH241211   2.413   4.307  14.580 -0.0722 -0.0149  0.1072
 6599TIP3    H141212   2.475   4.335  14.512 -0.4690  0.6071 -0.0063
 6599TIP3    H241213   2.467   4.259  14.642  0.3641 -0.2703 -0.4577
 6600TIP3   OH241214   5.652   3.616  16.832 -0.5835 -0.2765 -0.1839
 6600TIP3    H141215   5.580   3.557  16.807 -0.8619  0.0789 -0.2317
 6600TIP3    H241216   5.729   3.579  16.790 -0.8398 -0.3532 -0.5989
 6601TIP3   OH241217   2.843   4.805  10.419 -0.1442 -0.5123  0.1686
 6601TIP3    H141218   2.799   4.881  10.456 -2.7335 -1.1018 -1.4642
 6601TIP3    H241219   2.835   4.738  10.488 -1.2454 -0.4050  0.1619
 6602TIP3   OH241220   5.493   0.075   1.421 -0.2407  0.2771  0.2655
 6602TIP3    H141221   5.463   0.165   1.436  0.5856  0.8013 -0.9645
 6602TIP3    H241222   5.520   0.075   1.329  1.9074 -0.5870  0.8373
 6603TIP3   OH241223   6.057   5.172   2.751  0.0850  0.0183 -0.2740
 6603TIP3    H141224   6.107   5.208   2.823  0.7573  0.6601 -1.0515
 6603TIP3    H241225   6.122   5.136   2.691 -0.4803 -0.8500 -0.3919
 6604TIP3   OH241226   3.150   1.918   4.981  0.3706  0.4970  0.4821
 6604TIP3    H141227   3.126   1.986   5.043 -1.2871  0.8783 -0.5285
 6604TIP3    H241228   3.160   1.964   4.898  0.5625 -0.3034  0.0566
 6605TIP3   OH241229   0.207   4.047  16.271  0.2333  0.3082 -0.0945
 6605TIP3    H141230   0.209   4.138  16.301  0.2467  0.2348  0.1304
 6605TIP3    H241231   0.177   4.052  16.180  1.3059  0.6293 -0.4442
 6606TIP3   OH241232   3.585   3.511  15.272 -0.0518  0.5013  0.0108
 6606TIP3    H141233   3.644   3.538  15.202 -0.8616  1.2206 -0.4119
 6606TIP3    H241234   3.510   3.570  15.265  0.0993  0.9672  1.8607
 6607TIP3   OH241235   3.392   3.044  14.225  0.4021  0.2295 -0.1188
 6607TIP3    H141236   3.421   3.054  14.134 -1.4897 -0.9608 -0.9241
 6607TIP3    H241237   3.297   3.039  14.219  0.3245 -2.2102  1.6571
 6608TIP3   OH241238   1.120   2.122   4.013 -0.1230  0.1901  0.5764
 6608TIP3    H141239   1.133   2.078   4.097 -3.1489  0.2732  1.2197
 6608TIP3    H241240   1.110   2.051   3.950  0.2082  0.0739  0.6563
 6609TIP3   OH241241   0.849   6.480  15.752  1.0882  0.4398 -0.2595
 6609TIP3    H141242   0.794   6.412  15.789 -0.3939  2.6017  1.8353
 6609TIP3    H241243   0.903   6.435  15.687 -1.4248 -2.2447 -0.6928
 6610TIP3   OH241244   1.027   0.452   5.451  0.0484  0.1176  0.5648
 6610TIP3    H141245   1.086   0.486   5.384 -0.6954  1.2550  0.4575
 6610TIP3    H241246   1.069   0.475   5.534 -0.6959  1.8505  0.5033
 6611TIP3   OH241247   3.472   3.863  15.781  0.1835 -1.4726 -0.1131
 6611TIP3    H141248   3.522   3.908  15.713  0.5967 -0.9440  0.5326
 6611TIP3    H241249   3.393   3.916  15.792  0.8397 -0.6599  0.9078
 6612TIP3   OH241250   6.034   5.000   3.072  0.2796  0.1230 -0.2661
 6612TIP3    H141251   6.091   4.966   3.002 -1.8669  0.7427 -2.4800
 6612TIP3    H241252   5.997   4.921   3.112 -0.6103 -0.2955 -1.7984
 6613TIP3   OH241253   2.706   3.350   4.488 -0.2046 -0.2591  0.2848
 6613TIP3    H141254   2.775   3.316   4.546 -0.7587 -0.5522  0.7799
 6613TIP3    H241255   2.747   3.425   4.445  0.6718 -0.8712  0.0114
 6614TIP3   OH241256   0.985   4.494  11.852 -0.2528 -0.3319 -0.2968
 6614TIP3    H141257   1.061   4.507  11.796 -0.0523  2.0047  0.3999
 6614TIP3    H241258   1.019   4.447  11.928  0.3278  0.0247 -0.3306
 6615TIP3   OH241259   3.247   6.163   4.667 -0.1381 -0.3602 -0.2186
 6615TIP3    H141260   3.162   6.194   4.637 -1.0307 -2.9157 -0.5616
 6615TIP3    H241261   3.263   6.084   4.615  3.5880  1.2368 -1.9264
 6616TIP3   OH241262   1.118   6.071  17.041  0.4396 -0.2445  0.4379
 6616TIP3    H141263   1.046   6.008  17.035  0.0285  0.3093 -1.0216
 6616TIP3    H241264   1.081   6.146  17.088  0.2453 -0.2209  0.2500
 6617TIP3   OH241265   1.220   2.344  15.399  0.3687 -0.2730  0.5820
 6617TIP3    H141266   1.129   2.320  15.417  0.4364  0.0837  1.4065
 6617TIP3    H241267   1.228   2.434  15.431 -0.1433  1.3513 -3.2375
 6618TIP3   OH241268   3.485   0.078  12.041 -0.0284  0.0243 -0.1296
 6618TIP3    H141269   3.427   0.005  12.019  0.8398 -1.3166  1.7787
 6618TIP3    H241270   3.426   0.150  12.063 -0.8991 -0.1531 -1.7344
 6619TIP3   OH241271   3.945   5.641  14.119  0.0135  0.4978 -0.0554
 6619TIP3    H141272   3.968   5.569  14.060  0.7107  0.2707  0.4817
 6619TIP3    H241273   3.910   5.598  14.196 -0.9983  0.8008 -0.3366
 6620TIP3   OH241274   5.088   4.169  14.403 -0.5829  0.0310 -0.3494
 6620TIP3    H141275   5.033   4.216  14.467  0.7815 -0.5165  1.2937
 6620TIP3    H241276   5.045   4.185  14.319 -1.9828  1.4885  0.5764
 6621TIP3   OH241277   6.652   2.947   0.107  0.2663 -0.8747 -0.2092
 6621TIP3    H141278   6.596   3.024   0.093 -0.4957 -1.7387 -2.4155
 6621TIP3    H241279   6.590   2.875   0.116  0.9999 -1.5570 -0.5625
 6622TIP3   OH241280   4.171   0.642   5.407 -0.2128  0.2179 -0.7432
 6622TIP3    H141281   4.173   0.708   5.337  0.1817 -2.0138 -2.9607
 6622TIP3    H241282   4.099   0.584   5.383  0.3863 -1.0214  0.3441
 6623TIP3   OH241283   5.123   1.065   2.310 -0.2759 -0.0722  0.8139
 6623TIP3    H141284   5.044   1.053   2.257  0.4645 -1.1384 -0.0914
 6623TIP3    H241285   5.187   1.103   2.249  0.5917 -1.3348  0.8847
 6624TIP3   OH241286   0.025   6.066  13.298 -0.4708  0.0815  0.2159
 6624TIP3    H141287   0.015   5.976  13.266 -1.6940  0.4325 -0.4755
 6624TIP3    H241288   0.050   6.116  13.220 -2.5054  0.7853 -0.0343
 6625TIP3   OH241289   6.643   1.763   5.136 -0.2263 -0.8992  0.7833
 6625TIP3    H141290   6.670   1.713   5.058  0.7323 -1.2876  1.3527
 6625TIP3    H241291   6.667   1.853   5.116  1.9753 -1.2788  1.4338
 6626TIP3   OH241292   0.162   3.552   2.619  0.0523  0.2031  0.3943
 6626TIP3    H141293   0.182   3.492   2.691 -0.0979  0.5144  0.6973
 6626TIP3    H241294   0.245   3.593   2.597 -0.3182  2.0014  2.1060
 6627TIP3   OH241295   2.023   1.642   2.415 -0.5140 -0.3752 -0.0738
 6627TIP3    H141296   2.089   1.622   2.481 -0.8479 -1.1319  0.0411
 6627TIP3    H241297   2.007   1.735   2.424  0.6531 -0.1355 -0.2079
 6628TIP3   OH241298   0.308   4.158   4.462 -0.5711 -0.2191 -0.1115
 6628TIP3    H141299   0.221   4.144   4.498 -0.5705 -0.2529 -0.1228
 6628TIP3    H241300   0.297   4.153   4.367 -0.8888  1.6421 -0.2126
 6629TIP3   OH241301   3.695   3.645  14.483  0.1152  0.5621  0.0866
 6629TIP3    H141302   3.645   3.614  14.558 -0.5083  0.0324 -0.5378
 6629TIP3    H241303   3.707   3.739  14.499 -0.1346  0.4870  0.7643
 6630TIP3   OH241304   2.958   1.914  15.256 -0.5402  0.4873  0.3742
 6630TIP3    H141305   2.950   2.001  15.216  1.6437  0.0774 -1.1089
 6630TIP3    H241306   2.920   1.855  15.190 -0.0702  0.1191  0.4354
 6631TIP3   OH241307   3.306   2.128  11.146 -0.3236 -0.0161 -0.1882
 6631TIP3    H141308   3.232   2.166  11.193  0.0769  2.5308 -1.4670
 6631TIP3    H241309   3.268   2.096  11.064 -0.3665 -0.8955  0.1617
 6632TIP3   OH241310   0.424   0.385  15.946 -0.0492  0.1571 -0.4794
 6632TIP3    H141311   0.482   0.460  15.958  1.3148 -0.9432  0.1773
 6632TIP3    H241312   0.341   0.411  15.985  0.1897  1.5494 -0.8636
 6633TIP3   OH241313   1.825   1.518  14.713  0.2489 -0.4046  0.1919
 6633TIP3    H141314   1.832   1.501  14.806  2.7673  0.1537  0.1805
 6633TIP3    H241315   1.915   1.537  14.685 -0.4792 -0.1889 -2.2721
 6634TIP3   OH241316   4.775   4.110  14.235  1.0271  0.3080 -0.6664
 6634TIP3    H141317   4.851   4.160  14.206  2.2386 -0.2627  1.3278
 6634TIP3    H241318   4.804   4.066  14.315 -1.0933 -0.7565 -0.4064
 6635TIP3   OH241319   1.828   2.904  12.900 -0.1840 -0.0488 -0.1241
 6635TIP3    H141320   1.737   2.931  12.910 -0.3137  0.3406 -2.0194
 6635TIP3    H241321   1.825   2.827  12.843  0.6485 -0.1479 -0.0496
 6636TIP3   OH241322   0.458   0.323  13.465 -0.0309 -0.1694  0.3842
 6636TIP3    H141323   0.529   0.303  13.525 -0.7832 -0.9376  1.0557
 6636TIP3    H241324   0.378   0.307  13.516 -0.6969  1.0553 -0.2217
 6637TIP3   OH241325   5.643   5.426  16.300 -0.3276  0.0305  0.0842
 6637TIP3    H141326   5.566   5.469  16.337  0.2667 -0.5890  2.1618
 6637TIP3    H241327   5.707   5.496  16.289  0.6463 -0.1648  3.4676
 6638TIP3   OH241328   4.428   6.739  16.331  0.5681 -0.0575  0.9723
 6638TIP3    H141329   4.489   6.729  16.404  1.5247  1.2950  0.4096
 6638TIP3    H241330   4.427   6.833  16.313  0.0211 -0.3031 -0.4527
 6639TIP3   OH241331   0.106   6.423  13.159 -0.1825  0.2293 -0.4014
 6639TIP3    H141332   0.107   6.328  13.144  1.3829  0.5929 -3.3273
 6639TIP3    H241333   0.194   6.442  13.192 -0.2098  0.7663 -0.6376
 6640TIP3   OH241334   3.845   6.101   5.159  0.1599 -0.3457 -0.3894
 6640TIP3    H141335   3.922   6.158   5.164  1.2589 -1.8405  2.2572
 6640TIP3    H241336   3.877   6.016   5.189 -1.8951 -1.8202 -2.1099
 6641TIP3   OH241337   3.500   1.619   4.523 -0.8018 -0.1314 -0.4307
 6641TIP3    H141338   3.457   1.567   4.455 -0.5183 -1.7335  0.5664
 6641TIP3    H241339   3.434   1.684   4.548 -1.7925 -1.0433 -0.5887
 6642TIP3   OH241340   1.569   5.110   3.873  0.3617 -0.4218 -0.9805
 6642TIP3    H141341   1.492   5.159   3.902 -0.3957 -0.4554 -2.7490
 6642TIP3    H241342   1.636   5.177   3.858 -0.3167  0.0138 -2.3114
 6643TIP3   OH241343   0.106   5.639   1.075  0.1490  0.8450  0.3808
 6643TIP3    H141344   0.105   5.574   1.004 -1.0667  0.5013  0.6835
 6643TIP3    H241345   0.175   5.609   1.134  0.6751  0.7272 -0.2796
 6644TIP3   OH241346   1.022   6.624   2.195 -0.0279  0.5476  0.2823
 6644TIP3    H141347   1.033   6.683   2.270  2.7767  0.0394  0.3947
 6644TIP3    H241348   0.999   6.682   2.123 -0.3932  1.3614  1.0224
 6645TIP3   OH241349   0.087   1.369  16.791 -0.3195  0.1066 -0.2172
 6645TIP3    H141350   0.021   1.302  16.808  0.2809  0.0268  2.3692
 6645TIP3    H241351   0.050   1.449  16.829  1.1188 -0.0353  1.6700
 6646TIP3   OH241352   4.840   1.653   2.600  0.5006 -0.1069 -0.2824
 6646TIP3    H141353   4.751   1.617   2.596  0.0427  0.9366  0.2692
 6646TIP3    H241354   4.837   1.728   2.541  1.7279 -1.4756 -2.2167
 6647TIP3   OH241355   5.933   1.620   1.780 -0.0946  0.2323  0.4085
 6647TIP3    H141356   5.897   1.634   1.867 -0.6590 -0.8214  0.3589
 6647TIP3    H241357   5.962   1.528   1.781  0.1356  0.2924 -0.4244
 6648TIP3   OH241358   0.367   2.581  13.064 -0.2323 -0.3385 -0.1613
 6648TIP3    H141359   0.447   2.627  13.041 -1.1905  1.0840 -0.7266
 6648TIP3    H241360   0.297   2.630  13.021 -1.3403 -2.0645 -0.4174
 6649TIP3   OH241361   5.295   3.631  17.044 -0.2650 -0.1240  0.3185
 6649TIP3    H141362   5.240   3.588  16.979 -0.5295  0.2088  0.3162
 6649TIP3    H241363   5.354   3.563  17.075 -1.2641 -0.7302  0.9640
 6650TIP3   OH241364   6.566   5.064  11.637 -0.2293 -0.1729 -0.0264
 6650TIP3    H141365   6.621   5.010  11.582 -1.7711  0.0555 -1.9179
 6650TIP3    H241366   6.478   5.053  11.601 -0.8869  2.1185  0.6824
 6651TIP3   OH241367   2.076   3.070   3.999 -0.2109 -0.3187  0.3494
 6651TIP3    H141368   2.085   3.014   3.923 -1.2194  1.0613 -0.8360
 6651TIP3    H241369   2.165   3.103   4.015  0.1021 -1.0422  0.1158
 6652TIP3   OH241370   0.843   1.045  13.886 -0.6153 -0.1089 -0.6677
 6652TIP3    H141371   0.934   1.041  13.858 -0.1597  1.8657  0.3533
 6652TIP3    H241372   0.820   0.954  13.905  1.2384 -0.6126 -0.6367
 6653TIP3   OH241373   6.416   2.020   5.223  0.0437  0.1433 -0.0188
 6653TIP3    H141374   6.449   1.939   5.261  0.4098 -1.0158 -2.6401
 6653TIP3    H241375   6.321   2.007   5.218  0.1210 -0.2127 -0.6085
 6654TIP3   OH241376   0.483   1.546   6.536  0.2222  0.3316 -0.3089
 6654TIP3    H141377   0.544   1.619   6.530 -1.0679  1.3569 -1.8191
 6654TIP3    H241378   0.511   1.487   6.465  0.3740  0.0442 -0.0152
 6655TIP3   OH241379   2.751   1.537  12.522  0.0069  0.1165  0.2703
 6655TIP3    H141380   2.734   1.563  12.432  2.7081  0.8429 -0.1279
 6655TIP3    H241381   2.750   1.618  12.572  2.6415  0.3932  0.0572
 6656TIP3   OH241382   5.891   4.079   2.375 -0.5395 -0.2794 -0.1247
 6656TIP3    H141383   5.903   4.174   2.386 -0.8335 -0.1733 -0.7035
 6656TIP3    H241384   5.844   4.052   2.454  1.2886 -0.2892  1.0190
 6657TIP3   OH241385   3.889   1.555  14.279 -0.3084  0.2113 -0.2290
 6657TIP3    H141386   3.914   1.645  14.259 -0.7691  0.3455 -0.2323
 6657TIP3    H241387   3.953   1.525  14.343  1.2685 -0.2582 -1.9381
 6658TIP3   OH241388   5.079   6.276   2.811 -0.2552  0.1463  0.6910
 6658TIP3    H141389   5.003   6.263   2.869 -1.0351  0.8481 -0.1396
 6658TIP3    H241390   5.045   6.329   2.739  0.9208  0.0586  0.0503
 6659TIP3   OH241391   2.944   5.901   2.305  0.3210 -0.2007  0.2172
 6659TIP3    H141392   2.861   5.855   2.315 -0.0589 -0.0970 -1.9271
 6659TIP3    H241393   2.920   5.986   2.268  1.3347  0.0609  0.1193
 6660TIP3   OH241394   2.299   2.588   4.894 -0.1994 -0.2863  0.0553
 6660TIP3    H141395   2.247   2.668   4.890 -1.2618 -0.9667 -0.0776
 6660TIP3    H241396   2.236   2.517   4.884  0.7459 -1.1466 -0.0234
 6661TIP3   OH241397   4.462   0.972   5.533  0.3694 -0.6894 -0.0503
 6661TIP3    H141398   4.478   0.884   5.499 -0.8897 -1.2099  0.6178
 6661TIP3    H241399   4.548   1.004   5.557  0.8259 -1.8658 -0.0316
 6662TIP3   OH241400   3.179   1.449  11.461 -0.2033  0.2581 -0.3329
 6662TIP3    H141401   3.142   1.372  11.419  0.2691 -0.2028  0.0721
 6662TIP3    H241402   3.233   1.490  11.394 -0.6755  0.3980 -0.6340
 6663TIP3   OH241403   2.290   3.301   1.808 -0.0463  0.1512  0.1919
 6663TIP3    H141404   2.267   3.213   1.836 -2.2132  0.5660 -0.1235
 6663TIP3    H241405   2.306   3.349   1.889 -0.8557 -0.0470  0.4810
 6664TIP3   OH241406   6.793   0.880   1.124 -0.7324  0.1594 -0.1231
 6664TIP3    H141407   6.780   0.785   1.130  0.9243 -0.1589 -1.0013
 6664TIP3    H241408   6.812   0.896   1.032  1.7152  0.9438  0.4623
 6665TIP3   OH241409   1.797   6.373   3.772 -0.4418 -0.3986  0.7239
 6665TIP3    H141410   1.884   6.376   3.731 -1.3526  0.0340 -1.2766
 6665TIP3    H241411   1.815   6.375   3.866  1.6768  1.0129  0.3556
 6666TIP3   OH241412   4.879   2.733   3.584 -0.1789 -0.5073 -0.2560
 6666TIP3    H141413   4.906   2.641   3.588  0.9826 -0.1547  2.9565
 6666TIP3    H241414   4.798   2.737   3.634  0.2001  0.3313  0.3111
 6667TIP3   OH241415   5.746   6.374  15.244  0.0578 -0.4446  0.8617
 6667TIP3    H141416   5.655   6.377  15.276 -0.4131 -0.3907 -0.4264
 6667TIP3    H241417   5.755   6.452  15.190  1.4189  0.4534  2.3142
 6668TIP3   OH241418   6.289   3.143   5.746  0.0293  0.1700  0.1924
 6668TIP3    H141419   6.361   3.203   5.726 -0.3590  1.1022  1.4505
 6668TIP3    H241420   6.301   3.070   5.685  1.1389  1.0199 -0.6527
 6669TIP3   OH241421   6.349   4.350   3.898 -0.4342 -0.0935 -0.2682
 6669TIP3    H141422   6.269   4.376   3.852  0.5095  1.9110 -0.8783
 6669TIP3    H241423   6.325   4.269   3.943 -1.9603 -1.0910 -2.7006
 6670TIP3   OH241424   1.547   1.363   3.624  0.7368 -0.7984 -0.0276
 6670TIP3    H141425   1.452   1.373   3.627  0.8300  0.2226 -0.1797
 6670TIP3    H241426   1.561   1.271   3.601 -0.2138 -0.9004 -0.2246
 6671TIP3   OH241427   6.420   3.512  14.399  0.6200 -0.0139  0.1992
 6671TIP3    H141428   6.512   3.500  14.373  0.1279 -1.9768 -0.8779
 6671TIP3    H241429   6.397   3.600  14.370  2.4110  0.9021  1.3702
 6672TIP3   OH241430   3.385   6.160   4.886 -0.3307  0.3622 -0.2205
 6672TIP3    H141431   3.329   6.102   4.937  0.7885 -0.5540  0.0075
 6672TIP3    H241432   3.338   6.174   4.804 -1.5832  0.8578  0.5531
 6673TIP3   OH241433   6.462   3.496  16.527  0.6669  0.0709 -0.3310
 6673TIP3    H141434   6.443   3.587  16.552  1.1115  0.0858 -0.0246
 6673TIP3    H241435   6.448   3.494  16.432 -0.8348  0.0666 -0.1192
 6674TIP3   OH241436   3.571   0.641   4.004  0.6069  0.6085 -0.3893
 6674TIP3    H141437   3.607   0.554   3.986  0.6960  0.5685 -0.0211
 6674TIP3    H241438   3.512   0.628   4.079 -0.7728  0.5287 -1.4500
 6675TIP3   OH241439   2.483   3.239   4.961  0.1221 -0.2009 -0.4052
 6675TIP3    H141440   2.440   3.216   4.879 -1.6841 -0.7630  0.6498
 6675TIP3    H241441   2.502   3.156   5.003 -0.1560  0.0930  0.3251
 6676TIP3   OH241442   4.040   1.334   0.411  0.3754  0.1239  0.1746
 6676TIP3    H141443   4.028   1.321   0.317  1.6541  2.0361 -0.3097
 6676TIP3    H241444   4.002   1.421   0.427  1.3654  0.3810  1.1618
 6677TIP3   OH241445   1.582   5.738   2.016 -0.1780  0.1935  0.3091
 6677TIP3    H141446   1.594   5.828   2.043  1.4441 -0.2483  1.1608
 6677TIP3    H241447   1.526   5.743   1.938  1.1582  2.0513 -0.5977
 6678TIP3   OH241448   6.642   4.549  15.451  0.4728  0.0080  0.0762
 6678TIP3    H141449   6.638   4.601  15.532  2.5254  1.8603 -0.9004
 6678TIP3    H241450   6.691   4.471  15.476 -0.4354 -0.2900  1.0020
 6679TIP3   OH241451   2.626   2.727   0.999 -0.2083 -0.3501 -0.7794
 6679TIP3    H141452   2.651   2.704   0.909  1.5606 -0.4198 -0.2954
 6679TIP3    H241453   2.643   2.648   1.050  0.0216  0.0930 -0.1649
 6680TIP3   OH241454   4.404   0.913   2.667 -0.8412 -0.9337  0.1269
 6680TIP3    H141455   4.352   0.993   2.661  0.2943 -0.2293 -0.7630
 6680TIP3    H241456   4.406   0.879   2.577  0.9292 -0.4630 -0.0472
 6681TIP3   OH241457   1.823   1.625  13.243 -0.0240 -0.0789  0.9700
 6681TIP3    H141458   1.799   1.711  13.210 -0.6715 -0.7091 -0.2617
 6681TIP3    H241459   1.880   1.588  13.176 -0.4350 -0.9434  1.0828
 6682TIP3   OH241460   1.027   6.757   0.596 -0.1006 -0.3640  0.0255
 6682TIP3    H141461   1.122   6.749   0.590 -0.1855 -2.1135  0.6304
 6682TIP3    H241462   0.995   6.724   0.511 -0.2539 -2.5772  0.8803
 6683TIP3   OH241463   3.891   4.930  12.438  0.3816 -0.3340  0.7470
 6683TIP3    H141464   3.854   4.905  12.523 -0.2522 -0.4865  0.4353
 6683TIP3    H241465   3.869   4.857  12.380  1.3012 -0.4865  0.5760
 6684TIP3   OH241466   0.305   1.307   3.467  0.0267 -0.3069 -0.0587
 6684TIP3    H141467   0.271   1.312   3.557  1.1306  0.2872  0.3403
 6684TIP3    H241468   0.293   1.215   3.443 -3.2575  0.1053 -0.5374
 6685TIP3   OH241469   0.011   3.375   5.006 -0.5510  0.3537 -0.4387
 6685TIP3    H141470   0.065   3.341   4.934  0.9075  1.4653  0.0769
 6685TIP3    H241471   0.056   3.347   5.085 -1.4745  0.1874  0.0349
 6686TIP3   OH241472   6.080   4.568   4.707  0.3882 -0.4692  0.3780
 6686TIP3    H141473   6.066   4.490   4.761  1.1031 -0.4857  0.5571
 6686TIP3    H241474   6.170   4.559   4.675  0.5144  0.3259  0.4795
 6687TIP3   OH241475   5.967   2.603   0.416  0.6266  0.1526  0.5732
 6687TIP3    H141476   5.912   2.682   0.414  1.5028  0.7714  0.5854
 6687TIP3    H241477   6.055   2.635   0.435  1.0309 -0.8136  0.3888
 6688TIP3   OH241478   6.369   5.463   3.008  0.2077  0.4429 -0.1104
 6688TIP3    H141479   6.276   5.443   3.006 -0.1597  1.9957 -0.6976
 6688TIP3    H241480   6.413   5.378   3.005 -1.1788 -0.3042  0.0169
 6689TIP3   OH241481   0.332   2.265  16.876  0.1722 -0.1882 -0.4181
 6689TIP3    H141482   0.375   2.302  16.953  1.7840  0.7445 -1.7020
 6689TIP3    H241483   0.362   2.175  16.872  0.0857 -0.2407  0.0258
 6690TIP3   OH241484   5.813   1.730   4.821  0.2350 -0.1489  0.0628
 6690TIP3    H141485   5.900   1.702   4.849  0.4798  0.1891 -0.3463
 6690TIP3    H241486   5.754   1.663   4.856  0.7332 -0.8064 -0.3216
 6691TIP3   OH241487   0.900   4.035   0.462 -0.0630 -0.0576 -0.1682
 6691TIP3    H141488   0.900   3.940   0.449 -0.5236 -0.1027  0.1354
 6691TIP3    H241489   0.991   4.057   0.480 -0.1018 -0.5720  0.6793
 6692TIP3   OH241490   5.418   1.444  16.611 -0.3846 -0.2510 -0.5397
 6692TIP3    H141491   5.365   1.511  16.569  0.7619  0.5957 -0.7015
 6692TIP3    H241492   5.359   1.370  16.623 -1.3660  0.3555 -1.4559
 6693TIP3   OH241493   3.999   3.837  12.166 -0.4229 -0.0349  0.3027
 6693TIP3    H141494   3.937   3.816  12.236 -0.9115 -3.0124 -0.8496
 6693TIP3    H241495   4.082   3.802  12.197 -0.8211 -2.1806 -0.8366
 6694TIP3   OH241496   0.161   3.813   2.900 -0.0934  0.6046 -0.3553
 6694TIP3    H141497   0.177   3.719   2.894 -0.2233  0.5526  0.1050
 6694TIP3    H241498   0.140   3.828   2.992 -0.1370  1.0737 -0.4409
 6695TIP3   OH241499   3.172   0.989   1.375 -0.0362  0.2217 -0.6998
 6695TIP3    H141500   3.257   0.962   1.411  0.2121  1.8704  0.0647
 6695TIP3    H241501   3.117   1.003   1.452  0.2218  2.9225 -0.9007
 6696TIP3   OH241502   4.872   3.571  11.985 -0.3946 -0.0558 -0.2521
 6696TIP3    H141503   4.907   3.509  12.049 -1.1549  0.3217  0.5558
 6696TIP3    H241504   4.777   3.555  11.986 -0.3607 -0.5032 -1.7916
 6697TIP3   OH241505   0.188   5.632  14.743 -0.5871 -0.1385  0.1338
 6697TIP3    H141506   0.117   5.658  14.684 -0.2407  1.6701  0.4558
 6697TIP3    H241507   0.266   5.673  14.706 -0.4907  1.8035  2.2570
 6698TIP3   OH241508   3.563   4.266  16.727 -0.0984 -0.0424  0.4284
 6698TIP3    H141509   3.603   4.255  16.641 -1.3620 -0.9649 -0.0666
 6698TIP3    H241510   3.605   4.344  16.763 -0.8602  1.4844 -1.8014
 6699TIP3   OH241511   4.636   4.227   2.153  0.1654  0.8763  0.3436
 6699TIP3    H141512   4.587   4.282   2.215 -0.2382 -0.0263  0.8428
 6699TIP3    H241513   4.728   4.248   2.169  0.0905  0.3425  1.5700
 6700TIP3   OH241514   4.814   3.321   3.006 -0.0990 -0.1311  0.0800
 6700TIP3    H141515   4.829   3.388   2.940 -0.7640 -0.3446 -0.2972
 6700TIP3    H241516   4.719   3.308   3.006  0.0525 -1.3417 -0.1374
 6701TIP3   OH241517   3.766   0.191   2.050 -0.1730  0.3640  0.1865
 6701TIP3    H141518   3.701   0.208   2.118 -1.1126  0.2841 -0.6572
 6701TIP3    H241519   3.830   0.261   2.060 -0.2587  0.3048  1.1963
 6702TIP3   OH241520   3.160   6.459  11.475  0.9028  0.4092  0.1732
 6702TIP3    H141521   3.135   6.498  11.559  1.2785  2.2114 -0.5183
 6702TIP3    H241522   3.171   6.533  11.416 -1.5778 -0.8823 -2.1462
 6703TIP3   OH241523   2.973   0.155   0.053 -0.4226 -0.6960  0.1290
 6703TIP3    H141524   2.890   0.178   0.012  0.8451 -0.6353 -2.5944
 6703TIP3    H241525   2.975   0.060   0.053  0.3681 -0.7050 -1.7714
 6704TIP3   OH241526   1.836   6.702   5.750 -0.4430 -0.3423 -1.0199
 6704TIP3    H141527   1.908   6.642   5.732  0.6619  0.8548 -0.7735
 6704TIP3    H241528   1.768   6.648   5.790 -0.1825 -1.7218 -2.3838
 6705TIP3   OH241529   4.960   4.505  14.567 -0.5281 -0.4777 -0.1577
 6705TIP3    H141530   4.944   4.507  14.473 -0.4221  0.7555 -0.1653
 6705TIP3    H241531   4.875   4.484  14.605 -0.8828  0.3072 -0.4798
 6706TIP3   OH241532   6.131   1.530  16.782  0.4160 -0.2221  0.1906
 6706TIP3    H141533   6.203   1.558  16.838  1.1357 -0.8662 -0.3958
 6706TIP3    H241534   6.078   1.473  16.837 -0.8217  1.8412  1.2730
 6707TIP3   OH241535   3.074   2.164   1.749  0.0474 -0.1264 -0.3345
 6707TIP3    H141536   3.021   2.133   1.674 -0.1472  0.8064 -0.5909
 6707TIP3    H241537   3.030   2.244   1.777  0.4342 -0.1873  0.4531
 6708TIP3   OH241538   1.604   0.424  16.539 -0.3585 -0.4524  0.1394
 6708TIP3    H141539   1.535   0.484  16.510  0.3127  0.2227 -0.1221
 6708TIP3    H241540   1.684   0.478  16.538  0.3184 -1.4227 -0.3958
 6709TIP3   OH241541   0.172   1.761   4.134 -0.6340 -0.2739 -0.5227
 6709TIP3    H141542   0.211   1.751   4.047 -0.8076 -2.5077 -0.3814
 6709TIP3    H241543   0.112   1.688   4.143 -2.1548  1.0465  0.7278
 6710TIP3   OH241544   2.666   2.349  13.338 -0.6307 -0.7009 -0.7277
 6710TIP3    H141545   2.713   2.356  13.421 -0.1908 -0.4848 -0.9869
 6710TIP3    H241546   2.606   2.423  13.339 -0.4497 -0.5516 -0.7063
 6711TIP3   OH241547   6.314   6.579  14.326  0.8579  0.0505  0.1511
 6711TIP3    H141548   6.235   6.616  14.365  0.7301  0.9247 -0.8820
 6711TIP3    H241549   6.299   6.585  14.231  1.1532 -1.9847 -0.0746
 6712TIP3   OH241550   6.087   5.233   1.534 -0.2087  0.0037  0.1014
 6712TIP3    H141551   6.067   5.327   1.532  0.6269  0.1896 -0.2843
 6712TIP3    H241552   6.097   5.212   1.627  0.3178  0.4699  0.1580
 6713TIP3   OH241553   1.885   0.481  12.651 -0.7803  0.2117 -0.1827
 6713TIP3    H141554   1.980   0.487  12.638 -0.8625  0.8595 -0.5615
 6713TIP3    H241555   1.863   0.391  12.627  0.0341 -0.6476  1.9984
 6714TIP3   OH241556   0.792   4.444   3.416  0.6169 -0.4831 -0.7931
 6714TIP3    H141557   0.708   4.424   3.457 -0.8195  3.3517 -1.4636
 6714TIP3    H241558   0.832   4.509   3.473  1.1008  0.9372 -2.6485
 6715TIP3   OH241559   0.714   3.904   5.804 -0.1504 -0.9720 -0.4693
 6715TIP3    H141560   0.692   3.939   5.890 -0.3822 -1.3929 -0.3547
 6715TIP3    H241561   0.674   3.817   5.802 -0.3327 -0.8807 -1.0826
 6716TIP3   OH241562   1.640   3.755   3.632  0.6109  0.2471  0.6259
 6716TIP3    H141563   1.578   3.757   3.705  0.0766 -0.0144  0.1835
 6716TIP3    H241564   1.694   3.678   3.649 -0.8137 -0.9941 -0.2984
 6717TIP3   OH241565   3.668   4.469   4.217  0.1658 -0.2965  0.3556
 6717TIP3    H141566   3.597   4.489   4.156 -0.3595 -1.7534  0.4513
 6717TIP3    H241567   3.707   4.554   4.238 -0.2581  0.3201 -1.2559
 6718TIP3   OH241568   3.873   4.371  15.833  0.8214 -0.2886 -0.4990
 6718TIP3    H141569   3.821   4.374  15.913 -0.2147 -1.8048 -1.0742
 6718TIP3    H241570   3.956   4.332  15.859  1.5557  1.7402  0.3401
 6719TIP3   OH241571   2.310   4.660  11.360  0.2046 -0.0561 -0.1980
 6719TIP3    H141572   2.314   4.628  11.269 -0.2283 -0.3750 -0.1069
 6719TIP3    H241573   2.247   4.602  11.403  0.4090  0.0941  0.3098
 6720TIP3   OH241574   4.874   3.492   2.187  0.6849 -0.1806 -0.3013
 6720TIP3    H141575   4.877   3.398   2.207  1.7776  0.0802  0.8935
 6720TIP3    H241576   4.964   3.522   2.199  0.3564  1.0242 -0.7014
 6721TIP3   OH241577   4.767   3.505  12.852  0.1037  0.3070 -0.5253
 6721TIP3    H141578   4.678   3.538  12.863  0.4904  1.0434  0.5085
 6721TIP3    H241579   4.778   3.441  12.922  0.3814  0.2047 -0.6612
 6722TIP3   OH241580   5.603   6.554   4.240  0.3507 -0.0811 -0.3055
 6722TIP3    H141581   5.697   6.542   4.257  0.5097  1.4936  0.0251
 6722TIP3    H241582   5.595   6.645   4.215 -1.1190 -0.1814 -0.2449
 6723TIP3   OH241583   3.082   5.087  15.707 -0.0816  0.0574  0.2248
 6723TIP3    H141584   3.070   5.085  15.802 -3.3535  2.4307  0.0099
 6723TIP3    H241585   3.099   5.179  15.686 -2.0707  0.0719 -1.6666
 6724TIP3   OH241586   2.065   5.232   1.633 -0.2830 -0.2196 -0.0427
 6724TIP3    H141587   2.013   5.303   1.670  2.0496  1.6083 -0.0190
 6724TIP3    H241588   2.118   5.201   1.706  0.4802 -0.2712 -0.6093
 6725TIP3   OH241589   2.598   5.274   5.893 -0.2837  0.1999  0.1959
 6725TIP3    H141590   2.566   5.307   5.977 -0.4987 -2.5795  1.3146
 6725TIP3    H241591   2.690   5.301   5.890 -0.2426  0.2344  1.3833
 6726TIP3   OH241592   1.695   2.436   6.180 -0.4067 -0.0301  0.1012
 6726TIP3    H141593   1.618   2.410   6.229  0.3217 -1.1601  0.6768
 6726TIP3    H241594   1.761   2.456   6.247  0.0406  0.2022 -0.3930
 6727TIP3   OH241595   2.039   1.703  14.902 -0.2263  0.2040  0.6645
 6727TIP3    H141596   2.122   1.744  14.927 -0.2865 -0.0094  1.2358
 6727TIP3    H241597   2.063   1.640  14.834  0.1519 -0.1355  1.0997
 6728TIP3   OH241598   4.106   1.798  12.079  0.1573 -0.5578  0.3059
 6728TIP3    H141599   4.050   1.743  12.024  0.8053 -0.5821 -0.3477
 6728TIP3    H241600   4.084   1.888  12.053  1.1509 -0.5845 -0.7271
 6729TIP3   OH241601   1.673   4.585   3.020 -0.7523 -0.1885 -0.1320
 6729TIP3    H141602   1.648   4.646   2.951  1.3361 -0.4126 -1.1505
 6729TIP3    H241603   1.712   4.640   3.088 -1.1561 -0.1455  0.0653
 6730TIP3   OH241604   4.208   6.045  16.271 -0.2731 -0.7331  0.7478
 6730TIP3    H141605   4.289   5.993  16.268 -0.9211 -1.8104  1.3980
 6730TIP3    H241606   4.215   6.103  16.195  1.9381  0.4926  1.8046
 6731TIP3   OH241607   5.957   5.040  16.308 -0.2799  0.0983  0.0659
 6731TIP3    H141608   5.872   5.043  16.264 -0.1203 -0.5700 -0.2926
 6731TIP3    H241609   5.944   4.980  16.381 -0.2707  0.4354  0.3452
 6732TIP3   OH241610   2.163   0.412  12.885 -0.0043  0.4735 -0.1649
 6732TIP3    H141611   2.190   0.359  12.810 -0.2143 -1.7238  1.2332
 6732TIP3    H241612   2.096   0.361  12.929 -1.2179  2.5456  0.5412
 6733TIP3   OH241613   3.037   6.734   1.083 -0.1470  0.0176  0.2745
 6733TIP3    H141614   3.086   6.815   1.069  1.4424 -0.9442  0.0703
 6733TIP3    H241615   2.952   6.763   1.118  0.1687  1.7844 -0.3290
 6734TIP3   OH241616   0.706   5.743   1.658 -0.5624 -0.3102 -0.0150
 6734TIP3    H141617   0.635   5.786   1.707  0.4489  0.8609  0.4765
 6734TIP3    H241618   0.761   5.816   1.628 -0.3955 -1.0938 -1.7289
 6735TIP3   OH241619   0.160   1.421   3.142 -0.1873  0.1428  0.2823
 6735TIP3    H141620   0.115   1.451   3.063  0.6639  0.4438 -0.0888
 6735TIP3    H241621   0.157   1.325   3.136 -3.2423  0.0258  1.6539
 6736TIP3   OH241622   2.807   0.836   4.918  0.0868  0.0589  0.6167
 6736TIP3    H141623   2.791   0.919   4.873 -0.0815  0.0011  0.5702
 6736TIP3    H241624   2.751   0.774   4.874 -0.4024  0.0905  1.1884
 6737TIP3   OH241625   5.299   1.088   3.896  0.1290 -0.1949 -0.0477
 6737TIP3    H141626   5.244   1.034   3.840 -1.6181  0.7201  0.7028
 6737TIP3    H241627   5.309   1.171   3.848  1.4499 -0.5732 -0.4731
 6738TIP3   OH241628   5.731   0.171   3.912 -0.2124 -0.6919 -0.0373
 6738TIP3    H141629   5.646   0.162   3.870 -0.5023 -0.7910  0.5644
 6738TIP3    H241630   5.777   0.236   3.859 -1.9491  2.1008  1.6252
 6739TIP3   OH241631   4.939   6.700   1.476  0.4829 -0.1811 -0.2386
 6739TIP3    H141632   4.953   6.653   1.558  2.2894 -0.0307 -0.4250
 6739TIP3    H241633   4.974   6.642   1.408 -1.9782 -0.8056 -1.1044
 6740TIP3   OH241634   0.608   5.051   2.276 -0.0470  0.4169 -0.0962
 6740TIP3    H141635   0.531   5.053   2.219 -2.0649  0.9175  2.4720
 6740TIP3    H241636   0.643   4.962   2.264 -1.1678  0.0684 -1.1085
 6741TIP3   OH241637   0.236   0.979  12.685  0.6138  0.2445 -0.3619
 6741TIP3    H141638   0.330   0.964  12.688  0.6295  0.3862 -0.1863
 6741TIP3    H241639   0.223   1.066  12.723  0.6802  1.4101 -2.7775
 6742TIP3   OH241640   5.356   5.975  13.751  0.4004  0.1476  0.0091
 6742TIP3    H141641   5.445   5.982  13.716 -0.2650 -0.8214 -2.0289
 6742TIP3    H241642   5.300   6.007  13.680 -1.0438 -1.8400  0.1742
 6743TIP3   OH241643   2.721   3.880   5.918 -0.4258 -0.4067 -0.0413
 6743TIP3    H141644   2.758   3.911   6.001  1.4730 -1.5610 -0.3958
 6743TIP3    H241645   2.707   3.786   5.931  0.0911 -0.6445 -1.0873
 6744TIP3   OH241646   1.034   3.528   0.211  0.0346  0.6713 -0.1756
 6744TIP3    H141647   1.082   3.610   0.223  1.3198 -0.2287  1.2387
 6744TIP3    H241648   1.053   3.503   0.120  3.0496 -0.0703  0.5363
 6745TIP3   OH241649   5.921   1.442  15.297  0.0890 -0.3558 -0.1147
 6745TIP3    H141650   5.993   1.435  15.360 -0.8698 -0.8175  0.9614
 6745TIP3    H241651   5.897   1.352  15.277 -0.8970 -0.2205  0.3861
 6746TIP3   OH241652   5.420   6.560   2.148  0.0316 -0.1314 -0.0642
 6746TIP3    H141653   5.341   6.506   2.160 -1.1521  1.2894 -1.0939
 6746TIP3    H241654   5.431   6.605   2.232 -0.3709 -0.1857  0.0215
 6747TIP3   OH241655   4.354   0.635  11.892 -0.0433  0.4093 -0.3787
 6747TIP3    H141656   4.434   0.625  11.840  1.0908  3.2615  0.6120
 6747TIP3    H241657   4.349   0.729  11.910 -3.2738  0.2206  0.2173
 6748TIP3   OH241658   3.416   5.420   6.119  0.1956 -0.0074  0.2947
 6748TIP3    H141659   3.447   5.504   6.154  0.5527 -0.1883  0.4117
 6748TIP3    H241660   3.324   5.415   6.148  0.4139 -0.0399  1.0060
 6749TIP3   OH241661   4.692   6.517   2.812  0.7816 -0.2062  0.7082
 6749TIP3    H141662   4.713   6.568   2.734  1.3031  1.1966  1.7277
 6749TIP3    H241663   4.598   6.499   2.804  0.7443  0.2834 -0.0322
 6750TIP3   OH241664   0.753   3.187   1.200  0.0859  0.0462 -0.3190
 6750TIP3    H141665   0.799   3.269   1.181  0.1801  0.3720  1.1739
 6750TIP3    H241666   0.661   3.210   1.197  0.0104 -0.3640 -2.2543
 6751TIP3   OH241667   6.527   4.323   4.510 -0.0085  0.4568  0.0749
 6751TIP3    H141668   6.482   4.238   4.516  0.3933  0.3433  2.0218
 6751TIP3    H241669   6.481   4.368   4.439  0.2126 -1.6271 -1.5169
 6752TIP3   OH241670   5.447   5.924   0.730 -0.2604 -0.2011  0.3495
 6752TIP3    H141671   5.532   5.954   0.765 -0.7576  1.1952  0.4333
 6752TIP3    H241672   5.420   5.855   0.791  1.7946 -2.2693 -0.8989
 6753TIP3   OH241673   4.693   2.596   5.350  0.2124  0.5103  0.0897
 6753TIP3    H141674   4.622   2.638   5.398  0.1697  2.0146 -1.2178
 6753TIP3    H241675   4.654   2.515   5.316 -0.0742 -0.0028  1.5627
 6754TIP3   OH241676   4.066   5.857  11.390 -0.4960 -0.0505 -0.0013
 6754TIP3    H141677   4.136   5.919  11.411 -0.0554  0.3031 -2.2882
 6754TIP3    H241678   4.043   5.877  11.299 -3.4615 -0.2873  0.6180
 6755TIP3   OH241679   5.193   3.544   1.262  0.2893  0.5361 -0.2823
 6755TIP3    H141680   5.203   3.605   1.335 -1.9063 -0.7131  1.2040
 6755TIP3    H241681   5.152   3.596   1.193  0.6586  1.2992  0.0626
 6756TIP3   OH241682   3.982   5.866  13.246 -0.4273  0.1321 -0.4833
 6756TIP3    H141683   3.909   5.817  13.284 -1.3335  1.6502 -0.1923
 6756TIP3    H241684   4.056   5.804  13.248 -0.9871 -0.5454  1.7793
 6757TIP3   OH241685   0.185   1.757   4.743  0.2377  0.0749  0.1264
 6757TIP3    H141686   0.278   1.776   4.758  0.0674 -0.2797  1.7610
 6757TIP3    H241687   0.168   1.790   4.655  1.3723  2.2028  0.6474
 6758TIP3   OH241688   6.306   2.502   5.744 -0.3701  0.5306  0.6581
 6758TIP3    H141689   6.224   2.550   5.731 -0.4295  0.5800  1.2139
 6758TIP3    H241690   6.283   2.411   5.726 -0.4998  0.5682  0.6316
 6759TIP3   OH241691   3.984   2.029  16.405  0.0678  0.4464  0.2881
 6759TIP3    H141692   4.033   2.100  16.363  1.3449 -0.2060  0.6277
 6759TIP3    H241693   4.009   2.034  16.497 -0.1568 -0.1743  0.3886
 6760TIP3   OH241694   1.734   0.479   3.786  0.2131 -0.4223 -0.0784
 6760TIP3    H141695   1.811   0.526   3.752  0.8548 -2.1831 -1.2184
 6760TIP3    H241696   1.664   0.500   3.724 -0.3265  1.3292  1.0612
 6761TIP3   OH241697   5.883   4.724  11.402 -0.0883  0.0795 -0.5247
 6761TIP3    H141698   5.966   4.748  11.442  0.5755  0.4939 -2.0866
 6761TIP3    H241699   5.845   4.807  11.373 -2.4489  0.2585  2.6366
 6762TIP3   OH241700   4.700   2.721  13.590 -0.3255  0.0900 -0.1547
 6762TIP3    H141701   4.699   2.712  13.494  1.7092 -1.5883 -0.1050
 6762TIP3    H241702   4.761   2.794  13.606 -0.0745 -0.1219 -0.1357
 6763TIP3   OH241703   1.346   5.796  13.617  0.1685  0.0112  0.7558
 6763TIP3    H141704   1.376   5.705  13.614  1.8293  0.5408 -2.0817
 6763TIP3    H241705   1.308   5.812  13.531 -0.3326  1.9524  1.2826
 6764TIP3   OH241706   3.455   5.490   3.653 -0.7192  0.1656  0.0574
 6764TIP3    H141707   3.514   5.565   3.667 -0.6542 -0.1178  1.4264
 6764TIP3    H241708   3.399   5.518   3.581  0.6097  0.7295 -0.8155
 6765TIP3   OH241709   4.455   3.046  16.964 -0.5069  0.9726  1.0483
 6765TIP3    H141710   4.447   3.138  16.939  0.0157  1.2652  1.9278
 6765TIP3    H241711   4.548   3.033  16.978 -0.4556  0.0432 -0.0042
 6766TIP3   OH241712   6.117   0.301   5.553  0.4029 -0.5645  0.6115
 6766TIP3    H141713   6.064   0.375   5.527  0.7767 -0.8344 -1.0525
 6766TIP3    H241714   6.082   0.274   5.638  0.1284  1.3501  1.1385
 6767TIP3   OH241715   2.402   5.088  12.084 -0.0878  0.1779  0.0429
 6767TIP3    H141716   2.408   4.993  12.098  1.4122  0.2597  0.1039
 6767TIP3    H241717   2.356   5.121  12.161  0.0865 -0.4193  0.4098
 6768TIP3   OH241718   3.385   6.133  17.036  0.6544 -0.2848 -0.0721
 6768TIP3    H141719   3.455   6.070  17.017 -0.2581 -1.3988  0.1703
 6768TIP3    H241720   3.371   6.126  17.130  0.3930  0.1350 -0.0758
 6769TIP3   OH241721   2.338   2.841  13.358 -0.1919 -0.0345 -0.2934
 6769TIP3    H141722   2.268   2.775  13.361 -0.3370  0.1397  0.0884
 6769TIP3    H241723   2.396   2.818  13.430 -0.8473  0.9323  0.5551
 6770TIP3   OH241724   0.216   0.333   5.767  0.6325  0.0279 -0.9093
 6770TIP3    H141725   0.273   0.409   5.769 -1.2985  1.5941 -1.6599
 6770TIP3    H241726   0.236   0.290   5.684 -0.5735  1.7101 -2.1482
 6771TIP3   OH241727   3.072   1.037  11.183  0.2725 -0.0063 -0.2210
 6771TIP3    H141728   3.113   0.954  11.209  0.8384 -0.0489 -1.2108
 6771TIP3    H241729   2.980   1.015  11.168  0.3445 -0.3738 -0.1433
 6772TIP3   OH241730   3.816   3.798  13.921  0.1798 -0.8023 -0.5267
 6772TIP3    H141731   3.856   3.750  13.848 -0.9053 -1.3295 -0.8031
 6772TIP3    H241732   3.725   3.767  13.922 -0.2842  0.5192 -0.0680
 6773TIP3   OH241733   2.387   3.057  16.109  0.1029 -0.1520  0.2956
 6773TIP3    H141734   2.368   3.141  16.068  1.1545 -0.1219 -0.1771
 6773TIP3    H241735   2.311   3.003  16.091 -0.4322  0.5920  0.3041
 6774TIP3   OH241736   0.498   1.516  12.880 -0.0497  0.1729 -0.6006
 6774TIP3    H141737   0.425   1.576  12.870 -0.4327  0.0689  1.1565
 6774TIP3    H241738   0.561   1.542  12.813 -0.8927  1.4912 -0.9087
 6775TIP3   OH241739   6.774   2.452  15.726 -0.4930  0.4466  0.5051
 6775TIP3    H141740   6.745   2.414  15.643  1.0203  0.1080  0.1032
 6775TIP3    H241741   6.868   2.435  15.729 -0.7018 -0.7200  2.9038
 6776TIP3   OH241742   6.540   4.260  15.582  0.1200 -0.1010 -0.4648
 6776TIP3    H141743   6.625   4.302  15.572  0.6178 -1.1907 -0.9889
 6776TIP3    H241744   6.477   4.330  15.569  0.9149  0.9974  1.1400
 6777TIP3   OH241745   2.280   1.937   1.961 -0.0409 -0.5740 -0.5829
 6777TIP3    H141746   2.215   1.899   2.020 -0.1951  1.5966  0.7344
 6777TIP3    H241747   2.229   1.986   1.897  0.2287  0.2068 -0.2160
 6778TIP3   OH241748   1.425   4.017  16.899 -0.5702 -0.6521 -0.0879
 6778TIP3    H141749   1.471   3.967  16.966  0.2403  2.0490  1.5030
 6778TIP3    H241750   1.465   3.988  16.817  2.7923  0.2170  1.0697
 6779TIP3   OH241751   5.941   2.832  16.720 -0.0126 -0.1416 -0.1582
 6779TIP3    H141752   5.929   2.807  16.628 -0.8422 -1.4403  0.2725
 6779TIP3    H241753   5.940   2.748  16.767  1.8522  0.3734  0.9000
 6780TIP3   OH241754   5.297   4.186  15.805  0.0662  0.7570 -0.1444
 6780TIP3    H141755   5.221   4.179  15.747 -0.2466  2.1000  0.0616
 6780TIP3    H241756   5.369   4.146  15.756  0.1524  3.1259 -2.1373
 6781TIP3   OH241757   5.973   2.962  10.818 -0.0370 -0.0103  0.0622
 6781TIP3    H141758   5.897   2.903  10.816 -0.7961  0.9729 -0.9730
 6781TIP3    H241759   5.973   3.005  10.733  1.7336 -0.0238  0.0224
 6782TIP3   OH241760   3.363   3.296  15.824 -0.4850 -0.1085  0.3203
 6782TIP3    H141761   3.433   3.300  15.889 -0.5084 -0.5487  0.3752
 6782TIP3    H241762   3.408   3.292  15.740 -0.4398 -0.7181  0.3731
 6783TIP3   OH241763   5.657   6.305   6.015  0.4721 -0.4570 -0.1355
 6783TIP3    H141764   5.738   6.254   6.020  0.9671  0.3744  0.5671
 6783TIP3    H241765   5.591   6.249   6.055  0.6319 -1.2376 -0.9212
 6784TIP3   OH241766   6.575   0.949   3.426 -0.3252 -0.3863  0.2534
 6784TIP3    H141767   6.655   0.973   3.473  0.8487  0.2041 -1.9205
 6784TIP3    H241768   6.516   1.023   3.439 -0.9220 -1.1988  2.5987
 6785TIP3   OH241769   2.286   1.416  16.215 -0.3894  0.2690  0.4561
 6785TIP3    H141770   2.364   1.362  16.229 -0.7922 -0.6371 -0.6736
 6785TIP3    H241771   2.215   1.369  16.259 -0.5005  0.5534  0.5826
 6786TIP3   OH241772   0.338   4.741  13.942  0.5522 -0.1000  0.3049
 6786TIP3    H141773   0.377   4.824  13.970 -1.4523  1.3540 -0.9626
 6786TIP3    H241774   0.360   4.734  13.849  0.4064 -0.8100  0.3175
 6787TIP3   OH241775   2.559   1.846  16.373  0.4898 -0.2698  0.4806
 6787TIP3    H141776   2.483   1.789  16.378  0.4057 -0.0973  1.3279
 6787TIP3    H241777   2.604   1.820  16.293 -0.6764 -0.0933 -0.2532
 6788TIP3   OH241778   2.770   1.960  11.558 -0.4532  0.0034 -0.7306
 6788TIP3    H141779   2.719   1.899  11.504  0.5016 -0.1310 -1.5190
 6788TIP3    H241780   2.770   2.042  11.508  2.3398 -0.7492 -2.1700
 6789TIP3   OH241781   3.056   4.695   3.418 -0.1191  0.1479  0.1035
 6789TIP3    H141782   3.039   4.738   3.334 -0.2679 -0.8182 -0.3825
 6789TIP3    H241783   2.985   4.630   3.426 -0.1592  0.2944  1.0242
 6790TIP3   OH241784   1.906   4.344  15.467  0.2636 -0.7339 -0.3370
 6790TIP3    H141785   1.840   4.383  15.524 -0.4103 -1.4793 -0.5903
 6790TIP3    H241786   1.870   4.259  15.444  0.8488 -0.7221 -1.3210
 6791TIP3   OH241787   1.747   1.166   4.611  0.1536 -0.5639 -0.5957
 6791TIP3    H141788   1.760   1.159   4.706  0.2471  1.5237 -0.4020
 6791TIP3    H241789   1.751   1.076   4.580  0.1975 -1.3024  1.3703
 6792TIP3   OH241790   1.557   1.519  15.942  0.1463  0.1899  0.1600
 6792TIP3    H141791   1.488   1.576  15.909  0.2553 -0.4403 -1.2474
 6792TIP3    H241792   1.622   1.517  15.871  1.6127  0.7522  1.4285
 6793TIP3   OH241793   4.685   2.945   4.919 -0.0732  0.1796  0.7486
 6793TIP3    H141794   4.673   2.850   4.926 -1.3960  0.2554 -0.1524
 6793TIP3    H241795   4.756   2.965   4.980 -1.2696 -1.0676  2.6375
 6794TIP3   OH241796   3.341   0.642  15.810  0.7901  0.2398 -0.1336
 6794TIP3    H141797   3.285   0.564  15.818 -0.1384  0.8021 -0.9191
 6794TIP3    H241798   3.279   0.715  15.805  1.4908  0.7721 -2.5492
 6795TIP3   OH241799   1.570   6.554   3.254  0.7180  0.2471  0.0297
 6795TIP3    H141800   1.519   6.619   3.303  0.6519 -1.2776  2.1062
 6795TIP3    H241801   1.660   6.586   3.258  0.6145  0.4708  0.5953
 6796TIP3   OH241802   0.213   5.067   2.350 -0.1937  0.3159  0.9930
 6796TIP3    H141803   0.262   4.986   2.333  0.5246  0.8751  0.3526
 6796TIP3    H241804   0.185   5.059   2.441  0.7758 -0.1934  1.2637
 6797TIP3   OH241805   6.067   0.788  15.753  0.1554 -0.0492 -0.2305
 6797TIP3    H141806   6.024   0.709  15.722 -0.2097 -0.4467  1.2280
 6797TIP3    H241807   6.068   0.780  15.848  2.3853  0.5239 -0.1577
 6798TIP3   OH241808   0.379   3.985   5.913  0.5998 -0.0917 -0.1685
 6798TIP3    H141809   0.414   4.033   5.838  0.7147 -3.1650 -2.2507
 6798TIP3    H241810   0.455   3.966   5.967  0.8411  0.2855 -0.3697
 6799TIP3   OH241811   5.805   2.460   1.853 -0.1566 -0.4305 -0.1787
 6799TIP3    H141812   5.835   2.409   1.777 -1.8014 -1.3874 -0.2542
 6799TIP3    H241813   5.833   2.409   1.929  0.2261 -0.2321 -0.1870
 6800TIP3   OH241814   5.194   5.474   3.803 -0.3691  0.1329  0.0468
 6800TIP3    H141815   5.279   5.478   3.848 -0.4795 -1.9179  0.5550
 6800TIP3    H241816   5.135   5.433   3.867 -0.7527 -2.0582 -1.5927
 6801TIP3   OH241817   3.372   6.612  13.746  0.1359  0.3160 -0.2908
 6801TIP3    H141818   3.440   6.559  13.704 -0.9446 -2.0150  0.6990
 6801TIP3    H241819   3.289   6.576  13.714 -0.6769  0.2579  1.6916
 6802TIP3   OH241820   2.721   3.945  12.970 -0.3357  0.6443  0.0301
 6802TIP3    H141821   2.684   4.032  12.984 -0.1052  0.6130  0.8618
 6802TIP3    H241822   2.654   3.884  13.001 -0.2001  0.5460  0.1303
 6803TIP3   OH241823   4.995   4.625   3.657  0.6119 -0.1976  0.6838
 6803TIP3    H141824   4.957   4.637   3.571  1.1356  1.5572  0.6577
 6803TIP3    H241825   5.030   4.535   3.656 -0.8786 -0.7950 -0.2930
 6804TIP3   OH241826   3.900   2.064   1.266  0.2676  0.2414 -0.0420
 6804TIP3    H141827   3.917   1.998   1.198 -0.4219 -0.1255  0.1273
 6804TIP3    H241828   3.984   2.108   1.278 -0.0020  1.6004 -2.4804
 6805TIP3   OH241829   6.670   3.604  12.102  0.4273  0.4377 -0.0813
 6805TIP3    H141830   6.616   3.563  12.034  1.2723 -0.4351 -0.2476
 6805TIP3    H241831   6.754   3.622  12.059  0.5881  0.9341  0.4208
 6806TIP3   OH241832   2.335   0.684  10.851 -0.2225 -0.4220  0.0465
 6806TIP3    H141833   2.368   0.610  10.902  2.2897 -0.4630 -1.4752
 6806TIP3    H241834   2.389   0.758  10.879 -0.7467  0.1770 -0.4963
 6807TIP3   OH241835   6.488   5.038   0.356 -0.5307  0.4438  0.4684
 6807TIP3    H141836   6.400   5.074   0.361 -0.2816  1.3228 -0.8059
 6807TIP3    H241837   6.544   5.115   0.348  0.0839 -0.1628 -1.7392
 6808TIP3   OH241838   6.690   6.305  16.870 -0.2895 -0.1249  0.4523
 6808TIP3    H141839   6.668   6.306  16.964 -0.2724 -0.9936  0.4796
 6808TIP3    H241840   6.608   6.328  16.826 -1.5362 -3.7809  0.5281
 6809TIP3   OH241841   6.303   4.699   3.020  0.0443 -0.6110  0.2923
 6809TIP3    H141842   6.350   4.627   2.976  1.9220  0.0314  1.1132
 6809TIP3    H241843   6.365   4.772   3.018 -0.8382  0.2104  1.7205
 6810TIP3   OH241844   0.614   0.469   5.917 -0.2633  0.7153  0.1417
 6810TIP3    H141845   0.601   0.490   6.009 -2.0517  1.1681 -0.1731
 6810TIP3    H241846   0.530   0.490   5.876  0.6668  1.0365 -1.6882
 6811TIP3   OH241847   2.682   5.544  15.062  0.4729 -0.1872  0.0452
 6811TIP3    H141848   2.732   5.617  15.027  0.1484 -0.0329 -0.1055
 6811TIP3    H241849   2.687   5.477  14.993  0.1689 -0.0353 -0.1238
 6812TIP3   OH241850   4.939   3.680   6.243  0.8743  0.5065  0.0681
 6812TIP3    H141851   4.886   3.637   6.176  0.6221  0.8706  0.0316
 6812TIP3    H241852   5.030   3.668   6.215  0.7301  2.1838 -1.2851
 6813TIP3   OH241853   4.315   0.416   2.535  0.0144  0.4386  0.0337
 6813TIP3    H141854   4.297   0.424   2.442 -1.4025  2.5143  0.4210
 6813TIP3    H241855   4.369   0.492   2.556 -1.4277  1.1967  1.2325
 6814TIP3   OH241856   2.570   6.000  12.373  0.5254 -0.2443  0.2550
 6814TIP3    H141857   2.600   6.088  12.394  0.1967  0.3683 -1.7217
 6814TIP3    H241858   2.583   5.951  12.455  0.4583  1.6732  1.4817
 6815TIP3   OH241859   0.055   2.539  16.080 -0.7185  0.1152 -0.5140
 6815TIP3    H141860   0.046   2.545  16.175  1.0007 -2.2242 -0.1127
 6815TIP3    H241861  -0.028   2.501  16.051 -0.7057 -0.5319  0.2579
 6816TIP3   OH241862   5.227   0.608   4.408  0.3157 -0.1163 -0.2580
 6816TIP3    H141863   5.203   0.557   4.485  0.2733  2.2375  1.3825
 6816TIP3    H241864   5.321   0.620   4.414  0.6436 -1.5047 -1.6857
 6817TIP3   OH241865   2.259   4.270  11.996  0.4181  0.7847 -0.6972
 6817TIP3    H141866   2.303   4.345  12.037  1.2246  0.9168 -1.7798
 6817TIP3    H241867   2.174   4.265  12.041  0.4230  2.2324 -0.4808
 6818TIP3   OH241868   6.579   4.282  11.298  0.0135 -0.2144 -0.4181
 6818TIP3    H141869   6.635   4.234  11.237  0.7607 -0.7502  0.6659
 6818TIP3    H241870   6.490   4.250  11.279  0.3734 -1.2070 -0.4784
 6819TIP3   OH241871   5.602   1.400  14.785 -0.1277  0.2426  0.1390
 6819TIP3    H141872   5.638   1.485  14.757  0.4017  0.2866  0.9215
 6819TIP3    H241873   5.645   1.383  14.868  0.6162 -1.3382 -0.5368
 6820TIP3   OH241874   3.020   6.112  16.446 -0.0175  0.1678  0.1532
 6820TIP3    H141875   3.006   6.176  16.376  1.1833 -0.7852 -1.0187
 6820TIP3    H241876   2.952   6.046  16.433  0.0582  0.1147  0.0239
 6821TIP3   OH241877   3.203   6.178   1.009  0.3535 -0.1997  0.3318
 6821TIP3    H141878   3.224   6.223   0.927  0.6038  0.1207  0.5689
 6821TIP3    H241879   3.205   6.247   1.075 -2.6723  0.1353  0.2223
 6822TIP3   OH241880   1.991   5.510  11.951 -0.4674  0.2725 -0.3131
 6822TIP3    H141881   1.901   5.501  11.919 -0.3476  0.9045 -0.8660
 6822TIP3    H241882   2.045   5.499  11.872 -0.1405  1.3315 -0.2638
 6823TIP3   OH241883   1.418   3.461   2.953 -0.4298  0.1460  0.3588
 6823TIP3    H141884   1.483   3.403   2.992 -2.1971 -0.7470  2.1148
 6823TIP3    H241885   1.452   3.549   2.969  0.3719 -0.3068  1.1874
 6824TIP3   OH241886   5.829   4.764   1.062 -0.1566  0.2065  0.0893
 6824TIP3    H141887   5.912   4.731   1.027 -0.3043 -1.1274  0.9065
 6824TIP3    H241888   5.800   4.828   0.998  0.2944 -1.0664 -1.4814
 6825TIP3   OH241889   5.263   1.468   1.078  0.2873 -0.5799  0.5249
 6825TIP3    H141890   5.199   1.401   1.103  0.8805 -2.1417 -1.7852
 6825TIP3    H241891   5.228   1.505   0.998  1.4943 -0.3418  0.0911
 6826TIP3   OH241892   4.159   0.396   2.320  0.3106  0.2218 -0.0008
 6826TIP3    H141893   4.077   0.423   2.363 -0.6620 -0.3410 -1.4451
 6826TIP3    H241894   4.140   0.310   2.284  1.8109 -0.2561  0.2816
 6827TIP3   OH241895   4.513   1.714   2.001 -0.7523  0.5964 -0.3195
 6827TIP3    H141896   4.528   1.698   2.094 -0.7808 -0.9619 -0.5481
 6827TIP3    H241897   4.455   1.789   1.998 -0.9974  0.4781  0.9298
 6828TIP3   OH241898   1.593   0.834   3.653  0.7942  0.0407 -0.2845
 6828TIP3    H141899   1.670   0.824   3.596  0.9806 -0.4358  0.0439
 6828TIP3    H241900   1.629   0.861   3.737  0.4486  1.5501 -0.6028
 6829TIP3   OH241901   4.547   4.215   6.743  0.3177  0.1238 -0.0937
 6829TIP3    H141902   4.628   4.259   6.770  0.9380 -0.4141 -0.9836
 6829TIP3    H241903   4.514   4.268   6.670  0.7447 -0.5288 -0.7766
 6830TIP3   OH241904   2.356   6.096   6.050  0.7228  0.4779 -0.0601
 6830TIP3    H141905   2.374   6.115   6.142  0.1412 -0.3803  0.2329
 6830TIP3    H241906   2.262   6.112   6.040  0.7892  0.6017 -0.5158
 6831TIP3   OH241907   5.025   4.828  15.675 -0.4921 -0.5820  0.8363
 6831TIP3    H141908   5.107   4.803  15.718 -0.3919 -1.9031 -0.0626
 6831TIP3    H241909   5.053   4.867  15.592 -0.7352  0.5778  1.2775
 6832TIP3   OH241910   3.642   2.189  11.815 -0.2023 -0.4646 -0.2713
 6832TIP3    H141911   3.662   2.246  11.740  0.3080 -3.6267 -2.7776
 6832TIP3    H241912   3.547   2.180  11.814 -0.1162 -1.5375 -1.4833
 6833TIP3   OH241913   2.257   2.375   3.766  0.7545 -0.0000 -0.5616
 6833TIP3    H141914   2.224   2.310   3.703 -2.0588  0.5117  0.2250
 6833TIP3    H241915   2.277   2.324   3.844 -1.1831 -0.0357 -0.0383
 6834TIP3   OH241916   3.047   5.435  15.288  0.1600  0.0239  0.0883
 6834TIP3    H141917   3.108   5.362  15.279  0.1656  0.0742 -0.2791
 6834TIP3    H241918   3.070   5.475  15.372 -0.7181 -1.2202  0.9667
 6835TIP3   OH241919   4.803   3.500   2.787  0.2243  0.1258 -0.1160
 6835TIP3    H141920   4.870   3.479   2.722 -1.2150  0.1611 -1.6903
 6835TIP3    H241921   4.813   3.594   2.802 -0.7963  0.5860 -1.9966
 6836TIP3   OH241922   3.495   3.945  16.260  0.5296 -0.2500 -0.1025
 6836TIP3    H141923   3.509   3.870  16.319  1.0687 -0.2688 -0.2524
 6836TIP3    H241924   3.582   3.964  16.225  0.3873  0.4342 -0.0857
 6837TIP3   OH241925   5.435   2.113  14.317  0.3404 -0.1277 -0.2147
 6837TIP3    H141926   5.360   2.151  14.272  0.3026 -1.5838 -1.4443
 6837TIP3    H241927   5.508   2.171  14.293 -0.4301  1.7380  1.5955
 6838TIP3   OH241928   2.831   3.630  16.615  0.2123  0.3241  0.2103
 6838TIP3    H141929   2.843   3.681  16.695 -0.2043 -1.4522  1.4693
 6838TIP3    H241930   2.736   3.619  16.608  0.2776  0.0218 -0.2315
 6839TIP3   OH241931   4.302   0.034   3.298 -0.5002 -0.2332 -0.1642
 6839TIP3    H141932   4.382   0.010   3.252 -0.2657  1.6918 -0.8148
 6839TIP3    H241933   4.311  -0.008   3.384  0.6323 -1.0273 -0.6477
 6840TIP3   OH241934   6.445   5.644   4.363  0.2046  0.2881  0.4959
 6840TIP3    H141935   6.522   5.594   4.335 -0.5830 -2.4670  2.6942
 6840TIP3    H241936   6.428   5.705   4.291  1.9792 -1.8573 -1.9407
 6841TIP3   OH241937   3.102   4.120   0.150  0.0316 -0.6819 -0.2768
 6841TIP3    H141938   3.171   4.105   0.213 -0.7785 -1.2879  0.4874
 6841TIP3    H241939   3.147   4.134   0.067  1.1135  0.1852  0.4287
 6842TIP3   OH241940   1.360   1.283  10.345 -0.0137  0.3624  0.0133
 6842TIP3    H141941   1.346   1.376  10.363  0.6719  0.2365  1.2947
 6842TIP3    H241942   1.305   1.238  10.408  1.4913 -0.0893  1.0605
 6843TIP3   OH241943   2.171   0.835   6.230  0.4487 -0.3963 -0.4730
 6843TIP3    H141944   2.183   0.899   6.300  2.4663 -0.4975 -0.6552
 6843TIP3    H241945   2.166   0.751   6.275  0.7557 -0.3696 -0.3852
 6844TIP3   OH241946   0.241   0.363  15.341 -0.1554 -0.8195  0.4190
 6844TIP3    H141947   0.146   0.350  15.333 -0.2774  0.0790  0.3481
 6844TIP3    H241948   0.252   0.458  15.349  0.7242 -0.9320  0.6602
 6845TIP3   OH241949   4.284   2.448  11.940  0.1637  0.7167  0.1487
 6845TIP3    H141950   4.289   2.534  11.898 -1.1288  0.8760  0.3007
 6845TIP3    H241951   4.318   2.463  12.029  0.1400  1.0228  0.1073
 6846TIP3   OH241952   5.309   3.819   0.821 -0.2382  0.1668  0.5140
 6846TIP3    H141953   5.223   3.814   0.778  0.0221  1.5878 -0.2333
 6846TIP3    H241954   5.298   3.887   0.887  0.5136  0.9439 -0.1307
 6847TIP3   OH241955   5.923   1.587   0.038 -0.3082  0.2563 -0.2734
 6847TIP3    H141956   6.003   1.541   0.065 -0.9364 -0.1135  1.0348
 6847TIP3    H241957   5.922   1.578  -0.057  1.1195  0.1357 -0.3121
 6848TIP3   OH241958   3.356   0.276   1.394 -0.7607  0.0818  0.4192
 6848TIP3    H141959   3.323   0.366   1.389  0.2248  0.5027  1.0612
 6848TIP3    H241960   3.293   0.229   1.448 -1.9685  0.0330 -0.9604
 6849TIP3   OH241961   3.454   1.498  15.083  0.1415  0.1674  0.0087
 6849TIP3    H141962   3.517   1.547  15.136  0.3350  1.6922 -1.5409
 6849TIP3    H241963   3.508   1.439  15.030  0.1361  0.2746 -0.1164
 6850TIP3   OH241964   1.567   1.248  13.370 -0.5356  0.2394  1.1711
 6850TIP3    H141965   1.600   1.200  13.293  0.6814 -1.3259  2.6020
 6850TIP3    H241966   1.487   1.202  13.395 -0.5789  0.3523  1.2409
 6851TIP3   OH241967   0.812   4.831   1.357  0.2988  0.1832 -0.2270
 6851TIP3    H141968   0.856   4.891   1.417 -0.6273  1.1384 -0.4609
 6851TIP3    H241969   0.753   4.780   1.412 -0.2316  0.7596 -0.2421
 6852TIP3   OH241970   6.109   5.860  16.886 -0.2947 -0.3452  0.1857
 6852TIP3    H141971   6.199   5.884  16.907 -0.3115  0.5987 -0.7482
 6852TIP3    H241972   6.074   5.935  16.838 -0.5203 -2.0020 -2.4598
 6853TIP3   OH241973   5.420   2.002   1.701 -0.2381 -0.3933  0.8019
 6853TIP3    H141974   5.419   1.980   1.608 -1.1680  0.1557  0.6662
 6853TIP3    H241975   5.501   1.964   1.734 -0.1946 -1.1252 -0.1018
 6854TIP3   OH241976   6.460   6.489   5.569  0.0480  0.2352  0.2075
 6854TIP3    H141977   6.397   6.420   5.551 -1.5674  1.6755  0.0321
 6854TIP3    H241978   6.527   6.480   5.501 -1.8390  0.7945 -1.8089
 6855TIP3   OH241979   5.283   6.396  16.148 -0.6135 -0.7887  0.2250
 6855TIP3    H141980   5.306   6.376  16.057 -1.0675 -0.4956  0.0428
 6855TIP3    H241981   5.332   6.331  16.200  0.8536 -0.0159 -0.1142
 6856TIP3   OH241982   5.519   3.444   2.857  0.3525  0.1457  0.6702
 6856TIP3    H141983   5.559   3.502   2.792 -0.6286  0.7846  0.6178
 6856TIP3    H241984   5.453   3.394   2.809  0.3221 -0.1149  0.9711
 6857TIP3   OH241985   5.407   2.841   2.907  0.0486  0.1988  0.2075
 6857TIP3    H141986   5.443   2.860   2.821  1.5740 -3.4242 -0.1339
 6857TIP3    H241987   5.403   2.745   2.911 -1.4436  0.2506  3.6006
 6858TIP3   OH241988   1.864   3.993   5.566  0.1345 -0.4809  0.3999
 6858TIP3    H141989   1.841   3.981   5.659  0.9859  0.3122  0.7210
 6858TIP3    H241990   1.812   3.927   5.521 -0.8633 -0.3952  1.3631
 6859TIP3   OH241991   4.053   2.332  15.918  0.3930  0.1393 -0.2368
 6859TIP3    H141992   4.114   2.299  15.851 -0.3500 -1.1873 -0.2920
 6859TIP3    H241993   4.048   2.261  15.982 -1.8164 -0.2116 -0.7120
 6860TIP3   OH241994   1.976   4.896   5.962  0.4114 -0.9315 -0.2384
 6860TIP3    H141995   2.044   4.839   5.926  1.0651  0.2929 -1.0033
 6860TIP3    H241996   2.012   4.984   5.954 -1.0917 -0.2986 -0.2532
 6861TIP3   OH241997   6.334   6.455   3.686 -0.2474 -0.0757  0.1772
 6861TIP3    H141998   6.395   6.383   3.701  0.5342  0.6654  0.6141
 6861TIP3    H241999   6.247   6.414   3.694  0.1655 -0.7480  1.5962
 6862TIP3   OH242000   4.162   3.121   1.954  0.0266  0.1439  0.1404
 6862TIP3    H142001   4.110   3.092   2.029 -0.9465  1.5424  0.0424
 6862TIP3    H242002   4.206   3.042   1.923  0.6291 -0.4407  2.2983
 6863TIP3   OH242003   6.461   5.761   1.158  0.0803  0.2511 -0.3521
 6863TIP3    H142004   6.457   5.718   1.244  2.1610  0.3630 -0.1593
 6863TIP3    H242005   6.516   5.704   1.105 -0.0282  0.9064 -1.1828
 6864TIP3   OH242006   0.144   0.368  10.738 -0.1700 -0.2604  0.2490
 6864TIP3    H142007   0.107   0.282  10.719  1.1899 -1.0010  0.7366
 6864TIP3    H242008   0.236   0.350  10.761  0.8819  1.5705 -2.0809
 6865TIP3   OH242009   0.110   3.684   5.205 -0.0218 -0.2341 -0.8508
 6865TIP3    H142010   0.167   3.608   5.218 -1.0787 -1.2225 -1.8588
 6865TIP3    H242011   0.112   3.700   5.111  0.4536  1.2228 -0.6123
 6866TIP3   OH242012   3.228   6.653   2.075 -0.2880 -0.7789 -0.4772
 6866TIP3    H142013   3.298   6.612   2.023  1.0593  1.4315 -0.5439
 6866TIP3    H242014   3.247   6.627   2.165  1.6540  1.0383 -0.2839
 6867TIP3   OH242015   3.313   3.669   0.794  0.0257  0.4589 -0.4050
 6867TIP3    H142016   3.398   3.627   0.809 -0.7030 -0.6452  0.8132
 6867TIP3    H242017   3.312   3.687   0.700  0.8998 -1.1009 -0.7466
 6868TIP3   OH242018   3.540   3.820  11.468  0.0644  0.8702 -0.0235
 6868TIP3    H142019   3.463   3.767  11.489 -0.3060  0.4205 -2.2597
 6868TIP3    H242020   3.528   3.900  11.518  0.2072 -0.7419  2.7931
 6869TIP3   OH242021   2.786   1.058   5.578 -0.3549  0.2049  0.1446
 6869TIP3    H142022   2.723   0.995   5.613 -0.6990  1.1236  1.2318
 6869TIP3    H242023   2.742   1.143   5.585  0.9424  0.8614  0.8320
 6870TIP3   OH242024   5.885   3.466  13.666 -0.0253 -0.0482 -1.0897
 6870TIP3    H142025   5.794   3.492  13.681 -0.2189 -1.2364  0.0861
 6870TIP3    H242026   5.925   3.541  13.622 -0.8681  1.6306  0.8357
 6871TIP3   OH242027   3.293   1.178  15.156  0.0998 -0.2457  0.0053
 6871TIP3    H142028   3.200   1.181  15.178  0.6150  1.7811  2.3029
 6871TIP3    H242029   3.299   1.218  15.069 -1.2478 -1.4996 -0.6976
 6872TIP3   OH242030   5.089   5.636  11.553  0.5382 -0.1702 -0.1644
 6872TIP3    H142031   5.038   5.649  11.633  0.2928  0.2262 -0.3825
 6872TIP3    H242032   5.023   5.612  11.487  0.7674 -0.7309 -0.1932
 6873TIP3   OH242033   6.743   1.540   5.348 -0.2662 -0.5008  0.1621
 6873TIP3    H142034   6.722   1.612   5.408 -2.5520 -0.7977 -0.2008
 6873TIP3    H242035   6.756   1.583   5.263  1.1084 -0.2817  0.4515
 6874TIP3   OH242036   2.915   5.896   0.409  0.1876  0.1585 -0.3572
 6874TIP3    H142037   2.981   5.852   0.356  0.8775  1.6794 -0.8398
 6874TIP3    H242038   2.955   5.980   0.432 -1.6620  1.2722 -0.9236
 6875TIP3   OH242039   1.517   0.857   5.526  0.1471 -0.1683  0.3454
 6875TIP3    H142040   1.477   0.797   5.589  0.2185 -0.4894  0.0870
 6875TIP3    H242041   1.518   0.942   5.571 -1.8554  0.1175 -0.0338
 6876TIP3   OH242042   2.529   1.283   0.140 -0.2559 -0.2345  0.3223
 6876TIP3    H142043   2.528   1.275   0.044 -0.4439 -0.2238  0.3251
 6876TIP3    H242044   2.620   1.265   0.164 -0.7191 -2.8892  0.3559
 6877TIP3   OH242045   0.969   1.923   5.571  0.7122 -0.3790 -0.0839
 6877TIP3    H142046   1.051   1.950   5.529  1.0389  0.2285  0.9242
 6877TIP3    H242047   0.923   2.005   5.589 -0.1557 -0.7161 -0.6872
 6878TIP3   OH242048   1.614   4.230  12.242 -0.4548 -0.6237  0.0960
 6878TIP3    H142049   1.553   4.278  12.186  1.0662 -0.3598 -1.4091
 6878TIP3    H242050   1.606   4.139  12.214 -0.6531 -0.6927  0.3754
 6879TIP3   OH242051   6.415   3.639  14.727 -0.1819 -0.5266 -0.2350
 6879TIP3    H142052   6.394   3.567  14.785 -1.0088  1.8455  2.6362
 6879TIP3    H242053   6.388   3.609  14.640  0.0268 -3.7910  0.7152
 6880TIP3   OH242054   5.170   6.363   1.336 -0.5368 -0.3686 -0.1090
 6880TIP3    H142055   5.199   6.452   1.317 -1.7498  0.5358  1.9280
 6880TIP3    H242056   5.165   6.321   1.250  0.0346  1.5136 -1.1352
 6881TIP3   OH242057   2.099   2.461   2.212 -0.2370  0.4880 -0.0836
 6881TIP3    H142058   2.073   2.550   2.188 -2.0059 -0.0298 -0.1927
 6881TIP3    H242059   2.160   2.473   2.285  0.3394  1.8098 -0.7375
 6882TIP3   OH242060   5.490   5.900  15.067 -0.2223  0.2753 -0.0782
 6882TIP3    H142061   5.448   5.983  15.047  1.7598  1.4521  0.3900
 6882TIP3    H242062   5.530   5.873  14.984  0.3687  0.5473  0.1146
 6883TIP3   OH242063   1.952   5.785  15.769  0.1583 -0.1542 -0.2570
 6883TIP3    H142064   1.960   5.785  15.673 -1.0401  0.9881 -0.3896
 6883TIP3    H242065   1.859   5.801  15.785  0.2426 -0.9109  1.1098
 6884TIP3   OH242066   5.628   0.329  13.328  0.3314 -0.6229 -0.1936
 6884TIP3    H142067   5.634   0.244  13.372 -2.5164 -1.3618 -1.0436
 6884TIP3    H242068   5.615   0.392  13.399  0.4134 -1.1590  0.3083
 6885TIP3   OH242069   1.297   3.196  14.708  0.3739 -0.0895  0.1945
 6885TIP3    H142070   1.351   3.117  14.709 -0.1633 -0.4567  1.4064
 6885TIP3    H242071   1.220   3.170  14.657  0.8442  0.1062 -0.6280
 6886TIP3   OH242072   1.064   0.622   0.318 -0.5880 -0.7504 -0.1356
 6886TIP3    H142073   1.073   0.688   0.387  0.6071 -1.1600  0.1096
 6886TIP3    H242074   1.018   0.550   0.361 -0.8443 -0.5561 -0.0797
 6887TIP3   OH242075   6.669   3.150   6.593 -1.0854  0.0715  0.5222
 6887TIP3    H142076   6.747   3.130   6.543 -1.1991 -0.4070  0.5301
 6887TIP3    H242077   6.650   3.069   6.642 -1.0603  0.4746  1.2192
 6888TIP3   OH242078   0.922   3.004   5.011 -0.1608 -0.3027  0.3356
 6888TIP3    H142079   0.966   3.055   4.944 -1.2588 -0.3078 -0.4114
 6888TIP3    H242080   0.902   2.920   4.969 -1.6013  0.0005  0.3905
 6889TIP3   OH242081   5.482   2.973  11.531 -0.1452 -0.3731 -0.2445
 6889TIP3    H142082   5.533   3.053  11.522 -1.6644  0.5523 -1.0820
 6889TIP3    H242083   5.463   2.947  11.440 -1.3900 -0.5036  0.0327
 6890TIP3   OH242084   1.398   6.466   0.957 -0.3178 -0.0935 -0.6368
 6890TIP3    H142085   1.432   6.527   1.023 -0.1754  0.7550 -1.4701
 6890TIP3    H242086   1.432   6.381   0.983 -0.4118  0.2044  0.4867
 6891TIP3   OH242087   1.949   6.418   0.159  0.1006  0.0954 -0.1916
 6891TIP3    H142088   1.880   6.481   0.142 -1.0296 -1.0590 -0.0762
 6891TIP3    H242089   1.979   6.437   0.248 -1.1129 -0.3155  0.3228
 6892TIP3   OH242090   0.842   3.811  13.593 -0.1780  0.1521 -0.0481
 6892TIP3    H142091   0.774   3.860  13.639 -0.5430 -1.9956  1.8732
 6892TIP3    H242092   0.800   3.729  13.568  0.9422 -0.0447 -1.4054
 6893TIP3   OH242093   6.006   1.021  14.946 -0.2714  0.2317 -0.1317
 6893TIP3    H142094   6.067   1.022  14.872  2.3574  1.2416  1.8955
 6893TIP3    H242095   5.986   1.113  14.962 -1.3388 -0.0226  0.0196
 6894TIP3   OH242096   0.284   2.944   2.132 -0.2619  0.4156  0.3794
 6894TIP3    H142097   0.273   2.933   2.226  0.1240 -0.9591  0.2828
 6894TIP3    H242098   0.197   2.970   2.101 -0.5355  0.3052  1.0360
 6895TIP3   OH242099   0.406   3.502   2.285 -0.2605 -0.1707  0.1600
 6895TIP3    H142100   0.432   3.415   2.256  0.1067 -0.1639  0.4587
 6895TIP3    H242101   0.312   3.497   2.296 -0.1547 -0.7497  0.8926
 6896TIP3   OH242102   3.172   5.924  16.644  0.0861  0.3482  0.3293
 6896TIP3    H142103   3.133   5.862  16.582 -1.3430  1.2587  0.2535
 6896TIP3    H242104   3.202   5.997  16.590 -0.1708  0.6579  0.5990
 6897TIP3   OH242105   6.729   2.607   2.767 -0.5265 -0.5074  0.3597
 6897TIP3    H142106   6.646   2.591   2.811 -0.7917 -1.2894 -0.3871
 6897TIP3    H242107   6.780   2.528   2.783 -0.0257 -0.1333  0.6024
 6898TIP3   OH242108   1.477   5.012   4.771  0.1474 -0.5044 -0.1300
 6898TIP3    H142109   1.466   5.094   4.818 -1.5003 -0.5214 -0.4164
 6898TIP3    H242110   1.516   5.036   4.687  1.4079 -0.2604  0.5062
 6899TIP3   OH242111   1.070   0.262   6.218  0.0573  0.8351  0.3685
 6899TIP3    H142112   1.039   0.288   6.131 -1.4915  3.6332  1.6303
 6899TIP3    H242113   1.162   0.288   6.219 -0.2031  1.8165 -0.0720
 6900TIP3   OH242114   0.575   3.613  15.739  0.3937 -0.4838  0.0957
 6900TIP3    H142115   0.509   3.560  15.695 -1.3376  2.3857 -1.0266
 6900TIP3    H242116   0.530   3.649  15.816  0.6995  1.2261 -0.4787
 6901TIP3   OH242117   3.158   5.515   3.012  0.3869  0.3221 -0.4073
 6901TIP3    H142118   3.125   5.556   3.092 -0.4793  0.2837 -0.7338
 6901TIP3    H242119   3.137   5.422   3.022  1.2352  0.1408 -0.2173
 6902TIP3   OH242120   2.314   5.956  16.610  0.1004  0.1031  0.7370
 6902TIP3    H142121   2.225   5.929  16.586 -0.7343  2.1187  1.3317
 6902TIP3    H242122   2.306   6.049  16.633  2.8231  1.0572 -1.5705
 6903TIP3   OH242123   5.831   0.793   0.278 -0.4094  0.0580 -0.0136
 6903TIP3    H142124   5.871   0.725   0.223 -0.3740 -0.2378  0.3781
 6903TIP3    H242125   5.740   0.764   0.289 -0.3601  0.0100  0.2586
 6904TIP3   OH242126   3.243   3.034   1.696 -0.0949 -0.1193 -0.1211
 6904TIP3    H142127   3.156   2.993   1.696 -0.1310 -0.1897 -2.7205
 6904TIP3    H242128   3.240   3.096   1.624  2.1294 -0.3886 -0.5123
 6905TIP3   OH242129   4.267   3.809  14.229 -0.1907  0.2672 -0.1656
 6905TIP3    H142130   4.345   3.843  14.274 -0.3732  0.1760  0.2187
 6905TIP3    H242131   4.262   3.861  14.149 -0.4379  1.1160  0.3895
 6906TIP3   OH242132   0.006   5.152  14.892 -0.1457  0.5355 -0.0707
 6906TIP3    H142133   0.014   5.103  14.811 -1.1292  0.2606 -0.0162
 6906TIP3    H242134   0.094   5.151  14.930  0.5954  1.5860 -1.6399
 6907TIP3   OH242135   2.940   0.376   0.558  0.3213 -0.3976  0.2854
 6907TIP3    H142136   2.977   0.295   0.523 -0.4924 -0.2710 -0.9295
 6907TIP3    H242137   2.865   0.348   0.611 -1.0159 -0.3832 -1.5248
 6908TIP3   OH242138   0.053   5.347   3.446 -0.7379 -0.2702  0.1327
 6908TIP3    H142139   0.053   5.253   3.468  0.6630  0.3840  3.7335
 6908TIP3    H242140   0.137   5.362   3.403 -0.2176 -0.4463  1.0556
 6909TIP3   OH242141   2.153   5.836   2.978 -0.3156  0.3180 -0.2040
 6909TIP3    H142142   2.149   5.879   3.063 -2.9298 -0.8845  0.4028
 6909TIP3    H242143   2.076   5.869   2.931 -0.5606 -1.2028 -0.9425
 6910TIP3   OH242144   0.972   3.746  12.397 -0.6826  0.1504 -0.5380
 6910TIP3    H142145   1.033   3.796  12.452  1.0657 -1.4826 -0.9158
 6910TIP3    H242146   0.899   3.725  12.456 -0.2404  0.9553  0.3265
 6911TIP3   OH242147   0.100   1.149   2.523 -0.2766  0.1110  0.2875
 6911TIP3    H142148   0.130   1.087   2.456  0.1365 -0.0703  0.6349
 6911TIP3    H242149   0.109   1.102   2.606  0.8354  0.8951  0.6490
 6912TIP3   OH242150   2.480   1.207  16.633 -0.5066 -0.1636 -0.5726
 6912TIP3    H142151   2.415   1.268  16.599  0.1743  1.1722  0.4043
 6912TIP3    H242152   2.447   1.121  16.608 -1.6736  0.5646 -1.7194
 6913TIP3   OH242153   0.804   3.732  11.220  0.2217  0.3318 -1.0002
 6913TIP3    H142154   0.841   3.797  11.279 -1.4567 -1.0014  1.7329
 6913TIP3    H242155   0.880   3.689  11.181  1.6864 -1.0278  2.8945
 6914TIP3   OH242156   5.946   0.962   6.548  0.3569 -0.3544  0.2941
 6914TIP3    H142157   5.941   0.999   6.460  1.3697  0.6274  0.6124
 6914TIP3    H242158   5.880   1.009   6.598  0.2446 -0.4284  0.2139
 6915TIP3   OH242159   3.398   1.082  12.905 -0.1490  0.0316 -0.5096
 6915TIP3    H142160   3.478   1.071  12.955 -0.4280 -0.7463 -0.2116
 6915TIP3    H242161   3.387   0.999  12.859 -0.7690  0.1388 -0.5676
 6916TIP3   OH242162   1.833   0.060   1.530 -0.3344 -0.0965  0.3039
 6916TIP3    H142163   1.750   0.106   1.520 -0.0149  1.4560  3.4037
 6916TIP3    H242164   1.809  -0.031   1.546 -1.2147 -0.2518 -1.6138
 6917TIP3   OH242165   2.138   3.071  12.094 -0.2114  0.2305  0.6683
 6917TIP3    H142166   2.047   3.060  12.064  0.2398 -0.7433 -0.4152
 6917TIP3    H242167   2.189   3.016  12.035  0.8637 -0.7832  2.4657
 6918TIP3   OH242168   5.500   1.310  12.782 -0.2458  0.0595  0.5577
 6918TIP3    H142169   5.455   1.384  12.823 -0.1141  0.1864  0.4728
 6918TIP3    H242170   5.579   1.348  12.744 -0.8518  0.1139 -0.6781
 6919TIP3   OH242171   5.742   4.745   2.527  0.8054  0.5680  0.5534
 6919TIP3    H142172   5.793   4.820   2.493  0.2245  1.1149  0.8665
 6919TIP3    H242173   5.781   4.727   2.612  1.1605  0.3001  0.3349
 6920TIP3   OH242174   3.767   3.375   2.595  0.3118  0.2918  0.7436
 6920TIP3    H142175   3.692   3.429   2.568  0.3174 -0.4218 -0.8293
 6920TIP3    H242176   3.838   3.438   2.605 -0.1872  0.8302  0.9747
 6921TIP3   OH242177   2.684   4.484   2.093 -0.2000 -0.3426 -0.0856
 6921TIP3    H142178   2.709   4.451   2.006  0.0577  0.0867 -0.1788
 6921TIP3    H242179   2.650   4.407   2.139 -1.1410 -0.4050 -0.8531
 6922TIP3   OH242180   2.329   0.085  14.290 -0.7983  0.4719  0.1203
 6922TIP3    H142181   2.399   0.092  14.225  1.3333 -0.7266  2.1655
 6922TIP3    H242182   2.281   0.168  14.283  0.3907  1.0653 -1.7792
 6923TIP3   OH242183   4.307   6.661   3.527 -0.0960  0.5772  0.0674
 6923TIP3    H142184   4.376   6.612   3.573  0.1105 -0.8824 -1.6540
 6923TIP3    H242185   4.225   6.631   3.567  0.0618 -0.9014 -0.6479
 6924TIP3   OH242186   2.650   5.274   5.195  0.1473 -0.1404 -0.1884
 6924TIP3    H142187   2.600   5.277   5.114  2.4520 -2.0782 -1.8283
 6924TIP3    H242188   2.698   5.357   5.197 -2.5970  1.5360  1.1798
 6925TIP3   OH242189   4.186   3.530   5.292 -0.0108 -0.1672 -0.3122
 6925TIP3    H142190   4.244   3.545   5.367  0.7323 -0.5947 -0.7880
 6925TIP3    H242191   4.112   3.590   5.306  0.8953  0.9232 -0.0593
 6926TIP3   OH242192   1.270   0.320  12.284 -0.1017  0.4278 -0.6027
 6926TIP3    H142193   1.337   0.302  12.218  1.3770  0.5283  0.8161
 6926TIP3    H242194   1.291   0.261  12.356 -1.0469  1.0601  0.2156
 6927TIP3   OH242195   3.563   4.857  12.312 -0.0069 -0.3945 -0.3875
 6927TIP3    H142196   3.535   4.884  12.224 -0.3691 -2.6614 -1.0369
 6927TIP3    H242197   3.614   4.777  12.297  1.3964  0.1190  1.3503
 6928TIP3   OH242198   0.030   6.023  12.655  0.2673  0.1484  0.4283
 6928TIP3    H142199   0.003   6.045  12.567 -0.2426  1.8502  0.9739
 6928TIP3    H242200   0.079   6.100  12.685  1.2634 -0.7812  1.3043
 6929TIP3   OH242201   4.039   5.392  16.557 -0.0687  0.3044 -0.4715
 6929TIP3    H142202   4.014   5.409  16.648  0.1361  0.4099 -0.4333
 6929TIP3    H242203   4.106   5.323  16.563 -0.6328 -0.2663 -0.5972
 6930TIP3   OH242204   2.380   5.722  14.424 -0.4313 -0.1194 -0.3689
 6930TIP3    H142205   2.417   5.787  14.364 -1.3656 -0.4668 -1.3643
 6930TIP3    H242206   2.301   5.691  14.380 -0.8568 -0.7876  0.8146
 6931TIP3   OH242207   1.319   0.413  15.851 -0.1721  0.5104  0.4310
 6931TIP3    H142208   1.319   0.385  15.760  1.6145  1.8141 -0.0172
 6931TIP3    H242209   1.231   0.449  15.864 -0.3899  0.4906 -0.8304
 6932TIP3   OH242210   0.323   4.737  16.031  0.2315 -0.5090 -0.1271
 6932TIP3    H142211   0.381   4.755  16.105 -0.3837  0.2607  0.1842
 6932TIP3    H242212   0.235   4.741  16.068 -0.0408 -1.4534 -0.6348
 6933TIP3   OH242213   4.355   1.499  12.915 -0.4804 -0.0651 -0.8961
 6933TIP3    H142214   4.337   1.555  12.840 -0.1084 -1.0089 -1.7152
 6933TIP3    H242215   4.448   1.479  12.909 -0.2558  0.5040  0.3007
 6934TIP3   OH242216   3.406   2.050  12.551 -0.3238 -0.5653 -0.2311
 6934TIP3    H142217   3.331   1.996  12.526 -0.7103 -0.4363  0.6116
 6934TIP3    H242218   3.469   1.989  12.590 -0.4268 -0.5271 -0.0025
 6935TIP3   OH242219   5.207   4.422   6.265  0.0756  0.2262  0.2048
 6935TIP3    H142220   5.291   4.388   6.238 -0.3171 -0.4759 -0.1458
 6935TIP3    H242221   5.203   4.510   6.227  2.4519  2.1149  3.6890
 6936TIP3   OH242222   3.556   3.380  16.023  0.5855  0.2185  0.5809
 6936TIP3    H142223   3.629   3.434  16.055  0.6946 -0.2111  1.0870
 6936TIP3    H242224   3.488   3.391  16.090  1.0420 -1.1805  1.3197
 6937TIP3   OH242225   6.072   0.197  15.271  0.2501  0.1524 -0.2896
 6937TIP3    H142226   6.010   0.248  15.323  0.7266  0.7595 -0.3106
 6937TIP3    H242227   6.030   0.111  15.262 -1.9848  1.3752 -2.8272
 6938TIP3   OH242228   4.659   4.425  13.132 -0.2060  0.0127 -0.2867
 6938TIP3    H142229   4.744   4.396  13.165 -0.9274 -0.6176  1.1332
 6938TIP3    H242230   4.621   4.475  13.205 -1.3151 -0.2788 -0.6450
 6939TIP3   OH242231   6.300   0.579   3.106  0.6490 -0.4637 -0.8272
 6939TIP3    H142232   6.319   0.607   3.016  2.1745 -0.6087 -0.5824
 6939TIP3    H242233   6.338   0.647   3.161  1.1857 -1.1903 -0.2782
 6940TIP3   OH242234   6.237   0.407   4.716 -0.5161 -0.1493  0.1603
 6940TIP3    H142235   6.194   0.358   4.786 -0.6118 -0.4250 -0.0882
 6940TIP3    H242236   6.331   0.401   4.736 -0.4994 -0.8022 -0.1045
 6941TIP3   OH242237   1.896   3.661  16.330  0.3782  0.1980  0.1150
 6941TIP3    H142238   1.877   3.697  16.244  1.2192 -0.6418 -0.4459
 6941TIP3    H242239   1.839   3.584  16.336 -0.5159  0.8805  0.8059
 6942TIP3   OH242240   5.445   2.578  13.187 -0.1713  0.5305  0.0157
 6942TIP3    H142241   5.406   2.581  13.099  0.7964  0.0753 -0.4440
 6942TIP3    H242242   5.539   2.593  13.172  0.2616 -1.1819  0.7918
 6943TIP3   OH242243   2.338   2.800  14.320  0.2661  0.4387 -0.1345
 6943TIP3    H142244   2.322   2.809  14.226  0.1944 -0.3273 -0.2032
 6943TIP3    H242245   2.429   2.829  14.332  0.6638 -0.5273 -0.6321
 6944TIP3   OH242246   4.824   1.657  12.420 -0.0576  0.3387 -0.7506
 6944TIP3    H142247   4.785   1.622  12.340 -0.2719 -0.1777 -0.4285
 6944TIP3    H242248   4.894   1.715  12.390 -0.4388  0.5124 -1.3161
 6945TIP3   OH242249   5.503   6.119  12.832  0.1261  0.0185  0.2324
 6945TIP3    H142250   5.543   6.202  12.858 -0.4037  1.3872 -2.8785
 6945TIP3    H242251   5.576   6.064  12.806  0.3659  0.2480  0.4124
 6946TIP3   OH242252   0.606   3.583  17.083 -0.5334  0.3953  0.3068
 6946TIP3    H142253   0.549   3.546  17.150  0.0928 -1.8241 -0.3043
 6946TIP3    H242254   0.566   3.557  17.000  0.2990  0.5168 -0.1491
 6947TIP3   OH242255   3.188   2.873   5.777  0.3969 -0.8538 -0.1249
 6947TIP3    H142256   3.167   2.784   5.806  1.2483 -0.7373  0.9024
 6947TIP3    H242257   3.282   2.871   5.761  0.3232 -0.2860 -0.6452
 6948TIP3   OH242258   2.948   1.347   2.502  0.4009 -0.1521  0.1141
 6948TIP3    H142259   2.942   1.443   2.493 -0.3529 -0.2151 -0.1080
 6948TIP3    H242260   2.935   1.314   2.413  1.7648 -0.4320 -0.0094
 6949TIP3   OH242261   3.734   2.320  16.704 -0.5139 -0.7423 -0.1897
 6949TIP3    H142262   3.679   2.302  16.628 -0.9256  0.1217 -0.1101
 6949TIP3    H242263   3.689   2.391  16.750 -1.0202 -2.1720  1.6457
 6950TIP3   OH242264   5.164   4.088   2.574  0.0342 -0.4207 -0.4476
 6950TIP3    H142265   5.203   4.013   2.618  0.7843  0.2052 -0.0309
 6950TIP3    H242266   5.224   4.160   2.591 -1.4670  0.6624  0.5491
 6951TIP3   OH242267   4.093   6.375   1.924  0.2136 -0.0681  0.0743
 6951TIP3    H142268   4.114   6.328   1.843 -0.2568 -0.5235  0.2110
 6951TIP3    H242269   4.104   6.311   1.994  0.3137  0.2370  0.3409
 6952TIP3   OH242270   0.488   2.110  12.019  0.6555  0.1863  0.5200
 6952TIP3    H142271   0.418   2.114  11.953 -0.0562 -1.8779  1.0918
 6952TIP3    H242272   0.475   2.189  12.072 -0.6383  0.3366  0.0198
 6953TIP3   OH242273   6.306   5.740  13.216  0.8098 -0.0900 -0.1695
 6953TIP3    H142274   6.400   5.750  13.199  0.8008 -0.6831 -0.5789
 6953TIP3    H242275   6.293   5.646  13.227  0.3122  0.0187  0.1846
 6954TIP3   OH242276   1.433   5.765   2.588  0.3013  0.1007 -0.5046
 6954TIP3    H142277   1.474   5.775   2.502  2.0573 -0.4794  0.2163
 6954TIP3    H242278   1.388   5.681   2.584  0.2627  0.1405 -0.8959
 6955TIP3   OH242279   5.444   3.535  12.585  0.0713  0.6592  0.6033
 6955TIP3    H142280   5.444   3.454  12.534  0.5772  0.4774  0.8774
 6955TIP3    H242281   5.360   3.537  12.630 -0.2631  0.6834 -0.0263
 6956TIP3   OH242282   1.773   0.112   0.353  0.2124  0.0071  0.4188
 6956TIP3    H142283   1.754   0.122   0.446 -1.5333 -0.6628  0.1626
 6956TIP3    H242284   1.791   0.019   0.342 -0.8120 -0.1392 -0.1067
 6957TIP3   OH242285   4.103   4.278  15.942  0.1024 -0.2401 -0.0356
 6957TIP3    H142286   4.160   4.240  15.875 -0.0891 -0.5325 -0.0310
 6957TIP3    H242287   4.111   4.220  16.017 -0.9565 -0.8403 -0.3651
 6958TIP3   OH242288   3.148   1.925   1.875  0.1127  0.1033  0.1810
 6958TIP3    H142289   3.107   2.008   1.900 -3.2183 -1.5035  0.5297
 6958TIP3    H242290   3.159   1.931   1.780 -1.8994  0.2393 -0.0714
 6959TIP3   OH242291   3.478   5.588   3.235  0.2427 -0.0792 -0.2275
 6959TIP3    H142292   3.459   5.596   3.329  0.8228  1.9798 -0.2443
 6959TIP3    H242293   3.401   5.625   3.192  1.0149  1.2937 -0.4774
 6960TIP3   OH242294   4.233   1.262  11.738  0.1378 -0.1142 -0.0214
 6960TIP3    H142295   4.171   1.309  11.681  2.2259  1.8457 -0.8312
 6960TIP3    H242296   4.199   1.276  11.826 -0.4611  1.1253 -0.4204
 6961TIP3   OH242297   5.624   2.707   5.542  0.4535  0.4174 -0.5127
 6961TIP3    H142298   5.655   2.796   5.525 -0.7200  0.9994  0.3272
 6961TIP3    H242299   5.643   2.659   5.461  1.2396  1.3723 -0.9118
 6962TIP3   OH242300   2.310   2.199  15.664  0.0559 -0.1230 -0.3447
 6962TIP3    H142301   2.367   2.230  15.734  1.5303 -0.4413 -1.3464
 6962TIP3    H242302   2.314   2.268  15.598  2.5878 -1.8197 -2.1683
 6963TIP3   OH242303   0.821   6.625  12.211 -0.7226  0.4636  0.1908
 6963TIP3    H142304   0.907   6.656  12.239 -0.2667 -1.5247  1.1277
 6963TIP3    H242305   0.835   6.534  12.186 -2.6952 -0.1319  1.0691
 6964TIP3   OH242306   5.861   4.012   5.463  0.3435  0.0728  0.5025
 6964TIP3    H142307   5.799   4.024   5.391  0.3194  0.8909  0.6420
 6964TIP3    H242308   5.945   3.997   5.419  0.1420 -0.5179  0.3133
 6965TIP3   OH242309   4.363   6.665   1.331  0.1860  0.0750 -0.1788
 6965TIP3    H142310   4.455   6.675   1.308  0.0212  1.4962 -0.3078
 6965TIP3    H242311   4.343   6.742   1.385 -0.9713 -0.1103 -0.3134
 6966TIP3   OH242312   0.278   2.902   4.283  0.1949  0.4962 -0.0885
 6966TIP3    H142313   0.210   2.836   4.276 -1.0885  1.3681  2.7863
 6966TIP3    H242314   0.346   2.861   4.336  0.0075  0.9900  0.5489
 6967TIP3   OH242315   1.169   2.316  12.230  0.7188  0.0562  0.2396
 6967TIP3    H142316   1.219   2.317  12.311  1.0877  0.5323  0.0133
 6967TIP3    H242317   1.178   2.227  12.197 -0.0657 -0.3611  1.0970
 6968TIP3   OH242318   3.433   1.152  14.446  0.4480 -0.2611 -0.3004
 6968TIP3    H142319   3.354   1.098  14.449 -0.3073  0.8185  1.6904
 6968TIP3    H242320   3.401   1.241  14.463  1.9402  0.4300 -0.9380
 6969TIP3   OH242321   4.799   6.282  13.061 -0.1896 -0.2864  0.3664
 6969TIP3    H142322   4.776   6.194  13.090  0.0666 -0.4887 -0.0407
 6969TIP3    H242323   4.772   6.285  12.969  1.1577 -0.4438 -0.0565
 6970TIP3   OH242324   5.610   2.501   6.312 -0.0156  0.2029 -0.3557
 6970TIP3    H142325   5.580   2.510   6.222  0.8667  0.2899 -0.6533
 6970TIP3    H242326   5.684   2.562   6.319  0.6543 -0.6317  0.0898
 6971TIP3   OH242327   2.706   0.285   1.345  0.0164  0.1739  0.0553
 6971TIP3    H142328   2.632   0.227   1.323 -0.5206  0.4651  1.0188
 6971TIP3    H242329   2.691   0.364   1.293 -0.7868  0.5342  0.8068
 6972TIP3   OH242330   0.304   3.975   3.425  0.6585  0.1040  0.0970
 6972TIP3    H142331   0.324   3.890   3.384  1.5772  0.8469 -1.0757
 6972TIP3    H242332   0.352   4.039   3.372  0.7883  1.2723  1.5427
 6973TIP3   OH242333   2.477   4.557  13.577  0.1319 -0.4071  1.0106
 6973TIP3    H142334   2.481   4.646  13.540 -1.7359 -0.4510  0.6348
 6973TIP3    H242335   2.502   4.500  13.504 -2.0642 -0.3864  0.1642
 6974TIP3   OH242336   5.078   4.882   5.607  0.4310  0.5675 -0.3917
 6974TIP3    H142337   5.157   4.830   5.594  0.0602 -0.1108  0.0277
 6974TIP3    H242338   5.111   4.970   5.626  1.0744  0.4003 -0.6994
 6975TIP3   OH242339   6.466   5.008  11.930  0.0576  0.2695  0.1603
 6975TIP3    H142340   6.394   4.963  11.886  1.5629 -0.4120 -1.7762
 6975TIP3    H242341   6.438   5.099  11.937 -1.6060 -0.2704  0.9160
 6976TIP3   OH242342   5.429   5.156   0.638  0.1698 -0.7964 -0.2130
 6976TIP3    H142343   5.523   5.158   0.621  0.4226  1.9625  0.9239
 6976TIP3    H242344   5.422   5.149   0.733 -0.6313  1.2069 -0.0696
 6977TIP3   OH242345   0.176   5.681   2.768  0.3796  0.2985 -0.4826
 6977TIP3    H142346   0.110   5.742   2.802  2.1971  1.7368  0.6614
 6977TIP3    H242347   0.156   5.598   2.811 -2.0273  0.0292 -1.9149
 6978TIP3   OH242348   4.041   2.259   1.502 -0.0560 -0.0505  0.0847
 6978TIP3    H142349   3.950   2.245   1.525 -0.2232  0.6364 -0.1557
 6978TIP3    H242350   4.056   2.352   1.515  0.6484 -0.1759  0.2433
 6979TIP3   OH242351   5.146   2.224  14.956 -0.1703  0.5625 -0.5166
 6979TIP3    H142352   5.216   2.161  14.977  0.0217  0.7782 -0.5091
 6979TIP3    H242353   5.133   2.274  15.036 -1.3658 -0.4515 -0.0500
 6980TIP3   OH242354   2.310   2.904  12.749 -0.2528 -0.0378  0.7611
 6980TIP3    H142355   2.288   2.947  12.666 -2.5279 -1.1628  0.7093
 6980TIP3    H242356   2.252   2.946  12.813 -0.8672 -1.4071  1.1300
 6981TIP3   OH242357   3.057   5.133   6.046  0.1691 -0.0183 -0.4412
 6981TIP3    H142358   3.133   5.106   6.097 -1.4393 -2.1481  1.0231
 6981TIP3    H242359   3.042   5.061   5.984 -2.1549 -1.0434  1.1439
 6982TIP3   OH242360   6.375   0.317  14.319  0.0239  0.2183  0.1549
 6982TIP3    H142361   6.355   0.294  14.410  0.2283  2.1015  0.7171
 6982TIP3    H242362   6.323   0.255  14.267 -2.3087  0.8530  1.5754
 6983TIP3   OH242363   2.499   2.039   1.513  0.2125 -0.1047  0.2787
 6983TIP3    H142364   2.409   2.064   1.532 -0.0324 -1.4911  1.1041
 6983TIP3    H242365   2.547   2.058   1.594  0.6225  0.4581 -0.0947
 6984TIP3   OH242366   4.578   5.531   3.102 -0.3842 -0.1807  0.0999
 6984TIP3    H142367   4.609   5.553   3.190 -1.9043 -0.8352  0.8414
 6984TIP3    H242368   4.486   5.510   3.114 -0.7557  0.2062 -1.7537
 6985TIP3   OH242369   4.873   0.322   0.207 -0.3295  0.0594  0.1313
 6985TIP3    H142370   4.814   0.299   0.278 -0.3476  0.0211  0.1040
 6985TIP3    H242371   4.840   0.405   0.173 -0.1839  0.1950  0.3186
 6986TIP3   OH242372   3.341   3.595  16.287  0.0869 -0.0027 -0.1904
 6986TIP3    H142373   3.397   3.591  16.209 -1.4181 -1.5834 -1.2738
 6986TIP3    H242374   3.260   3.637  16.256  0.7902  2.8716  1.5091
 6987TIP3   OH242375   0.914   3.550  13.934  0.2484 -0.0699  0.2376
 6987TIP3    H142376   0.861   3.524  13.858 -2.7435  1.6679  1.5667
 6987TIP3    H242377   0.872   3.507  14.009  0.3338  1.8359  1.4313
 6988TIP3   OH242378   2.717   2.950   1.128 -0.1301 -0.2723  0.6502
 6988TIP3    H142379   2.772   3.006   1.073  0.8269 -1.9125 -0.1535
 6988TIP3    H242380   2.689   2.880   1.070 -1.7525 -0.3653  1.4852
 6989TIP3   OH242381   3.022   0.692  15.525  0.4049  0.2891 -0.5613
 6989TIP3    H142382   3.036   0.787  15.519 -0.3750  0.3515 -1.9480
 6989TIP3    H242383   3.084   0.654  15.463 -1.1473  0.1407 -2.1222
 6990TIP3   OH242384   4.021   1.043  12.047 -0.0453 -0.1365 -0.1393
 6990TIP3    H142385   4.090   1.017  12.108  1.8529  1.5533 -1.4412
 6990TIP3    H242386   4.021   0.975  11.980 -0.8219 -0.9894  0.6916
 6991TIP3   OH242387   1.271   1.569  14.450 -0.1192 -0.1969  0.5369
 6991TIP3    H142388   1.191   1.614  14.476 -0.3046 -0.1143 -0.1758
 6991TIP3    H242389   1.245   1.477  14.443  0.3178 -0.4991  2.2500
 6992TIP3   OH242390   5.483   5.859   2.550  0.4596 -0.1283  0.0660
 6992TIP3    H142391   5.433   5.901   2.480  0.0591 -0.3184  0.2306
 6992TIP3    H242392   5.553   5.812   2.506  1.1885  1.0687 -0.0948
 6993TIP3   OH242393   3.924   2.432  13.900 -0.4174 -0.3271 -0.3300
 6993TIP3    H142394   3.951   2.524  13.900  0.1299 -0.4798 -1.1454
 6993TIP3    H242395   3.853   2.428  13.965  2.4666 -0.1833  3.1684
 6994TIP3   OH242396   1.359   5.520  12.810 -0.8576 -0.0624  0.3961
 6994TIP3    H142397   1.356   5.539  12.716  2.1522 -1.3346 -0.0927
 6994TIP3    H242398   1.292   5.453  12.824 -3.3534  2.1533 -0.1619
 6995TIP3   OH242399   4.729   0.668   1.236  0.2082  0.0435 -0.0064
 6995TIP3    H142400   4.744   0.653   1.142 -2.0797 -0.2445 -0.3759
 6995TIP3    H242401   4.796   0.732   1.261  1.7207 -0.8737 -1.5042
 6996TIP3   OH242402   5.224   2.834   2.185 -1.2018  0.1812  0.5485
 6996TIP3    H142403   5.270   2.803   2.107 -0.5390  1.6924  0.3181
 6996TIP3    H242404   5.184   2.755   2.222  0.4241 -0.9501 -0.0037
 6997TIP3   OH242405   3.186   5.900  13.644 -0.1425  0.6612  0.2391
 6997TIP3    H142406   3.116   5.837  13.661  0.6131 -0.0705  0.7147
 6997TIP3    H242407   3.206   5.937  13.730  0.2703  0.6231  0.1628
 6998TIP3   OH242408   5.534   4.630  10.583 -0.1697  0.3853 -0.4015
 6998TIP3    H142409   5.463   4.601  10.527 -1.2999  0.6814  0.8325
 6998TIP3    H242410   5.536   4.566  10.655  1.6132 -0.3140 -1.0120
 6999TIP3   OH242411   2.531   6.415   5.853  0.3896 -0.0811  0.0288
 6999TIP3    H142412   2.579   6.490   5.887 -0.7724  0.1330  1.3069
 6999TIP3    H242413   2.487   6.447   5.775  0.4300  0.3735  0.1918
 7000TIP3   OH242414   1.450   6.719  14.959 -0.4024  0.8540  1.2055
 7000TIP3    H142415   1.501   6.667  14.897 -0.2311  1.4437  0.8455
 7000TIP3    H242416   1.464   6.809  14.931 -2.3141  0.9873  0.5802
 7001TIP3   OH242417   4.149   2.503   3.920  0.0423 -0.4713 -0.2582
 7001TIP3    H142418   4.169   2.432   3.859 -1.7378  0.0303 -1.5170
 7001TIP3    H242419   4.165   2.583   3.870 -0.9401 -0.0391  0.0842
 7002TIP3   OH242420   3.137   5.344   6.187 -0.3300  0.7337  0.6454
 7002TIP3    H142421   3.089   5.267   6.155  0.6914 -0.0719  0.9770
 7002TIP3    H242422   3.077   5.417   6.175 -1.1556 -0.0458 -0.1252
 7003TIP3   OH242423   6.057   2.452  10.579  0.6394  0.1915 -0.0491
 7003TIP3    H142424   6.090   2.370  10.543  1.1535  0.3425  0.0801
 7003TIP3    H242425   5.966   2.456  10.549  0.6220 -0.4090 -0.0801
 7004TIP3   OH242426   5.284   0.631  17.105 -0.2591  0.0060  0.0474
 7004TIP3    H142427   5.365   0.667  17.070 -1.7648  1.8712 -1.8305
 7004TIP3    H242428   5.276   0.671  17.192  1.1270 -0.7712  0.5615
 7005TIP3   OH242429   2.246   3.513  14.856  0.0497 -0.9613  0.2811
 7005TIP3    H142430   2.225   3.451  14.926 -0.5127 -1.8097 -0.6074
 7005TIP3    H242431   2.285   3.588  14.901  1.6793 -2.3567  1.3049
 7006TIP3   OH242432   2.863   0.054   3.176 -0.2737  0.1769  0.4307
 7006TIP3    H142433   2.936  -0.002   3.150 -1.0022  0.1046 -1.5849
 7006TIP3    H242434   2.894   0.098   3.255  1.2430 -1.2139  0.6743
 7007TIP3   OH242435   6.070   6.385   1.112  0.5948  0.2193  0.4060
 7007TIP3    H142436   6.113   6.320   1.056  1.1864  0.5642  0.4495
 7007TIP3    H242437   5.999   6.337   1.155  1.6155 -0.6492  1.1781
 7008TIP3   OH242438   4.458   2.048   6.078 -0.1922  0.1249 -0.0775
 7008TIP3    H142439   4.373   2.088   6.096  0.1919  0.9541 -0.0468
 7008TIP3    H242440   4.493   2.029   6.165  0.1562  0.8976 -0.0334
 7009TIP3   OH242441   1.434   0.949  13.188  0.5385 -0.1345 -0.1458
 7009TIP3    H142442   1.484   0.871  13.213  1.9194  1.1760  1.4482
 7009TIP3    H242443   1.385   0.972  13.267 -1.7015 -0.6662 -1.3126
 7010TIP3   OH242444   4.846   4.673   3.409  0.7400 -0.5962 -0.8126
 7010TIP3    H142445   4.890   4.600   3.365  0.1656 -0.4845 -1.5899
 7010TIP3    H242446   4.847   4.744   3.345  0.7448 -0.1163 -0.2858
 7011TIP3   OH242447   5.613   0.295   3.528 -0.0599 -0.0431 -0.4501
 7011TIP3    H142448   5.622   0.213   3.480  0.0836  0.1174 -0.7030
 7011TIP3    H242449   5.702   0.330   3.533 -0.0159 -0.2516  0.2801
 7012TIP3   OH242450   3.748   5.350   6.101  0.2065 -0.0706 -0.1472
 7012TIP3    H142451   3.835   5.366   6.064  0.4714 -1.0384  0.0340
 7012TIP3    H242452   3.719   5.268   6.061 -0.4601  0.0505  0.0809
 7013TIP3   OH242453   1.123   3.451   3.509  0.3711  0.1137  0.4073
 7013TIP3    H142454   1.040   3.467   3.554  0.9933  0.2315  1.5379
 7013TIP3    H242455   1.167   3.384   3.561  1.4351  0.8022  0.4304
 7014TIP3   OH242456   6.319   1.842   0.962 -0.3665  0.1467  0.1191
 7014TIP3    H142457   6.269   1.811   0.886  1.5113  0.6801 -1.3939
 7014TIP3    H242458   6.405   1.865   0.927  0.2939  1.2227  2.2794
 7015TIP3   OH242459   5.405   6.515   1.141  0.0594  0.1955 -0.2344
 7015TIP3    H142460   5.482   6.549   1.095  0.4999  0.7794  0.8993
 7015TIP3    H242461   5.349   6.591   1.155 -1.2977 -0.3869 -2.0169
 7016TIP3   OH242462   4.366   6.576  11.921  0.0160  0.1734  0.2820
 7016TIP3    H142463   4.413   6.559  11.840 -0.4601 -0.0232  0.0447
 7016TIP3    H242464   4.412   6.523  11.987 -0.5696 -0.9216 -0.1701
 7017TIP3   OH242465   3.277   3.016   3.216 -0.7347  0.5749 -0.2596
 7017TIP3    H142466   3.230   2.989   3.295  0.5063  2.0930  1.0590
 7017TIP3    H242467   3.365   2.979   3.226 -0.7546  0.2144 -1.2862
 7018TIP3   OH242468   5.618   5.623   4.758 -0.4139  0.4991 -0.2759
 7018TIP3    H142469   5.652   5.661   4.677 -0.5419 -0.0709 -0.6050
 7018TIP3    H242470   5.588   5.698   4.809  0.9627  0.9766 -0.1403
 7019TIP3   OH242471   0.787   1.129  11.083 -0.0668 -0.4929 -0.2010
 7019TIP3    H142472   0.747   1.118  10.996  1.6274 -1.9199 -0.8579
 7019TIP3    H242473   0.771   1.221  11.105 -0.8545 -0.1955 -1.8606
 7020TIP3   OH242474   4.913   1.237   0.031 -0.1970 -0.4122 -0.1417
 7020TIP3    H142475   4.888   1.153   0.070 -2.4822  0.5874  0.6800
 7020TIP3    H242476   4.832   1.287   0.027  1.1719  1.9286 -0.2547
 7021TIP3   OH242477   1.923   1.466  11.414  0.4257 -0.3780 -0.4795
 7021TIP3    H142478   1.850   1.405  11.431 -0.9371  1.5437  0.9511
 7021TIP3    H242479   1.950   1.445  11.324 -3.2651  0.1169 -1.8860
 7022TIP3   OH242480   2.699   4.126   2.043  0.1004  0.2314  0.0728
 7022TIP3    H142481   2.757   4.052   2.063  0.0677  0.2489  0.2409
 7022TIP3    H242482   2.672   4.112   1.953  0.1697  0.0877  0.0732
 7023TIP3   OH242483   2.916   6.555  14.654  0.1498 -0.3223 -0.4383
 7023TIP3    H142484   2.977   6.591  14.590 -0.0624  0.9418  0.0574
 7023TIP3    H242485   2.949   6.584  14.739 -0.9054  0.0440 -0.1347
 7024TIP3   OH242486   1.295   1.597   0.290 -0.5533 -0.4555  0.6621
 7024TIP3    H142487   1.238   1.544   0.235  1.3930 -0.7678 -1.1973
 7024TIP3    H242488   1.377   1.602   0.241  0.1657  2.1720  1.9651
 7025TIP3   OH242489   1.355   1.754   1.182  0.6966 -0.6168  0.1563
 7025TIP3    H142490   1.400   1.753   1.097  1.1585 -2.1239  0.3914
 7025TIP3    H242491   1.367   1.844   1.214  2.1447 -0.5369 -0.5150
 7026TIP3   OH242492   4.698   0.554   3.326 -0.2470  0.1294  0.2267
 7026TIP3    H142493   4.676   0.471   3.367  1.3888  0.0228  0.9749
 7026TIP3    H242494   4.733   0.530   3.240  1.7923 -0.1587  1.0703
 7027TIP3   OH242495   2.114   1.937  14.473  0.3689  0.0084  0.1076
 7027TIP3    H142496   2.207   1.940  14.451 -0.0012 -0.2007 -1.6246
 7027TIP3    H242497   2.099   1.847  14.501  0.4246 -0.3401 -0.9445
 7028TIP3   OH242498   1.349   1.727   2.684 -0.1446 -0.0368  0.1887
 7028TIP3    H142499   1.311   1.673   2.753 -0.6071 -1.6083 -1.2043
 7028TIP3    H242500   1.289   1.801   2.674 -0.8082 -0.5273  0.5458
 7029TIP3   OH242501   5.477   6.369   2.428  0.3411  0.1792  0.0134
 7029TIP3    H142502   5.445   6.455   2.402  0.1679  0.3898  0.8747
 7029TIP3    H242503   5.410   6.307   2.399  0.5363  0.3180 -0.7378
 7030TIP3   OH242504   5.975   1.620  16.220 -0.5759 -0.4036  0.1260
 7030TIP3    H142505   5.904   1.565  16.252 -0.8691  0.3629  0.8288
 7030TIP3    H242506   6.052   1.563  16.222 -0.4086 -0.1977  2.9854
 7031TIP3   OH242507   5.628   2.218   1.849  0.4647  0.5139  0.2755
 7031TIP3    H142508   5.640   2.123   1.839  0.2405  0.2276  2.2354
 7031TIP3    H242509   5.540   2.235   1.816 -0.3034 -0.3506  1.7347
 7032TIP3   OH242510   2.075   4.596   1.526 -0.7899 -0.3983  0.5839
 7032TIP3    H142511   2.088   4.608   1.620  1.5914  1.7827  0.0954
 7032TIP3    H242512   2.002   4.653   1.503 -1.4654 -1.0404  1.1004
 7033TIP3   OH242513   0.622   3.344  12.023  0.0868 -0.1883 -0.1363
 7033TIP3    H142514   0.614   3.392  12.105  0.9843  0.8768 -0.6416
 7033TIP3    H242515   0.683   3.396  11.971 -1.6492 -0.0069 -2.0886
 7034TIP3   OH242516   6.266   2.771  10.610 -0.2157 -0.1717  0.2459
 7034TIP3    H142517   6.188   2.808  10.650 -0.1072  0.8140 -0.4302
 7034TIP3    H242518   6.236   2.739  10.524  0.2699  0.9194 -0.3460
 7035TIP3   OH242519   2.877   4.831  14.235 -0.1350  0.3034  0.0664
 7035TIP3    H142520   2.877   4.766  14.165 -1.3960  1.9218 -1.5001
 7035TIP3    H242521   2.903   4.913  14.193  0.5737  1.0252  1.8074
 7036TIP3   OH242522   3.097   4.413   0.443  0.2088  0.0028 -0.7273
 7036TIP3    H142523   3.020   4.384   0.394 -0.3069  2.6856 -1.6668
 7036TIP3    H242524   3.157   4.446   0.376  0.8774  0.7688  0.2180
 7037TIP3   OH242525   4.143   4.351  12.945 -0.5458  0.5121  0.2188
 7037TIP3    H142526   4.155   4.355  12.850  1.7142 -2.0145  0.2951
 7037TIP3    H242527   4.230   4.368  12.981 -1.3313  1.2417  1.8740
 7038TIP3   OH242528   5.584   3.910  13.307 -0.0729 -0.1836  0.1608
 7038TIP3    H142529   5.664   3.882  13.263  0.4929  0.7449  0.5660
 7038TIP3    H242530   5.537   3.962  13.242  1.3705  2.2821  0.9522
 7039TIP3   OH242531   1.921   5.262  15.517 -0.4637 -0.2067 -0.1021
 7039TIP3    H142532   1.986   5.238  15.450  0.7146 -1.7250  1.4937
 7039TIP3    H242533   1.956   5.341  15.557  0.1388 -0.7156  0.3889
 7040TIP3   OH242534   4.644   1.019  14.800  0.1055  0.2723  0.5424
 7040TIP3    H142535   4.639   0.991  14.892 -1.7921 -1.9535 -0.1269
 7040TIP3    H242536   4.729   0.987  14.770  0.4354  0.3753  1.3491
 7041TIP3   OH242537   3.605   5.301  14.361 -0.1372  0.0429  0.0365
 7041TIP3    H142538   3.667   5.292  14.289  3.6848 -1.3047  3.1192
 7041TIP3    H242539   3.543   5.229  14.348  0.7740 -0.5168 -1.5855
 7042TIP3   OH242540   0.187   1.356   5.265  0.7097 -0.1407  0.1787
 7042TIP3    H142541   0.129   1.411   5.317  1.5739  0.8150  0.1643
 7042TIP3    H242542   0.263   1.411   5.247  0.2040 -0.2231 -2.6177
 7043TIP3   OH242543   5.163   5.375  15.121  0.5505  0.2822  0.1115
 7043TIP3    H142544   5.153   5.387  15.026  1.1655 -0.4866 -0.0628
 7043TIP3    H242545   5.232   5.437  15.145  2.0001 -1.0690 -0.3630
 7044TIP3   OH242546   2.041   1.812   6.656 -0.4122  0.3866  0.0506
 7044TIP3    H142547   2.058   1.898   6.694  1.3264  1.1251 -2.1487
 7044TIP3    H242548   1.978   1.829   6.586 -1.3049 -0.4278  0.6398
 7045TIP3   OH242549   5.145   3.897  14.303  0.2259 -0.0130  0.0603
 7045TIP3    H142550   5.237   3.913  14.279 -0.5570  3.0734 -1.4321
 7045TIP3    H242551   5.120   3.973  14.356 -1.2664 -1.2510  1.2421
 7046TIP3   OH242552   5.878   1.198   0.094 -0.0344  0.1065  0.4025
 7046TIP3    H142553   5.861   1.260   0.023 -0.2617  0.1992  0.5349
 7046TIP3    H242554   5.807   1.135   0.088 -0.2071  0.2652  0.7098
 7047TIP3   OH242555   6.080   4.673  11.024 -0.3723 -0.1379  0.0732
 7047TIP3    H142556   6.065   4.600  11.084 -0.2116 -2.4593 -2.5078
 7047TIP3    H242557   5.995   4.690  10.985  0.2068 -1.4319 -1.8874
 7048TIP3   OH242558   4.967   2.426  12.205 -0.0898  0.1635  0.2858
 7048TIP3    H142559   4.929   2.506  12.243 -0.3510 -1.1340  2.9929
 7048TIP3    H242560   5.061   2.435  12.219 -0.2495 -0.6895  2.1970
 7049TIP3   OH242561   6.204   2.115  12.993 -0.9080  0.0164 -0.2274
 7049TIP3    H142562   6.129   2.171  12.974  0.0453  1.6351  0.5559
 7049TIP3    H242563   6.242   2.152  13.073  2.0672  0.7169 -1.8015
 7050TIP3   OH242564   2.722   2.803  14.120 -0.0714 -0.1631 -0.3266
 7050TIP3    H142565   2.655   2.868  14.140  1.5374  1.4929 -0.0508
 7050TIP3    H242566   2.742   2.762  14.204 -1.3043 -1.3016 -0.5501
 7051TIP3   OH242567   3.284   1.255  14.861 -0.5167  0.1309  0.4923
 7051TIP3    H142568   3.361   1.299  14.824 -0.8068  0.9625  0.8568
 7051TIP3    H242569   3.210   1.306  14.828 -0.9366 -0.8083 -0.0572
 7052TIP3   OH242570   6.757   4.758  17.144 -0.5558 -0.6384  0.2478
 7052TIP3    H142571   6.766   4.720  17.231  0.2207 -0.2397  0.3488
 7052TIP3    H242572   6.746   4.683  17.085  0.0738 -0.9715  0.5478
 7053TIP3   OH242573   4.959   4.844  10.433 -0.0958 -0.3250  0.3722
 7053TIP3    H142574   4.877   4.800  10.410 -0.3731  0.8328 -0.9976
 7053TIP3    H242575   4.931   4.927  10.471  0.4416 -0.1080  0.2953
 7054TIP3   OH242576   2.695   1.331   0.574 -0.1910  0.0714 -0.3565
 7054TIP3    H142577   2.706   1.281   0.655  1.3656  0.9609  0.0132
 7054TIP3    H242578   2.742   1.279   0.508  0.1433  0.2941 -0.2926
 7055TIP3   OH242579   5.175   4.579  17.046  0.3792 -0.5045 -0.2090
 7055TIP3    H142580   5.157   4.638  16.972  0.0863  0.2143  0.4231
 7055TIP3    H242581   5.120   4.611  17.117  0.3621 -1.4302  0.2167
 7056TIP3   OH242582   0.909   4.453  15.911 -0.3833 -0.2682  0.1896
 7056TIP3    H142583   0.840   4.511  15.944 -0.2857  1.0319 -1.7528
 7056TIP3    H242584   0.873   4.365  15.921 -1.3694  0.2346  1.3355
 7057TIP3   OH242585   0.120   1.595  15.972 -0.7598 -0.0812 -0.6770
 7057TIP3    H142586   0.164   1.584  16.057  1.4253 -0.4549 -1.7721
 7057TIP3    H242587   0.041   1.542  15.978  1.4284 -3.6343 -0.2390
 7058TIP3   OH242588   3.442   1.815  15.108 -0.3228 -0.0185  0.0120
 7058TIP3    H142589   3.486   1.833  15.025 -1.7535  0.3124 -0.6989
 7058TIP3    H242590   3.474   1.728  15.134 -0.6571 -0.5891 -1.4244
 7059TIP3   OH242591   4.587   5.405   4.730  0.3544  0.1538  0.2150
 7059TIP3    H142592   4.536   5.486   4.730  1.0102  0.5967  1.4967
 7059TIP3    H242593   4.597   5.383   4.822  1.3631 -0.6339 -0.0629
 7060TIP3   OH242594   4.835   0.332   2.714 -0.3075  0.0343 -0.6134
 7060TIP3    H142595   4.746   0.354   2.684  0.2260  0.8363 -1.6668
 7060TIP3    H242596   4.889   0.404   2.683  1.1215 -1.5732 -2.0735
 7061TIP3   OH242597   6.158   1.555  12.241 -0.1489  0.2353 -0.3729
 7061TIP3    H142598   6.229   1.603  12.198  1.2382  0.0052  1.5483
 7061TIP3    H242599   6.188   1.464  12.240 -0.6648  0.0624  0.0021
 7062TIP3   OH242600   2.969   6.323  15.132  0.1084  0.6285  0.2124
 7062TIP3    H142601   3.013   6.239  15.148 -0.7782 -0.1878 -1.3970
 7062TIP3    H242602   2.885   6.315  15.177 -1.4325 -0.7813 -2.6556
 7063TIP3   OH242603   4.071   6.158   3.271 -0.1664 -0.8761 -0.5913
 7063TIP3    H142604   4.065   6.072   3.229  0.5429  0.1224 -2.8909
 7063TIP3    H242605   3.980   6.186   3.281 -0.3712 -0.7430 -2.4608
 7064TIP3   OH242606   6.526   0.345   2.934 -0.0382 -0.7434  0.1079
 7064TIP3    H142607   6.557   0.397   3.008  0.0319  0.1880 -0.5551
 7064TIP3    H242608   6.439   0.316   2.960 -0.2771  0.1169  0.3151
 7065TIP3   OH242609   0.461   4.616   4.602 -0.0244 -0.4390 -0.0803
 7065TIP3    H142610   0.450   4.687   4.665 -0.7467 -0.8929  0.3188
 7065TIP3    H242611   0.461   4.536   4.655 -0.7711 -0.8364 -0.6605
 7066TIP3   OH242612   6.411   2.583  11.175 -0.0712 -0.0076  0.3425
 7066TIP3    H142613   6.470   2.507  11.183  0.2502  0.3057  1.0389
 7066TIP3    H242614   6.327   2.545  11.151  0.0371 -0.6100  0.8780
 7067TIP3   OH242615   4.968   0.909   5.613 -0.1062 -0.3273  0.1037
 7067TIP3    H142616   5.024   0.917   5.690  1.0590 -0.1478 -0.7348
 7067TIP3    H242617   4.994   0.827   5.572  0.7919  0.5963 -1.2434
 7068TIP3   OH242618   3.792   4.123   0.114  0.3312  0.0373 -0.0792
 7068TIP3    H142619   3.879   4.146   0.148  0.4491 -0.0093 -0.3519
 7068TIP3    H242620   3.733   4.180   0.162  0.4180 -0.5625  0.7731
 7069TIP3   OH242621   3.861   4.458   0.081 -0.0962 -0.3302  0.0972
 7069TIP3    H142622   3.811   4.414   0.149  1.1377 -0.9558  0.6321
 7069TIP3    H242623   3.919   4.518   0.128 -0.4729  0.5288 -0.5168
 7070TIP3   OH242624   4.273   3.883  16.007 -0.0240 -0.6421  0.0536
 7070TIP3    H142625   4.180   3.882  16.030  0.1732 -1.2482  0.8443
 7070TIP3    H242626   4.317   3.915  16.086  0.3451  0.9310 -0.7454
 7071TIP3   OH242627   2.881   2.926  16.683 -0.0071  0.9620 -0.0704
 7071TIP3    H142628   2.956   2.867  16.694  0.5215  1.8872  1.4415
 7071TIP3    H242629   2.819   2.899  16.751 -1.6343 -0.5541 -2.0122
 7072TIP3   OH242630   3.586   2.218  14.061 -0.3168 -0.2239  0.3954
 7072TIP3    H142631   3.590   2.310  14.033 -1.1057 -0.6010 -1.0470
 7072TIP3    H242632   3.492   2.202  14.076 -0.2152 -0.8764  0.3573
 7073TIP3   OH242633   3.190   4.511  14.674  0.1026  0.3669 -0.3163
 7073TIP3    H142634   3.116   4.482  14.622 -0.9605  1.8910  0.2555
 7073TIP3    H242635   3.168   4.486  14.764  0.8620 -0.2568 -0.2973
 7074TIP3   OH242636   0.834   1.278   5.125 -0.7998  0.1045  0.4419
 7074TIP3    H142637   0.802   1.196   5.161 -0.6605 -0.4364 -0.6408
 7074TIP3    H242638   0.835   1.338   5.200  0.2740 -1.2051  1.5205
 7075TIP3   OH242639   5.835   2.493   4.406  0.4749 -0.2812 -0.4673
 7075TIP3    H142640   5.745   2.525   4.403  0.6188  0.2204  0.5410
 7075TIP3    H242641   5.870   2.525   4.489  2.1539  1.0269 -1.6137
 7076TIP3   OH242642   3.597   6.196   2.972 -0.1291  0.2076 -0.0710
 7076TIP3    H142643   3.652   6.129   3.013 -0.7098 -1.1377 -1.4057
 7076TIP3    H242644   3.589   6.264   3.038 -0.4069 -1.5228  1.7569
 7077TIP3   OH242645   4.803   3.250  15.228 -0.5904 -0.3370 -0.2839
 7077TIP3    H142646   4.860   3.188  15.182 -1.3754 -1.8892  0.7725
 7077TIP3    H242647   4.778   3.205  15.309 -0.6097  1.6565  0.8725
 7078TIP3   OH242648   0.032   6.496  16.724  0.3859 -0.2196 -0.3950
 7078TIP3    H142649  -0.011   6.461  16.802 -1.2783  1.0848 -0.6770
 7078TIP3    H242650  -0.027   6.475  16.652  0.6723  0.7521 -0.9369
 7079TIP3   OH242651   0.834   0.117  15.230  0.3897  0.5110 -0.2268
 7079TIP3    H142652   0.852   0.025  15.213 -1.4683 -0.0684  0.6250
 7079TIP3    H242653   0.834   0.158  15.144 -2.2391 -1.0283 -1.0916
 7080TIP3   OH242654   0.694   4.731  12.939 -0.2707  0.2723 -0.3381
 7080TIP3    H142655   0.768   4.768  12.892  0.1978 -0.7002 -0.3856
 7080TIP3    H242656   0.717   4.740  13.032 -0.3374  0.4606 -0.3402
 7081TIP3   OH242657   1.193   6.243   0.986 -0.1447 -0.1536  0.2488
 7081TIP3    H142658   1.239   6.281   1.061 -0.2154  0.5980 -0.0720
 7081TIP3    H242659   1.125   6.307   0.965 -0.4894 -0.6294 -0.1004
 7082TIP3   OH242660   2.877   3.729  15.832 -0.0295  0.0704  0.0292
 7082TIP3    H142661   2.969   3.707  15.843 -0.0140 -0.0904 -0.3873
 7082TIP3    H242662   2.853   3.777  15.911  0.1014 -0.9073  0.6758
 7083TIP3   OH242663   3.963   6.667   4.904  0.5293 -0.1802  0.3733
 7083TIP3    H142664   3.885   6.701   4.947  0.3933  0.0905 -0.0908
 7083TIP3    H242665   3.972   6.578   4.939  0.3321 -0.0170  0.8461
 7084TIP3   OH242666   2.864   6.514   5.993  0.6440 -0.1778 -0.2921
 7084TIP3    H142667   2.797   6.556   6.047 -1.7885  0.1267 -3.3058
 7084TIP3    H242668   2.861   6.422   6.018  1.3218  0.2812  1.6952
 7085TIP3   OH242669   6.491   5.711  14.122  0.3517 -0.1523 -0.5175
 7085TIP3    H142670   6.452   5.638  14.074 -0.5426  0.1201 -0.2275
 7085TIP3    H242671   6.516   5.774  14.054 -0.4708  0.0267 -0.6619
 7086TIP3   OH242672   3.624   6.303   1.099 -0.4982 -0.1696 -0.2909
 7086TIP3    H142673   3.702   6.271   1.055 -0.4611  1.3385 -1.4065
 7086TIP3    H242674   3.588   6.226   1.143  1.2551 -1.0233 -0.2567
 7087TIP3   OH242675   2.164   2.289   1.944 -0.0425  0.2275  0.4841
 7087TIP3    H142676   2.255   2.307   1.920 -0.3997  1.1183 -0.2417
 7087TIP3    H242677   2.157   2.314   2.036  1.3221 -3.1225  1.6493
 7088TIP3   OH242678   2.539   2.976  14.416  0.5551 -0.4036 -0.4280
 7088TIP3    H142679   2.459   3.013  14.452  1.0629  0.3301 -0.0121
 7088TIP3    H242680   2.578   2.928  14.489  0.1862 -1.2842 -0.8058
 7089TIP3   OH242681   6.463   6.034  11.746  0.6154  0.2671 -0.4442
 7089TIP3    H142682   6.461   5.949  11.789  1.0132  0.7701  0.6009
 7089TIP3    H242683   6.556   6.054  11.736  0.5245  0.5893 -0.6713
 7090TIP3   OH242684   2.021   1.921   3.420 -0.2484 -0.2707 -0.3035
 7090TIP3    H142685   2.006   1.834   3.459  2.8140 -0.2957  1.1537
 7090TIP3    H242686   1.946   1.935   3.363 -3.1335 -1.9431  2.7189
 7091TIP3   OH242687   1.759   6.190  13.241 -0.8748 -0.7179  0.2796
 7091TIP3    H142688   1.806   6.250  13.183 -3.2408 -1.3766 -2.5774
 7091TIP3    H242689   1.702   6.246  13.293 -0.3894 -0.2576  0.3199
 7092TIP3   OH242690   4.326   5.970  14.715 -0.1197  0.0387  0.5665
 7092TIP3    H142691   4.285   5.885  14.702 -0.0461  0.1681 -0.6345
 7092TIP3    H242692   4.411   5.964  14.670  1.1649 -0.1640  2.8437
 7093TIP3   OH242693   6.123   0.030  15.786 -0.0177  0.3874 -0.3064
 7093TIP3    H142694   6.110  -0.001  15.875  2.1382  0.7848  0.1975
 7093TIP3    H242695   6.035   0.054  15.756 -1.0780 -1.6822  0.9307
 7094TIP3   OH242696   6.086   1.693  13.031 -0.2268 -0.8372 -0.0250
 7094TIP3    H142697   6.077   1.625  13.098 -0.9477 -1.8334 -1.1012
 7094TIP3    H242698   6.160   1.665  12.978 -0.8970 -1.1154 -0.8311
 7095TIP3   OH242699   2.843   0.906   1.293  0.3878  0.4015  0.3388
 7095TIP3    H142700   2.843   0.990   1.340 -0.4666  0.8996 -0.5160
 7095TIP3    H242701   2.757   0.868   1.311  0.4551  0.1013  0.0450
 7096TIP3   OH242702   4.369   3.007  12.021  0.3529  0.1905  0.3439
 7096TIP3    H142703   4.377   3.102  12.020  0.0011  0.2637  1.6847
 7096TIP3    H242704   4.301   2.990  12.087  1.2332 -1.0265  0.9708
 7097TIP3   OH242705   1.241   0.668  11.546  0.6221  0.2871  0.0588
 7097TIP3    H142706   1.265   0.611  11.619 -0.4666  2.3250  2.1324
 7097TIP3    H242707   1.323   0.687  11.502  1.3078 -1.0174  0.7371
 7098TIP3   OH242708   4.231   0.866  15.062 -0.0972 -0.4453 -0.3097
 7098TIP3    H142709   4.264   0.904  14.980  1.1048 -2.0825 -0.6369
 7098TIP3    H242710   4.149   0.823  15.037 -0.6412  0.5451 -0.2656
 7099TIP3   OH242711   1.790   3.922   5.811 -0.3289  0.1506 -0.3040
 7099TIP3    H142712   1.797   3.827   5.823  0.1627  0.2961  0.7201
 7099TIP3    H242713   1.787   3.957   5.900 -0.3358  1.1111 -0.6690
 7100TIP3   OH242714   4.661   6.499   5.940  0.2310 -0.3591 -0.5906
 7100TIP3    H142715   4.707   6.419   5.917  0.3349 -0.3384 -0.4503
 7100TIP3    H242716   4.650   6.495   6.035  1.4212  0.4289 -0.4056
 7101TIP3   OH242717   2.942   1.441   1.861 -0.0797 -0.6213 -0.7777
 7101TIP3    H142718   2.977   1.529   1.875 -2.7158  0.0684  2.9822
 7101TIP3    H242719   3.013   1.382   1.888  0.2081  0.5496  1.2208
 7102TIP3   OH242720   3.450   1.908   4.386 -0.0989  0.1828  0.2126
 7102TIP3    H142721   3.404   1.850   4.325 -0.0069  0.3292  0.0004
 7102TIP3    H242722   3.412   1.995   4.369 -0.8548  0.0422  1.1396
 7103TIP3   OH242723   2.810   0.573  12.374 -0.1566  0.9238 -0.2024
 7103TIP3    H142724   2.837   0.484  12.349  0.3752  0.6982  1.1000
 7103TIP3    H242725   2.838   0.628  12.301  2.5777  0.4806  0.4168
 7104TIP3   OH242726   1.334   2.831   3.833  0.0686  0.5824 -0.0789
 7104TIP3    H142727   1.268   2.889   3.794 -2.4292 -2.5223 -0.8899
 7104TIP3    H242728   1.364   2.776   3.760  0.8478 -0.4963  1.0144
 7105TIP3   OH242729   4.653   3.605   5.484  0.0979  0.2726  0.1122
 7105TIP3    H142730   4.722   3.546   5.516 -1.2598 -0.9283  0.9436
 7105TIP3    H242731   4.633   3.573   5.396  0.6900  0.7141 -0.1871
 7106TIP3   OH242732   0.355   0.118  14.179  0.1695  0.2447 -0.1184
 7106TIP3    H142733   0.358   0.170  14.258  1.6954 -0.2925  0.2156
 7106TIP3    H242734   0.320   0.177  14.112  0.6424  1.2890  0.5320
 7107TIP3   OH242735   4.342   0.424   4.872 -0.4346  0.2745 -0.7291
 7107TIP3    H142736   4.383   0.348   4.832  0.8154  1.0170 -0.9095
 7107TIP3    H242737   4.264   0.440   4.820 -1.1090 -1.2870 -0.2566
 7108TIP3   OH242738   1.026   6.136  13.424 -0.1269 -0.2134  0.4179
 7108TIP3    H142739   1.007   6.056  13.472  2.2594 -1.1766 -0.1409
 7108TIP3    H242740   1.069   6.193  13.487 -1.7432  0.6680  0.7914
 7109TIP3   OH242741   1.368   6.348   2.516  0.2755 -0.1235  0.4744
 7109TIP3    H142742   1.427   6.273   2.519 -0.7458 -1.0256 -0.8068
 7109TIP3    H242743   1.283   6.312   2.541 -0.1738  0.6653  0.1245
 7110TIP3   OH242744   0.025   1.537  17.121  0.0793  0.2892 -0.1307
 7110TIP3    H142745  -0.019   1.459  17.090 -2.3198  2.0492 -1.4572
 7110TIP3    H242746   0.094   1.553  17.056  0.3351 -0.4664 -0.0589
 7111TIP3   OH242747   1.653   2.150  14.204  0.4402 -0.1479 -0.3135
 7111TIP3    H142748   1.683   2.203  14.277 -0.4998 -0.0376  0.0106
 7111TIP3    H242749   1.617   2.071  14.244 -1.6924  0.6724 -0.4924
 7112TIP3   OH242750   1.087   5.840  11.420  0.0949  0.0684 -0.1256
 7112TIP3    H142751   1.126   5.926  11.441  0.3459  0.0292 -0.4192
 7112TIP3    H242752   1.049   5.852  11.333  1.3757 -0.5103 -0.8006
 7113TIP3   OH242753   0.653   4.465   2.504  0.1714  0.4777  0.6907
 7113TIP3    H142754   0.636   4.507   2.419  0.7489  1.7436  1.1675
 7113TIP3    H242755   0.571   4.476   2.552  0.5471  1.8068  1.0841
 7114TIP3   OH242756   1.186   5.526   2.266 -0.0431 -0.1365 -0.6683
 7114TIP3    H142757   1.208   5.619   2.267 -2.7462  0.5761 -0.3681
 7114TIP3    H242758   1.267   5.483   2.238  1.0043  2.3577 -1.8141
 7115TIP3   OH242759   0.442   2.318   5.907 -0.0321  0.4786 -0.3188
 7115TIP3    H142760   0.533   2.329   5.880  0.5645 -2.9023 -0.1717
 7115TIP3    H242761   0.446   2.256   5.981 -2.3756  1.2502  0.5743
 7116TIP3   OH242762   1.840   0.256  13.331 -0.0869  0.2405 -0.4423
 7116TIP3    H142763   1.783   0.187  13.364 -0.3551 -0.4224 -2.2051
 7116TIP3    H242764   1.794   0.337  13.352 -0.6536 -0.1929  0.0097
 7117TIP3   OH242765   1.893   1.862   4.785 -0.9935 -0.3604  0.1245
 7117TIP3    H142766   1.836   1.919   4.837 -1.4148  2.2937 -2.9492
 7117TIP3    H242767   1.847   1.851   4.702  1.1795 -1.5199 -1.0094
 7118TIP3   OH242768   0.395   0.102  15.994 -0.4277 -0.1717 -0.0393
 7118TIP3    H142769   0.452   0.174  16.020  0.2553 -0.9230  0.6009
 7118TIP3    H242770   0.334   0.141  15.931 -0.8670  1.2463  1.2064
 7119TIP3   OH242771   3.628   5.025   4.480 -0.1140  0.0629 -0.2243
 7119TIP3    H142772   3.650   5.002   4.571 -1.9999 -0.5969  0.1261
 7119TIP3    H242773   3.697   5.085   4.453  0.8740 -0.2572  1.4145
 7120TIP3   OH242774   5.293   3.847   2.109  0.3419 -0.5266  0.0147
 7120TIP3    H142775   5.330   3.814   2.027  1.2403  0.4619 -0.0042
 7120TIP3    H242776   5.200   3.825   2.104 -0.1415  1.5696 -2.3918
 7121TIP3   OH242777   4.547   4.785   3.558 -0.0876 -0.3251  0.7853
 7121TIP3    H142778   4.584   4.862   3.601 -0.5452 -0.6216  1.7349
 7121TIP3    H242779   4.453   4.803   3.552  0.1822  0.6904 -2.1496
 7122TIP3   OH242780   2.564   3.762  14.408 -0.1740  0.2056  0.4378
 7122TIP3    H142781   2.519   3.773  14.324 -0.1537  0.2325  0.4305
 7122TIP3    H242782   2.494   3.758  14.472 -0.1632  2.1389  0.6502
 7123TIP3   OH242783   3.023   3.617  14.874 -0.0370 -0.0077 -0.2241
 7123TIP3    H142784   3.024   3.522  14.870  1.6087 -0.1273  1.5818
 7123TIP3    H242785   3.060   3.645  14.790 -2.0575 -0.8509 -1.4617
 7124TIP3   OH242786   3.612   4.894   2.508 -0.3683  0.0314  0.3092
 7124TIP3    H142787   3.671   4.827   2.543 -0.2875 -0.7272 -1.1963
 7124TIP3    H242788   3.526   4.871   2.544  0.0064  0.3761  1.4695
 7125TIP3   OH242789   2.566   6.027  16.517 -0.0803  0.7403 -0.2238
 7125TIP3    H142790   2.648   6.005  16.560  0.3934  1.4025 -0.7652
 7125TIP3    H242791   2.499   6.015  16.584  0.5233  0.7376  0.3821
 7126TIP3   OH242792   4.966   1.823   2.887  0.3361 -0.0885  0.5596
 7126TIP3    H142793   4.945   1.829   2.980  1.3147  1.5692  0.7036
 7126TIP3    H242794   4.979   1.913   2.859  0.2667 -0.5699 -1.1573
 7127TIP3   OH242795   4.255   0.086  11.733 -0.3101 -0.3497  0.5347
 7127TIP3    H142796   4.262   0.181  11.733  1.6221 -0.4550 -0.0196
 7127TIP3    H242797   4.317   0.057  11.666 -2.1308 -1.9429 -0.5621
 7128TIP3   OH242798   0.971   3.263   5.323 -0.3917  0.0194 -0.5618
 7128TIP3    H142799   0.882   3.259   5.289  0.1941 -2.3654 -2.0686
 7128TIP3    H242800   0.972   3.203   5.397 -0.2241  0.6864 -0.0138
 7129TIP3   OH242801   6.494   6.594  14.581 -0.1875 -0.0973 -0.1475
 7129TIP3    H142802   6.431   6.592  14.509 -1.3633 -1.1012  0.8560
 7129TIP3    H242803   6.579   6.578  14.539 -0.8583 -0.7745 -1.2922
 7130TIP3   OH242804   4.135   4.702  13.472  0.2177 -0.4297 -0.2960
 7130TIP3    H142805   4.222   4.664  13.483  0.5999  0.3148 -0.6869
 7130TIP3    H242806   4.106   4.669  13.386  0.8346  0.6868 -0.9505
 7131TIP3   OH242807   3.597   1.030   2.351  0.2462 -0.4871 -0.0278
 7131TIP3    H142808   3.642   1.009   2.269  1.1851 -0.3170  0.4247
 7131TIP3    H242809   3.524   0.968   2.355 -0.2448 -0.0115 -1.3357
 7132TIP3   OH242810   0.064   4.304   4.412 -0.9014 -0.5459 -0.3304
 7132TIP3    H142811   0.097   4.326   4.325  1.1561  0.3051  0.5973
 7132TIP3    H242812   0.086   4.380   4.466 -0.4417 -1.7814  1.3115
 7133TIP3   OH242813   2.217   4.034   4.824  0.3667  0.1287 -0.3032
 7133TIP3    H142814   2.262   4.082   4.754  0.4612  0.3400 -0.1009
 7133TIP3    H242815   2.284   3.974   4.858 -0.3530 -1.7241 -1.9910
 7134TIP3   OH242816   0.240   6.552  14.538 -0.4473 -0.5135 -0.3853
 7134TIP3    H142817   0.262   6.591  14.453 -2.3966  0.4874 -0.4822
 7134TIP3    H242818   0.287   6.468  14.538 -0.2137 -0.4345 -2.3454
 7135TIP3   OH242819   5.596   0.928   0.873 -0.2045  0.4718  0.3260
 7135TIP3    H142820   5.552   1.011   0.890 -0.9241  0.3959 -1.0615
 7135TIP3    H242821   5.671   0.952   0.817  1.1870  0.5118  2.1090
 7136TIP3   OH242822   0.217   5.976  13.560  0.2683  0.2657 -0.2592
 7136TIP3    H142823   0.283   5.924  13.605  0.4459 -0.5240 -1.3586
 7136TIP3    H242824   0.259   6.002  13.478  0.6377  3.3039  0.8011
 7137TIP3   OH242825   0.116   0.218   2.914  0.5865 -0.5343 -0.1492
 7137TIP3    H142826   0.199   0.199   2.957 -0.4722 -3.6253  0.8276
 7137TIP3    H242827   0.119   0.170   2.832  0.0942  0.1105 -0.5597
 7138TIP3   OH242828   1.047   5.231  17.169 -0.5948  0.0850 -0.6389
 7138TIP3    H142829   0.969   5.181  17.148  0.3685 -1.3182 -1.0278
 7138TIP3    H242830   1.092   5.241  17.086  0.1719 -0.0753 -0.2528
 7139TIP3   OH242831   5.834   1.705   2.354 -0.0468 -0.0999  0.1133
 7139TIP3    H142832   5.788   1.741   2.430 -0.3815  0.7504 -0.4856
 7139TIP3    H242833   5.840   1.611   2.373  1.3420  0.2852  1.9701
 7140TIP3   OH242834   0.680   2.549  13.891  0.2535  0.0145 -0.1449
 7140TIP3    H142835   0.759   2.595  13.916  0.2065  1.4341 -2.3536
 7140TIP3    H242836   0.648   2.595  13.813 -2.7475 -0.4892  0.6356
 7141TIP3   OH242837   3.404   0.173  13.257 -0.0071 -0.2006 -0.3288
 7141TIP3    H142838   3.480   0.115  13.266  0.6186  0.8540  1.7475
 7141TIP3    H242839   3.416   0.215  13.173 -0.3830 -2.8844 -1.8447
 7142TIP3   OH242840   5.509   1.157  16.630  0.6003 -0.4965 -0.2228
 7142TIP3    H142841   5.515   1.123  16.541  1.1955 -1.1879  0.0655
 7142TIP3    H242842   5.568   1.232  16.632  1.2633 -1.0111 -0.1848
 7143TIP3   OH242843   4.025   1.394  14.025  0.4639 -0.1863 -0.2713
 7143TIP3    H142844   4.067   1.333  13.965  2.2167  1.0721 -0.4217
 7143TIP3    H242845   3.972   1.451  13.969 -0.0178 -0.6486 -0.2942
 7144TIP3   OH242846   3.089   4.102   1.414 -0.3518 -0.3926  0.6361
 7144TIP3    H142847   3.092   4.184   1.463  0.5880 -0.8983  1.4576
 7144TIP3    H242848   2.996   4.090   1.395 -0.4774  1.0198  0.2030
 7145TIP3   OH242849   0.390   1.531   3.652 -0.2428 -0.4899 -0.3619
 7145TIP3    H142850   0.374   1.531   3.747 -1.7640  0.4276 -0.5722
 7145TIP3    H242851   0.456   1.463   3.639  0.6903 -0.0103  1.4508
 7146TIP3   OH242852   0.007   4.343  15.565 -0.0488  0.2867 -0.3228
 7146TIP3    H142853   0.019   4.279  15.635  0.3140 -2.9040 -3.0178
 7146TIP3    H242854   0.096   4.362  15.535 -0.2345  0.6989 -0.6206
 7147TIP3   OH242855   5.858   5.235  13.911 -0.4415  0.3227 -0.3579
 7147TIP3    H142856   5.822   5.147  13.897 -0.4912  0.3066 -0.1344
 7147TIP3    H242857   5.820   5.288  13.840 -1.0142  0.3368 -0.0506
 7148TIP3   OH242858   3.472   6.365   4.428 -0.1772  0.5978  0.3780
 7148TIP3    H142859   3.524   6.289   4.401 -0.6164 -0.1340  1.5187
 7148TIP3    H242860   3.497   6.434   4.367  0.5540 -0.3415 -0.4158
 7149TIP3   OH242861   1.637   6.677  12.623 -0.1847 -0.1723  0.3261
 7149TIP3    H142862   1.606   6.672  12.714 -1.8013 -0.1850 -0.1885
 7149TIP3    H242863   1.609   6.764  12.594 -0.4622 -0.5078 -0.4179
 7150TIP3   OH242864   0.140   0.633  12.132  0.4775 -0.4676  0.4301
 7150TIP3    H142865   0.129   0.660  12.223  1.6851 -0.0093  0.4580
 7150TIP3    H242866   0.235   0.639  12.116  0.2671 -0.3212 -0.9144
 7151TIP3   OH242867   1.918   6.171   5.651  0.6833  0.1352  0.0199
 7151TIP3    H142868   1.971   6.146   5.575  2.7989  1.4960  0.9462
 7151TIP3    H242869   1.982   6.205   5.714 -1.2577  1.3864  1.4185
 7152TIP3   OH242870   6.327   6.733  16.204 -0.2755  0.5585 -0.5995
 7152TIP3    H142871   6.319   6.639  16.187 -0.3583  0.6279 -0.9629
 7152TIP3    H242872   6.421   6.748  16.212 -0.1426  0.6866 -2.0345
 7153TIP3   OH242873   6.647   0.826  14.253 -0.2092  0.0833  0.1364
 7153TIP3    H142874   6.555   0.832  14.225  0.2847  0.1239 -1.5856
 7153TIP3    H242875   6.651   0.745  14.304 -1.5612  1.0081  1.7855
 7154TIP3   OH242876   3.401   5.519  11.935  0.6293  0.5314  0.2550
 7154TIP3    H142877   3.398   5.446  11.998  0.0001  0.3927  0.0759
 7154TIP3    H242878   3.430   5.594  11.987 -1.7496  0.8772  1.2100
 7155TIP3   OH242879   0.649   2.590  10.982 -0.1209  0.1421 -0.0778
 7155TIP3    H142880   0.642   2.656  10.913  1.3691 -0.2864 -0.6975
 7155TIP3    H242881   0.681   2.512  10.937  0.5502 -0.2541  1.0259
 7156TIP3   OH242882   0.235   4.607  14.677  0.0445 -0.6706  0.1428
 7156TIP3    H142883   0.198   4.521  14.656 -0.8193 -0.8559  2.2067
 7156TIP3    H242884   0.174   4.670  14.638  0.4372 -0.9614 -0.9838
 7157TIP3   OH242885   5.930   0.923   1.476 -0.5925  0.6632 -0.2956
 7157TIP3    H142886   5.891   0.879   1.552  0.6873 -0.3044 -0.1729
 7157TIP3    H242887   5.997   0.979   1.514  0.7923 -0.6324 -0.7544
 7158TIP3   OH242888   1.159   2.429  13.121 -0.1678 -0.7687 -0.3259
 7158TIP3    H142889   1.244   2.392  13.100  0.0937 -0.7846  0.7218
 7158TIP3    H242890   1.162   2.446  13.215 -1.9409 -2.3948  0.0781
 7159TIP3   OH242891   1.102   2.771   3.050 -0.5816  0.3240  0.5203
 7159TIP3    H142892   1.126   2.681   3.029 -2.1249 -0.2442  1.0642
 7159TIP3    H242893   1.041   2.763   3.124 -4.7258  1.3576 -2.4335
 7160TIP3   OH242894   5.121   3.383   2.078 -0.2143  0.2436 -0.5038
 7160TIP3    H142895   5.205   3.349   2.045 -0.2025 -0.3950  0.1825
 7160TIP3    H242896   5.056   3.348   2.017  0.0174  0.8211 -1.0975
 7161TIP3   OH242897   6.731   0.511  15.824  0.4563  0.3031 -0.1025
 7161TIP3    H142898   6.798   0.486  15.760  0.2116  1.1751 -0.7080
 7161TIP3    H242899   6.777   0.569  15.885  0.3122  0.7285 -0.3943
 7162TIP3   OH242900   5.892   1.478   0.963  0.3589 -0.2929 -0.6949
 7162TIP3    H142901   5.918   1.402   1.014 -1.0221  0.7354  1.7391
 7162TIP3    H242902   5.923   1.553   1.014 -1.0654  0.7936 -1.3394
 7163TIP3   OH242903   4.156   4.802   2.265 -0.8226  0.0783  0.0135
 7163TIP3    H142904   4.128   4.885   2.304  0.6229  0.0973  1.0923
 7163TIP3    H242905   4.078   4.747   2.269 -1.2061  0.6666  1.3728
 7164TIP3   OH242906   3.099   2.288   4.931  0.0518 -0.6573  0.1881
 7164TIP3    H142907   3.091   2.360   4.993  0.0372 -0.4226 -0.0850
 7164TIP3    H242908   3.072   2.211   4.981 -0.6284 -0.3744  0.2759
 7165TIP3   OH242909   0.760   6.213  14.693 -0.9201 -0.3105  0.2480
 7165TIP3    H142910   0.714   6.130  14.688  1.2212 -1.5663  0.4299
 7165TIP3    H242911   0.846   6.196  14.653 -1.0666  2.3088 -1.4654
 7166TIP3   OH242912   4.490   1.210  16.833  0.1184  0.0126  0.5539
 7166TIP3    H142913   4.525   1.121  16.845 -1.8476 -0.7571  1.1783
 7166TIP3    H242914   4.523   1.259  16.908  0.7197 -0.3719  0.5435
 7167TIP3   OH242915   2.660   3.315  14.638 -0.9414 -0.0809  0.2737
 7167TIP3    H142916   2.729   3.286  14.697 -1.2007 -0.6986  0.2832
 7167TIP3    H242917   2.642   3.405  14.664  0.1435  0.2350  0.0017
 7168TIP3   OH242918   2.352   2.483  13.925 -0.2625  0.3209 -0.5432
 7168TIP3    H142919   2.421   2.481  13.859 -1.7311 -0.5683 -2.1320
 7168TIP3    H242920   2.393   2.522  14.002  2.3557 -1.3729 -0.9810
 7169TIP3   OH242921   1.067   5.154   5.157  0.5318  0.4148 -0.8135
 7169TIP3    H142922   1.043   5.068   5.124  1.4957  1.0967 -3.6029
 7169TIP3    H242923   1.161   5.149   5.172  0.7326  1.1479 -1.7165
 7170TIP3   OH242924   6.080   3.695   1.958 -0.0181 -0.1096 -0.2196
 7170TIP3    H142925   5.985   3.696   1.967 -0.2640  2.6283 -2.1487
 7170TIP3    H242926   6.096   3.710   1.865  2.2762  1.3659  0.3414
 7171TIP3   OH242927   6.386   6.308   3.254 -0.5046 -0.6749 -0.3591
 7171TIP3    H142928   6.300   6.345   3.232 -1.0743 -1.0315  1.1361
 7171TIP3    H242929   6.442   6.384   3.268 -0.9261 -0.4133 -0.0649
 7172TIP3   OH242930   1.278   3.732   6.140  0.3917  0.0490 -0.1832
 7172TIP3    H142931   1.223   3.790   6.192  1.5081  0.5671  0.4417
 7172TIP3    H242932   1.241   3.645   6.156 -0.7819  0.4831 -0.4743
 7173TIP3   OH242933   3.993   0.297   4.298 -0.3316 -0.7417 -0.6720
 7173TIP3    H142934   4.088   0.309   4.302 -0.4408  0.2418 -0.9816
 7173TIP3    H242935   3.968   0.272   4.388  0.2781 -1.5236 -0.7126
 7174TIP3   OH242936   5.164   3.832  12.019  0.8735 -0.0219 -0.7175
 7174TIP3    H142937   5.103   3.901  12.043 -0.5633 -1.3529 -0.3524
 7174TIP3    H242938   5.192   3.854  11.931 -1.7184 -0.3848 -1.7136
 7175TIP3   OH242939   0.183   5.699  16.709  0.3532  0.3379  0.2100
 7175TIP3    H142940   0.210   5.663  16.625  1.6105 -1.2377  1.2330
 7175TIP3    H242941   0.124   5.634  16.745 -0.6384  1.2767  0.3190
 7176TIP3   OH242942   4.200   3.405   4.393 -0.0779  0.0471 -0.2950
 7176TIP3    H142943   4.114   3.441   4.414 -0.5117 -1.0574 -0.0971
 7176TIP3    H242944   4.195   3.314   4.421  1.2410  0.0285 -0.0654
 7177TIP3   OH242945   5.812   1.674  15.195  0.2122  0.1037  0.3031
 7177TIP3    H142946   5.861   1.608  15.243 -1.2138 -0.8006  0.5838
 7177TIP3    H242947   5.877   1.739  15.169  1.7578 -1.6741 -0.4564
 7178TIP3   OH242948   0.546   6.030  14.675 -0.4973 -0.1397  0.0546
 7178TIP3    H142949   0.565   5.936  14.671 -0.0620 -0.0204 -1.1635
 7178TIP3    H242950   0.501   6.042  14.758  1.0859 -1.1288  1.1158
 7179TIP3   OH242951   5.203   2.049   6.491 -0.0781  0.0233 -0.1160
 7179TIP3    H142952   5.230   2.115   6.426  1.8137 -0.4938  0.0687
 7179TIP3    H242953   5.247   1.969   6.463  1.0658 -0.1468  1.9301
 7180TIP3   OH242954   4.519   5.464  11.307 -0.2850  0.4674  0.0148
 7180TIP3    H142955   4.568   5.450  11.388 -1.2439 -1.7138  0.2940
 7180TIP3    H242956   4.442   5.513  11.335 -0.2867  0.3079  0.3000
 7181TIP3   OH242957   0.679   2.648  15.890 -0.0555 -0.0411 -0.3949
 7181TIP3    H142958   0.651   2.583  15.826  0.6011  0.1615 -0.8948
 7181TIP3    H242959   0.676   2.731  15.843  0.2434  0.1359 -0.1046
 7182TIP3   OH242960   5.652   3.474   3.648 -0.8607 -0.3805 -0.3170
 7182TIP3    H142961   5.563   3.505   3.632 -1.5659 -0.6714  2.5125
 7182TIP3    H242962   5.698   3.552   3.680 -0.2000 -0.3370 -1.3450
 7183TIP3   OH242963   5.702   1.116   6.047  0.0082  0.1432  0.0163
 7183TIP3    H142964   5.779   1.105   6.103  1.0941 -0.6320 -1.5740
 7183TIP3    H242965   5.714   1.203   6.008  0.5586 -0.3375 -0.9104
 7184TIP3   OH242966   3.033   0.228   1.310 -0.3749  0.1706  0.2525
 7184TIP3    H142967   2.990   0.149   1.343  0.3258 -0.0460  0.6717
 7184TIP3    H242968   2.963   0.279   1.270 -0.8156 -0.7057 -0.1091
 7185TIP3   OH242969   4.263   2.007   2.861  0.3979 -0.1665  0.4545
 7185TIP3    H142970   4.198   1.976   2.798 -0.2903 -0.3668  1.2434
 7185TIP3    H242971   4.321   1.932   2.875  1.2665  0.2337 -0.8007
 7186TIP3   OH242972   4.222   0.562   0.870  0.0206  0.1580  0.1089
 7186TIP3    H142973   4.150   0.533   0.814  0.7695 -1.5617 -0.0208
 7186TIP3    H242974   4.183   0.570   0.957 -0.4937  0.0420 -0.1061
 7187TIP3   OH242975   6.279   6.268  11.006 -0.2080  0.0654  0.4209
 7187TIP3    H142976   6.266   6.314  11.089 -0.5059 -1.1869  1.0903
 7187TIP3    H242977   6.299   6.178  11.031 -1.6591 -0.6670 -0.8816
 7188TIP3   OH242978   0.531   4.914   0.590  0.2313 -0.0017 -0.4076
 7188TIP3    H142979   0.467   4.843   0.579  0.0593  0.2665 -1.1803
 7188TIP3    H242980   0.557   4.909   0.682 -0.0318 -0.8560 -0.3720
 7189TIP3   OH242981   0.797   2.932  13.618  0.0324  0.4676 -0.2122
 7189TIP3    H142982   0.868   2.900  13.674  0.8325  0.9946 -0.8916
 7189TIP3    H242983   0.759   2.853  13.579 -0.3526  0.1205  0.8422
 7190TIP3   OH242984   3.866   3.370  16.013 -0.3806  0.2348  0.0134
 7190TIP3    H142985   3.954   3.332  16.016 -0.8085 -0.9248 -0.9595
 7190TIP3    H242986   3.879   3.458  15.979  0.3932 -0.0181 -0.3721
 7191TIP3   OH242987   0.732   2.672   4.300  0.2785  0.2503  0.4797
 7191TIP3    H142988   0.688   2.749   4.338  0.3937  0.0786  0.9640
 7191TIP3    H242989   0.822   2.701   4.286 -0.3111  1.1678 -2.0886
 7192TIP3   OH242990   1.589   1.454   2.300  0.5056 -0.9123  0.0220
 7192TIP3    H142991   1.579   1.411   2.385 -0.3846 -0.0141  0.4020
 7192TIP3    H242992   1.679   1.485   2.299  1.1241 -2.6318 -0.2079
 7193TIP3   OH242993   2.179   1.379   6.332 -0.3399  0.7314 -0.9980
 7193TIP3    H142994   2.135   1.445   6.384 -0.2632 -1.3082  1.8742
 7193TIP3    H242995   2.272   1.399   6.340 -0.2296 -0.3259  0.9099
 7194TIP3   OH242996   6.633   0.230   2.704  0.5922  0.1820 -0.0436
 7194TIP3    H142997   6.603   0.282   2.779 -0.9886  0.7679 -1.0405
 7194TIP3    H242998   6.712   0.274   2.674  0.3619  0.8683  0.3363
 7195TIP3   OH242999   6.646   5.460  13.262 -0.3609  0.0903  0.1230
 7195TIP3    H143000   6.622   5.541  13.307 -0.4494  0.1366 -0.0108
 7195TIP3    H243001   6.603   5.391  13.313 -0.9460  0.1867 -0.2361
 7196TIP3   OH243002   5.931   5.344  10.755 -0.1207  0.0877  0.3633
 7196TIP3    H143003   5.983   5.331  10.834  0.7384 -2.4850 -0.5135
 7196TIP3    H243004   5.840   5.335  10.785  0.1586 -0.1917  1.1518
 7197TIP3   OH243005   0.835   3.088   1.931  0.1396  0.4801 -0.8583
 7197TIP3    H143006   0.805   3.002   1.901  0.6504 -0.1205  0.2854
 7197TIP3    H243007   0.887   3.121   1.858 -2.5229  1.2106 -2.5795
 7198TIP3   OH243008   2.221   4.413  16.734  0.2151  0.1805 -0.5186
 7198TIP3    H143009   2.256   4.331  16.769 -0.5087 -0.4691 -1.2442
 7198TIP3    H243010   2.126   4.402  16.740  0.0231  2.2933  2.3405
 7199TIP3   OH243011   6.370   0.269  15.487  0.1505 -0.0000  0.7672
 7199TIP3    H143012   6.446   0.211  15.487  0.6246  0.6087  1.0845
 7199TIP3    H243013   6.405   0.354  15.460 -0.4754  0.2196  0.6274
 7200TIP3   OH243014   5.182   1.541  15.252  1.1521  0.4861  0.6943
 7200TIP3    H143015   5.158   1.498  15.169  1.0136 -2.4141  2.1028
 7200TIP3    H243016   5.278   1.549  15.248  1.1401  0.4198  0.2369
 7201TIP3   OH243017   1.664   5.599   2.253  0.3460  0.2140  0.0606
 7201TIP3    H143018   1.611   5.659   2.306 -0.4954 -0.3993 -0.0586
 7201TIP3    H243019   1.652   5.629   2.163  0.9945  0.6668  0.1212
 7202TIP3   OH243020   4.831   2.903  14.507  0.3125 -0.0067 -0.2566
 7202TIP3    H143021   4.856   2.996  14.501  0.1036  0.0529 -0.2078
 7202TIP3    H243022   4.914   2.856  14.511  0.4383  0.0806 -1.5684
 7203TIP3   OH243023   2.509   5.656   4.769 -0.7679  0.1395 -0.8052
 7203TIP3    H143024   2.431   5.703   4.738 -2.4642 -1.8434  0.1579
 7203TIP3    H243025   2.488   5.633   4.860  1.1167 -0.1886 -0.4102
 7204TIP3   OH243026   2.933   1.010   6.769  0.5734 -0.3101  0.3246
 7204TIP3    H143027   2.894   1.096   6.783  1.5471  0.3306 -0.6904
 7204TIP3    H243028   2.860   0.956   6.737 -0.1930 -0.0745  1.5804
 7205TIP3   OH243029   4.731   4.051   2.984  0.3531  0.1988  0.2290
 7205TIP3    H143030   4.683   4.013   2.911 -0.8009 -0.8270  1.4668
 7205TIP3    H243031   4.673   4.119   3.018  0.5005  0.0806  0.7255
 7206TIP3   OH243032   3.486   4.976  14.830 -0.3439  0.1535  0.1866
 7206TIP3    H143033   3.477   5.017  14.916  1.7933 -1.8042  1.4892
 7206TIP3    H243034   3.564   5.018  14.792 -0.0335 -0.4452  0.1515
 7207TIP3   OH243035   0.217   2.266  14.347 -0.4695 -0.4028  0.0095
 7207TIP3    H143036   0.138   2.213  14.348 -1.2682  0.7785  0.7935
 7207TIP3    H243037   0.186   2.356  14.341  0.8051  0.0880  0.4278
 7208TIP3   OH243038   3.987   6.634   3.019 -0.0482 -0.4290 -0.2953
 7208TIP3    H143039   4.006   6.698   3.088  0.7864 -1.8203  0.8137
 7208TIP3    H243040   3.919   6.676   2.966  3.0697  3.0155 -1.9661
 7209TIP3   OH243041   0.651   2.274   5.671  0.2616  0.5918  0.0383
 7209TIP3    H143042   0.594   2.197   5.673  3.1828 -1.7456 -0.5528
 7209TIP3    H243043   0.629   2.318   5.589 -0.8811 -0.0472 -0.0224
 7210TIP3   OH243044   2.024   0.428   2.060  0.4713  0.1510  0.1880
 7210TIP3    H143045   2.029   0.487   1.984 -0.3894 -0.4357 -0.3384
 7210TIP3    H243046   2.114   0.425   2.094  0.8678  0.4424 -0.7906
 7211TIP3   OH243047   4.577   4.494   3.745 -0.2996 -0.1777 -0.1083
 7211TIP3    H143048   4.541   4.499   3.656  0.1789  0.7061 -0.2674
 7211TIP3    H243049   4.516   4.438   3.793 -1.8851  1.2700 -0.3693
 7212TIP3   OH243050   2.538   4.060   1.831  0.1878  0.1234  0.3292
 7212TIP3    H143051   2.506   4.003   1.762 -1.8088 -3.3017  3.6633
 7212TIP3    H243052   2.461   4.106   1.863  0.0691 -1.5106  2.7436
 7213TIP3   OH243053   2.183   0.167   5.048 -0.2647 -0.3019 -0.1402
 7213TIP3    H143054   2.101   0.118   5.050 -0.4034 -0.0713  1.8587
 7213TIP3    H243055   2.195   0.198   5.138  1.5806  0.4020 -0.5775
 7214TIP3   OH243056   6.531   6.373   1.471  0.6262 -0.4263 -0.4934
 7214TIP3    H143057   6.612   6.410   1.505 -0.5895  1.4095  0.6016
 7214TIP3    H243058   6.496   6.319   1.543  0.3779 -0.3783 -0.5754
 7215TIP3   OH243059   4.855   4.327  13.921 -0.1546  0.3422 -0.3967
 7215TIP3    H143060   4.787   4.268  13.890  0.7819 -0.7758 -0.4209
 7215TIP3    H243061   4.937   4.281  13.901  0.6364  1.8934 -0.8983
 7216TIP3   OH243062   3.808   2.704  16.782 -0.1319  0.1727 -0.1983
 7216TIP3    H143063   3.747   2.777  16.775  0.3789  0.6365  0.1107
 7216TIP3    H243064   3.865   2.711  16.706 -0.2798 -0.0874 -0.3337
 7217TIP3   OH243065   1.400   4.559  14.807 -0.1628  0.2907  0.2689
 7217TIP3    H143066   1.464   4.601  14.749 -0.4373  2.3235  1.3508
 7217TIP3    H243067   1.421   4.593  14.894 -2.8054  1.1710  0.6350
 7218TIP3   OH243068   5.598   2.257  11.436 -0.3347  0.0017 -0.0976
 7218TIP3    H143069   5.539   2.279  11.363  0.9587  1.6465 -0.6925
 7218TIP3    H243070   5.632   2.170  11.413 -2.2930 -0.8995  0.1561
 7219TIP3   OH243071   5.065   3.517   2.915  0.3740  0.3993  0.3240
 7219TIP3    H143072   5.032   3.605   2.901 -0.8399 -0.1128 -0.1595
 7219TIP3    H243073   5.051   3.472   2.832  1.5663 -0.0784  0.3583
 7220TIP3   OH243074   3.738   5.303   2.209  0.0686 -0.2164 -0.2859
 7220TIP3    H143075   3.693   5.267   2.286 -1.2513 -2.6108 -2.0269
 7220TIP3    H243076   3.830   5.301   2.232 -0.2501 -1.3842  1.0656
 7221TIP3   OH243077   5.354   3.452  11.251 -0.1669 -0.4171  0.7716
 7221TIP3    H143078   5.299   3.376  11.232 -2.0011  1.4139 -1.8600
 7221TIP3    H243079   5.403   3.426  11.330  0.6657 -4.9621 -0.9062
 7222TIP3   OH243080   1.113   3.147   6.216 -0.2549 -0.6455 -0.1591
 7222TIP3    H143081   1.118   3.056   6.246 -0.1512 -0.4686  0.3688
 7222TIP3    H243082   1.090   3.141   6.123  2.9036 -1.3120 -0.9920
 7223TIP3   OH243083   0.493   2.885  13.130  0.2500 -0.2359 -0.2447
 7223TIP3    H143084   0.437   2.929  13.066  0.4193  0.5929  0.1488
 7223TIP3    H243085   0.528   2.809  13.085  0.3482  0.3216 -1.1302
 7224TIP3   OH243086   1.642   6.548   5.914  0.5310  0.6701  0.7852
 7224TIP3    H143087   1.642   6.493   5.835  1.4616 -0.2226  1.3768
 7224TIP3    H243088   1.554   6.541   5.949  0.7410 -0.7911  1.0654
 7225TIP3   OH243089   2.634   4.285  12.088  0.2671  0.6246 -0.2764
 7225TIP3    H143090   2.695   4.277  12.162 -1.2925 -0.4056  0.9616
 7225TIP3    H243091   2.564   4.340  12.121  0.3996  1.6318 -1.6176
 7226TIP3   OH243092   1.064   3.533  10.870  0.6840  0.4569 -0.9284
 7226TIP3    H143093   1.099   3.541  10.781 -1.2644  0.1303 -1.7858
 7226TIP3    H243094   1.020   3.448  10.872 -1.3323  1.4275 -0.4774
 7227TIP3   OH243095   2.703   0.409   2.018 -0.0844 -0.0212 -0.0240
 7227TIP3    H143096   2.779   0.353   2.039  0.7049  0.6731 -0.9200
 7227TIP3    H243097   2.742   0.489   1.984 -1.2112  0.9503  0.8869
 7228TIP3   OH243098   2.607   5.385  16.057 -0.2386 -0.4360 -0.3614
 7228TIP3    H143099   2.518   5.398  16.089 -0.3277 -4.1867  1.3958
 7228TIP3    H243100   2.599   5.391  15.962 -2.0151  0.8906 -0.1765
 7229TIP3   OH243101   5.504   4.203  11.942  0.5139  0.4252  0.1768
 7229TIP3    H143102   5.579   4.144  11.950  1.1239  1.2874  1.0132
 7229TIP3    H243103   5.435   4.161  11.993  0.0535 -0.8901 -1.4235
 7230TIP3   OH243104   4.059   3.488   6.497 -0.1857  0.5503  0.5973
 7230TIP3    H143105   4.151   3.463   6.497 -0.0874  0.8896 -0.4575
 7230TIP3    H243106   4.015   3.416   6.542  0.6148  0.5189  1.3686
 7231TIP3   OH243107   1.174   3.492   1.015 -0.3555 -0.4429  0.8955
 7231TIP3    H143108   1.139   3.582   1.013  0.0398 -0.2994  0.3026
 7231TIP3    H243109   1.261   3.501   1.053 -0.1584 -0.5161  0.4708
 7232TIP3   OH243110   1.195   2.701   4.438 -0.2180 -0.4652 -0.5372
 7232TIP3    H143111   1.245   2.621   4.456 -1.1413 -0.9279  0.0672
 7232TIP3    H243112   1.254   2.755   4.385  0.7746 -1.1383 -0.1460
 7233TIP3   OH243113   4.771   5.864   2.323 -0.1563 -0.0141 -0.8884
 7233TIP3    H143114   4.691   5.906   2.291  1.2864  2.3086 -1.6882
 7233TIP3    H243115   4.767   5.873   2.418 -0.0658  1.6921 -1.0221
 7234TIP3   OH243116   2.143   3.522  10.843  0.0867  0.2418  0.5171
 7234TIP3    H143117   2.132   3.554  10.754  1.2280 -1.5725 -0.3354
 7234TIP3    H243118   2.058   3.537  10.885 -1.5491 -1.5956 -1.8110
 7235TIP3   OH243119   3.112   0.814  12.899 -0.0265  0.2649 -0.2953
 7235TIP3    H143120   3.026   0.854  12.916  0.2525  0.5133  0.5578
 7235TIP3    H243121   3.130   0.836  12.807  0.3048  2.5353  0.2291
 7236TIP3   OH243122   5.308   1.294   3.708  0.2158  0.1619 -0.1672
 7236TIP3    H143123   5.403   1.282   3.698  0.0382 -0.8578 -0.8087
 7236TIP3    H243124   5.272   1.271   3.622 -0.8518 -2.4679  0.8964
 7237TIP3   OH243125   0.304   1.206  14.932 -0.2355 -0.8108  0.1454
 7237TIP3    H143126   0.211   1.207  14.907 -0.2912 -1.7163  0.2971
 7237TIP3    H243127   0.335   1.120  14.905  0.2824 -0.9389  1.1088
 7238TIP3   OH243128   4.226   0.922  11.275  0.1270  0.0520 -0.0415
 7238TIP3    H143129   4.294   0.856  11.287 -0.3516 -0.3417  0.5653
 7238TIP3    H243130   4.269   0.991  11.225  0.5611 -0.8274 -0.9232
 7239TIP3   OH243131   3.363   6.791   5.464  0.1092 -0.2168  0.5301
 7239TIP3    H143132   3.398   6.738   5.392  0.9279 -0.5754  1.1655
 7239TIP3    H243133   3.268   6.782   5.457  0.1943 -0.6305 -0.2164
 7240TIP3   OH243134   4.472   5.107   4.320  0.1781 -0.1748 -0.5043
 7240TIP3    H143135   4.455   5.159   4.242  0.0995 -0.2300 -0.5236
 7240TIP3    H243136   4.518   5.030   4.288  0.5511  0.0183 -0.4419
 7241TIP3   OH243137   1.910   4.446   5.402 -0.1851 -0.3830  0.2837
 7241TIP3    H143138   1.957   4.377   5.449  1.8583  0.5687 -0.2588
 7241TIP3    H243139   1.926   4.428   5.310 -0.4816  0.2457  0.1052
 7242TIP3   OH243140   5.969   0.004   4.998  0.1824 -0.5611 -0.0896
 7242TIP3    H143141   6.041  -0.058   5.002  0.2137 -0.5218 -0.0562
 7242TIP3    H243142   5.981   0.050   4.914  0.7371  0.1036  0.3415
 7243TIP3   OH243143   5.390   4.033   3.144  0.4530  0.6968  0.1600
 7243TIP3    H143144   5.353   4.035   3.232 -2.9082  0.5077 -1.1217
 7243TIP3    H243145   5.336   4.094   3.094  2.2772  0.8020 -1.8102
 7244TIP3   OH243146   6.579   5.627  13.688 -0.1691 -0.2196 -0.3792
 7244TIP3    H143147   6.610   5.537  13.700  0.2577 -0.1239 -0.7049
 7244TIP3    H243148   6.655   5.673  13.652 -0.0758  0.5093  0.6993
 7245TIP3   OH243149   2.436   3.665  13.673 -0.3687  0.0232  0.2698
 7245TIP3    H143150   2.361   3.692  13.727 -1.1891 -0.7870 -0.4303
 7245TIP3    H243151   2.397   3.637  13.591  0.5286 -2.1036  0.5008
 7246TIP3   OH243152   5.040   3.502  16.803 -0.1863 -0.1506  0.3712
 7246TIP3    H143153   5.027   3.411  16.776  1.1692  0.1017 -1.2681
 7246TIP3    H243154   5.109   3.535  16.746 -0.6535  1.9261  0.9120
 7247TIP3   OH243155   6.165   5.596  15.503 -0.2273  0.3400 -0.8238
 7247TIP3    H143156   6.260   5.604  15.497 -0.3147  0.5796 -2.1297
 7247TIP3    H243157   6.131   5.667  15.448 -1.1368 -0.6031 -1.5121
 7248TIP3   OH243158   1.331   1.241  11.512 -0.4634  0.5010  0.3965
 7248TIP3    H143159   1.363   1.314  11.564  0.1262  1.3674 -1.1274
 7248TIP3    H243160   1.403   1.179  11.510 -0.9036 -0.0907  1.5448
 7249TIP3   OH243161   1.752   3.247   5.283  0.7921 -0.0631 -0.1570
 7249TIP3    H143162   1.737   3.180   5.216  1.0432 -0.8779  0.5847
 7249TIP3    H243163   1.835   3.287   5.258  0.5895  0.0399 -0.6646
 7250TIP3   OH243164   3.476   5.210   4.105  0.1687  0.2005  0.0832
 7250TIP3    H143165   3.435   5.277   4.051 -1.1632  0.6640  1.6058
 7250TIP3    H243166   3.568   5.238   4.112  0.9395 -0.8472 -3.3474
 7251TIP3   OH243167   5.096   3.109  15.788  0.1699 -0.4015 -0.3030
 7251TIP3    H143168   5.063   3.137  15.702 -1.5543 -5.0521 -1.4427
 7251TIP3    H243169   5.191   3.103  15.775  0.4022  2.4036 -0.5797
 7252TIP3   OH243170   6.302   5.574  12.437  0.0079  0.0652 -0.3535
 7252TIP3    H143171   6.262   5.614  12.360 -0.1920  1.6364  0.5300
 7252TIP3    H243172   6.228   5.555  12.495  0.1825 -0.8740 -0.4112
 7253TIP3   OH243173   5.955   5.558   1.938 -0.7044  0.2210 -0.2539
 7253TIP3    H143174   5.894   5.590   2.005 -0.3996 -0.7169  0.4998
 7253TIP3    H243175   5.903   5.500   1.884 -1.3828  2.2452 -1.9233
 7254TIP3   OH243176   4.374   5.335  16.229 -0.0959  0.0803  0.2287
 7254TIP3    H143177   4.342   5.425  16.222  2.1049  0.8210 -1.6726
 7254TIP3    H243178   4.309   5.283  16.182 -1.7830  0.4977  1.9791
 7255TIP3   OH243179   4.817   0.599  11.933 -0.1184  0.1450 -0.0824
 7255TIP3    H143180   4.873   0.664  11.889  0.1837  0.3921  0.6435
 7255TIP3    H243181   4.740   0.592  11.877  0.1862  0.5686 -0.5679
 7256TIP3   OH243182   1.234   3.698   3.523 -0.0026 -0.0397  0.5263
 7256TIP3    H143183   1.278   3.713   3.440 -2.9209  0.3993 -1.0868
 7256TIP3    H243184   1.206   3.606   3.519  1.2554 -0.5112  1.8156
 7257TIP3   OH243185   3.876   5.092  17.098  0.1737 -0.9436 -0.6078
 7257TIP3    H143186   3.960   5.052  17.119  0.6312  0.4260  0.3403
 7257TIP3    H243187   3.885   5.119  17.007  1.5385  0.9123  0.0135
 7258TIP3   OH243188   3.030   3.231  16.306  0.1846  0.4379  0.2345
 7258TIP3    H143189   3.088   3.297  16.267  1.5985 -0.4030  0.8538
 7258TIP3    H243190   3.004   3.270  16.390  0.6488  0.4154  0.3937
 7259TIP3   OH243191   1.894   0.190  12.134 -0.5594 -0.2224  0.0265
 7259TIP3    H143192   1.929   0.279  12.144 -0.3082  0.0411 -2.5702
 7259TIP3    H243193   1.972   0.135  12.122 -0.6960 -0.8932  1.9052
 7260TIP3   OH243194   0.190   1.169  11.596  0.3229 -0.1564 -0.3087
 7260TIP3    H143195   0.210   1.137  11.684 -0.8051 -0.0118  0.0177
 7260TIP3    H243196   0.222   1.101  11.538  1.9118  0.1602  0.1573
 7261TIP3   OH243197   2.777   6.777   2.163  0.1605  0.3171 -0.1949
 7261TIP3    H143198   2.702   6.719   2.172  0.6011 -0.2348 -0.0025
 7261TIP3    H243199   2.781   6.824   2.246 -0.0655  0.4679 -0.2677
 7262TIP3   OH243200   3.702   2.387  15.595  0.5223 -0.6887 -0.3861
 7262TIP3    H143201   3.763   2.389  15.669  1.1347  0.0844 -0.9099
 7262TIP3    H243202   3.682   2.294  15.584  1.5151 -0.9451 -0.1382
 7263TIP3   OH243203   2.674   3.996  15.131 -0.2952 -0.0600  0.3567
 7263TIP3    H143204   2.688   3.986  15.037 -0.4013 -0.4988  0.3869
 7263TIP3    H243205   2.578   3.997  15.141 -0.2860 -0.3419  0.4909
 7264TIP3   OH243206   1.845   0.339  13.793 -0.2355  0.0807 -0.2105
 7264TIP3    H143207   1.879   0.355  13.881 -0.3672 -0.0318 -0.1398
 7264TIP3    H243208   1.923   0.319  13.741 -0.1969 -0.2005 -0.0433
 7265TIP3   OH243209   5.370   4.512  14.171 -0.4793  0.3476 -0.4674
 7265TIP3    H143210   5.342   4.474  14.254  0.8205  0.2454 -0.0380
 7265TIP3    H243211   5.290   4.543  14.129 -1.2921 -0.7107  0.2617
 7266TIP3   OH243212   1.569   6.317   2.863 -0.6217  0.4874 -0.0552
 7266TIP3    H143213   1.615   6.401   2.873  2.2097 -0.8982 -0.7248
 7266TIP3    H243214   1.494   6.325   2.922  0.8292  2.6439  1.6744
 7267TIP3   OH243215   6.007   4.442   5.924 -0.7230 -0.1658 -0.3003
 7267TIP3    H143216   6.025   4.374   5.860 -0.1529  0.1468 -0.4802
 7267TIP3    H243217   6.093   4.471   5.954 -0.9398  0.7345 -0.5038
 7268TIP3   OH243218   1.170   3.468   3.075  0.0031  0.5885  0.1429
 7268TIP3    H143219   1.246   3.456   3.018 -0.3049  0.0790 -0.1609
 7268TIP3    H243220   1.146   3.380   3.102 -0.7096  0.7132 -0.0675
 7269TIP3   OH243221   4.198   2.264  14.225  0.0272  0.0445 -0.5311
 7269TIP3    H143222   4.278   2.215  14.205  0.1252 -0.7461  1.5586
 7269TIP3    H243223   4.227   2.354  14.235  0.5683 -0.1506 -0.3244
 7270TIP3   OH243224   5.722   3.203   3.471  0.4252 -0.0764 -0.1273
 7270TIP3    H143225   5.809   3.168   3.448  0.3791 -0.6749  0.5619
 7270TIP3    H243226   5.732   3.298   3.464  0.1827 -0.1710 -3.3935
 7271TIP3   OH243227   0.878   2.393  12.264 -0.2606 -0.4983 -0.0806
 7271TIP3    H143228   0.882   2.436  12.349  1.2376  0.1310 -0.4355
 7271TIP3    H243229   0.969   2.372  12.243 -0.6926 -1.4063 -1.1431
 7272TIP3   OH243230   0.498   2.035   4.948  0.2483  0.0818  0.2560
 7272TIP3    H143231   0.512   1.964   4.885  1.0265  1.4074 -1.1419
 7272TIP3    H243232   0.403   2.041   4.958  0.1842 -1.5518  0.9091
 7273TIP3   OH243233   1.432   3.564   1.110  0.0164  0.0685 -0.1058
 7273TIP3    H143234   1.489   3.516   1.171 -1.4243  1.2523  2.3187
 7273TIP3    H243235   1.438   3.655   1.139 -2.3002  0.3665 -0.4338
 7274TIP3   OH243236   1.698   4.625  11.307  0.1433  0.4363  0.1955
 7274TIP3    H143237   1.747   4.687  11.362  0.1892 -0.1125  0.7881
 7274TIP3    H243238   1.664   4.678  11.235  0.9524  0.9737  0.1992
 7275TIP3   OH243239   2.530   2.758  12.471  0.5576 -0.0042 -0.5478
 7275TIP3    H143240   2.562   2.812  12.398  0.9168  2.9012  1.5890
 7275TIP3    H243241   2.437   2.745  12.451 -0.3787  4.1039  0.1560
 7276TIP3   OH243242   4.207   4.392   4.072 -0.3586 -0.5216 -0.0238
 7276TIP3    H143243   4.155   4.312   4.073 -1.8949  0.4159 -0.8890
 7276TIP3    H243244   4.150   4.459   4.111  0.3213  0.4574 -0.6567
 7277TIP3   OH243245   6.731   3.477  15.929  0.4610 -0.0164  0.3259
 7277TIP3    H143246   6.808   3.429  15.899  0.4809 -0.8587  1.6228
 7277TIP3    H243247   6.697   3.424  16.001 -1.3844  0.3012 -0.2622
 7278TIP3   OH243248   3.520   3.123   1.635  0.7491  0.1418 -0.3828
 7278TIP3    H143249   3.531   3.180   1.711  1.3523  0.2052 -0.5137
 7278TIP3    H243250   3.426   3.125   1.617  0.6837  0.6115 -0.0163
 7279TIP3   OH243251   6.488   2.734  10.334 -0.5343  0.1022  0.4907
 7279TIP3    H143252   6.424   2.787  10.286 -2.0211 -1.2093  0.9514
 7279TIP3    H243253   6.557   2.796  10.358 -0.2085  1.0273 -2.3993
 7280TIP3   OH243254   1.677   5.615  12.748  0.1973  0.1492  0.0514
 7280TIP3    H143255   1.676   5.596  12.842 -0.3592  1.0987  0.2510
 7280TIP3    H243256   1.708   5.534  12.707 -0.7594 -0.7070  0.9551
 7281TIP3   OH243257   4.200   0.578   5.701 -0.0821  0.0697 -0.4475
 7281TIP3    H143258   4.175   0.670   5.708 -0.8720 -0.0227 -1.6275
 7281TIP3    H243259   4.200   0.561   5.606  0.1821 -1.1031 -0.2493
 7282TIP3   OH243260   1.990   1.889   4.198 -0.0296  0.1009 -0.4921
 7282TIP3    H143261   1.959   1.800   4.182  0.5810 -0.4577  1.2460
 7282TIP3    H243262   2.000   1.895   4.293  0.5397  1.8343 -0.6182
 7283TIP3   OH243263   5.197   4.781  10.688 -0.2716 -0.2040  0.1924
 7283TIP3    H143264   5.215   4.689  10.705 -0.8918 -0.2356  0.6931
 7283TIP3    H243265   5.106   4.783  10.659 -0.5033  0.3322  0.9284
 7284TIP3   OH243266   1.804   4.149  14.158  1.0770 -0.0012 -0.0382
 7284TIP3    H143267   1.769   4.062  14.179 -0.7298  0.4036 -1.1339
 7284TIP3    H243268   1.809   4.193  14.243  1.9213 -1.1052  0.5227
 7285TIP3   OH243269   3.544   4.322   3.742  0.4841  0.1303 -0.0238
 7285TIP3    H143270   3.548   4.228   3.721  0.9253  0.8704 -3.8480
 7285TIP3    H243271   3.635   4.347   3.757  0.3534 -0.0081  1.1261
 7286TIP3   OH243272   5.503   1.908   3.684 -0.0339  0.5288  0.4373
 7286TIP3    H143273   5.420   1.944   3.715 -0.9228 -1.7575  0.9055
 7286TIP3    H243274   5.502   1.816   3.713  1.6220 -0.1843 -1.5220
 7287TIP3   OH243275   5.721   0.988   3.756  0.5710 -0.1463 -0.1999
 7287TIP3    H143276   5.799   0.970   3.809  0.3714  2.2500  1.0466
 7287TIP3    H243277   5.665   1.041   3.813 -1.3903 -0.6764 -1.5413
 7288TIP3   OH243278   4.293   6.378   1.079 -0.0878  0.0664  0.7398
 7288TIP3    H143279   4.381   6.338   1.081  0.8232  1.9619  2.8971
 7288TIP3    H243280   4.258   6.352   0.993  2.1798 -1.5404  0.1750
 7289TIP3   OH243281   0.093   0.933  15.597  0.5563  0.4650  0.3362
 7289TIP3    H143282   0.146   1.012  15.603  0.1966  0.7520 -0.1819
 7289TIP3    H243283   0.149   0.864  15.632  1.2554  0.7698 -0.1540
 7290TIP3   OH243284   2.643   1.101   4.345  0.3813 -0.0900 -0.6061
 7290TIP3    H143285   2.715   1.162   4.328  0.4123 -0.0854 -0.4661
 7290TIP3    H243286   2.668   1.022   4.299  1.3504 -0.6900  0.8500
 7291TIP3   OH243287   6.745   3.107  11.825 -0.1282  0.1407  0.5399
 7291TIP3    H143288   6.757   3.045  11.753 -0.2027 -0.7751  1.3017
 7291TIP3    H243289   6.711   3.055  11.897 -0.8775  1.2047  0.9852
 7292TIP3   OH243290   4.051   3.089   5.126  0.6228  0.0992  0.2399
 7292TIP3    H143291   3.986   3.037   5.079  0.6424  0.3240 -0.0381
 7292TIP3    H243292   4.102   3.131   5.057 -0.6608  2.1063  0.4229
 7293TIP3   OH243293   3.547   3.848   1.020 -0.1742 -0.2120 -0.3540
 7293TIP3    H143294   3.479   3.884   0.964 -0.9711  0.9108  1.2341
 7293TIP3    H243295   3.499   3.808   1.093  0.8281  1.4849  1.3101
 7294TIP3   OH243296   1.683   3.472   0.010  0.7077 -0.7041  0.3999
 7294TIP3    H143297   1.778   3.466   0.005  0.8195 -0.7703  2.0250
 7294TIP3    H243298   1.666   3.514   0.094 -0.6746  0.6954 -0.5323
 7295TIP3   OH243299   5.365   2.983  15.240 -0.1631 -0.2886 -0.0450
 7295TIP3    H143300   5.439   3.026  15.198 -0.7010  0.1119 -0.6111
 7295TIP3    H243301   5.349   3.034  15.319 -0.4536  0.2396 -0.4336
 7296TIP3   OH243302   1.739   3.192  16.858  0.5759  0.1706 -0.0885
 7296TIP3    H143303   1.791   3.119  16.891 -0.6493  1.3905  5.5571
 7296TIP3    H243304   1.792   3.270  16.877 -0.2377  1.0301 -1.2302
 7297TIP3   OH243305   3.546   3.112   2.352  0.7975  0.5077  0.3376
 7297TIP3    H143306   3.556   3.134   2.444  1.5226 -0.2379  0.4419
 7297TIP3    H243307   3.500   3.188   2.315  1.6443  1.4022  1.0472
 7298TIP3   OH243308   1.645   3.022  11.931  0.3777  0.3549 -0.0867
 7298TIP3    H143309   1.651   3.106  11.885  2.2936  0.7664  0.8457
 7298TIP3    H243310   1.579   2.973  11.881  0.3559  1.8137 -1.5916
 7299TIP3   OH243311   3.069   6.792  12.800  0.2484 -0.0875 -0.5268
 7299TIP3    H143312   3.002   6.725  12.813  0.9246 -0.9237 -1.1887
 7299TIP3    H243313   3.021   6.875  12.800 -0.5496 -0.5267  0.7488
 7300TIP3   OH243314   2.689   0.936   1.619  0.0995 -0.2167 -0.5656
 7300TIP3    H143315   2.603   0.894   1.628  1.1358 -2.3395  0.0233
 7300TIP3    H243316   2.686   0.980   1.534 -1.5214 -0.2975 -0.5861
 7301TIP3   OH243317   3.236   2.563   5.466 -0.0472 -0.1200 -0.9750
 7301TIP3    H143318   3.170   2.548   5.533  0.1488  1.1547 -0.4547
 7301TIP3    H243319   3.263   2.476   5.439 -1.3928 -0.6609 -0.6600
 7302TIP3   OH243320   4.866   2.634   3.868 -0.5086 -0.4431 -0.1448
 7302TIP3    H143321   4.947   2.661   3.913  0.3684 -1.1416 -1.2331
 7302TIP3    H243322   4.896   2.570   3.804 -1.9591 -0.7465 -0.5370
 7303TIP3   OH243323   0.990   1.136   2.474 -0.7921 -0.4580 -0.5511
 7303TIP3    H143324   0.943   1.151   2.392 -0.4813 -0.1895 -0.6833
 7303TIP3    H243325   1.080   1.163   2.455 -0.7235 -0.3683 -0.1125
 7304TIP3   OH243326   1.636   1.186  11.902 -0.2994 -0.4885 -0.2751
 7304TIP3    H143327   1.630   1.166  11.809 -0.7549 -0.0907 -0.3356
 7304TIP3    H243328   1.602   1.275  11.910  1.1757  0.0744  0.0574
 7305TIP3   OH243329   3.590   3.560  12.949  0.1601 -0.5955  0.2462
 7305TIP3    H143330   3.587   3.502  12.873  0.2674  1.2354 -1.2334
 7305TIP3    H243331   3.532   3.519  13.012 -0.9935 -1.5163 -1.3226
 7306TIP3   OH243332   0.160   0.325  13.345  0.3162 -0.6876  0.2640
 7306TIP3    H143333   0.104   0.402  13.333 -0.6445 -1.3783  0.2241
 7306TIP3    H243334   0.246   0.361  13.365  0.6230  0.4779 -2.6103
 7307TIP3   OH243335   0.915   5.788   5.369  0.0305  0.1706 -0.5477
 7307TIP3    H143336   0.837   5.843   5.359  1.2976  2.3771  0.7600
 7307TIP3    H243337   0.971   5.812   5.295  0.0281 -0.4109 -0.7432
 7308TIP3   OH243338   6.570   4.804   3.003 -0.8529  0.0292 -0.5758
 7308TIP3    H143339   6.606   4.726   2.961 -0.9198 -0.1980 -0.2119
 7308TIP3    H243340   6.617   4.877   2.962  1.0464 -0.3258  0.8520
 7309TIP3   OH243341   1.460   1.371  14.036  0.0838  0.0024  0.1621
 7309TIP3    H143342   1.385   1.403  14.087  0.6516 -0.4219  1.2981
 7309TIP3    H243343   1.422   1.312  13.971 -0.3678 -2.9505  2.8901
 7310TIP3   OH243344   5.370   5.915   0.064 -0.0608 -0.0683 -0.4335
 7310TIP3    H143345   5.362   5.878   0.152 -2.3266  0.4727 -0.3349
 7310TIP3    H243346   5.460   5.898   0.038  0.4054 -1.0305  1.6367
 7311TIP3   OH243347   0.110   2.961  11.355 -0.2041 -0.3842 -0.0658
 7311TIP3    H143348   0.068   2.881  11.323 -2.3399  0.2442  0.9637
 7311TIP3    H243349   0.183   2.975  11.295 -0.5985 -2.3494 -1.0950
 7312TIP3   OH243350   2.190   4.813  14.662  0.4751 -0.3514 -0.2998
 7312TIP3    H143351   2.173   4.863  14.582 -1.3049 -0.7298 -0.2078
 7312TIP3    H243352   2.230   4.731  14.631  0.8408 -0.0284 -0.6907
 7313TIP3   OH243353   3.436   4.342  14.629  0.0770 -0.3045 -0.6428
 7313TIP3    H143354   3.356   4.394  14.643 -1.9173 -3.3514  0.1216
 7313TIP3    H243355   3.454   4.302  14.714  0.6529 -2.0406 -1.5493
 7314TIP3   OH243356   4.071   5.601  12.765  0.2954  0.3455 -0.2947
 7314TIP3    H143357   3.981   5.582  12.740  0.3603 -0.1028 -0.1989
 7314TIP3    H243358   4.123   5.536  12.719  0.3644 -0.9166  1.4597
 7315TIP3   OH243359   2.963   1.769  12.441  0.7229 -0.5324  0.1241
 7315TIP3    H143360   2.881   1.790  12.486  0.8372  0.3364 -0.0545
 7315TIP3    H243361   3.028   1.764  12.511  1.2159  2.3685  0.0025
 7316TIP3   OH243362   4.671   5.357  15.176  0.0125  0.5964  0.1262
 7316TIP3    H143363   4.653   5.451  15.169 -0.0469  0.6290  0.6701
 7316TIP3    H243364   4.749   5.344  15.122 -0.4248  0.8215 -0.5656
 7317TIP3   OH243365   2.911   5.429  10.922  0.2727  0.1841  0.0081
 7317TIP3    H143366   2.883   5.516  10.950  0.3721 -0.0148  0.7610
 7317TIP3    H243367   2.923   5.437  10.827  0.1252  0.9420  0.0432
 7318TIP3   OH243368   5.272   5.296  16.770 -0.1732  0.1258 -0.2651
 7318TIP3    H143369   5.306   5.296  16.680  0.0571 -1.0731 -0.1927
 7318TIP3    H243370   5.303   5.379  16.807  2.1180 -0.6079 -0.4125
 7319TIP3   OH243371   5.345   4.620  15.644 -0.1402 -0.3150 -0.0892
 7319TIP3    H143372   5.393   4.661  15.572  0.6177 -1.4798 -0.2889
 7319TIP3    H243373   5.331   4.690  15.707  1.7270  0.1237 -0.0974
 7320TIP3   OH243374   5.974   3.370   1.076 -0.0903  0.8315 -0.9249
 7320TIP3    H143375   5.994   3.382   1.169  1.5400  1.3072 -1.2999
 7320TIP3    H243376   5.883   3.397   1.068 -0.1341  1.2207  0.4568
 7321TIP3   OH243377   3.907   4.793  12.041  0.5815 -0.2569  0.1797
 7321TIP3    H143378   3.894   4.835  11.956 -0.6104 -0.9973 -0.0162
 7321TIP3    H243379   3.931   4.702  12.020 -3.5583 -1.6241  0.5448
 7322TIP3   OH243380   2.336   0.363  10.979  0.1747  0.3357  0.1212
 7322TIP3    H143381   2.301   0.284  11.020  1.6078 -0.0928  0.5497
 7322TIP3    H243382   2.363   0.418  11.052  1.5110  0.1355 -0.2031
 7323TIP3   OH243383   4.044   5.706   1.049  0.0875  0.1574 -0.2444
 7323TIP3    H143384   3.954   5.677   1.065  0.1955 -0.7383 -1.1739
 7323TIP3    H243385   4.096   5.626   1.055  0.6374  0.4428 -1.0609
 7324TIP3   OH243386   4.146   0.527  11.131  0.7651 -0.0391  0.4062
 7324TIP3    H143387   4.214   0.528  11.064  0.3617  0.8976 -0.0006
 7324TIP3    H243388   4.108   0.615  11.128 -1.1845 -0.8511 -0.1159
 7325TIP3   OH243389   1.913   5.915   5.762  0.5119 -0.1633  0.3382
 7325TIP3    H143390   1.908   6.005   5.730  1.3952 -0.1941  0.0864
 7325TIP3    H243391   1.822   5.887   5.768  0.2633 -0.0913 -2.0056
 7326TIP3   OH243392   5.287   5.725  14.503  0.1909 -0.1705  0.0841
 7326TIP3    H143393   5.208   5.688  14.542  0.2993 -1.3359 -0.7535
 7326TIP3    H243394   5.314   5.661  14.438  2.1159 -0.0483  0.6993
 7327TIP3   OH243395   0.979   2.500  16.415 -0.3589  0.7199  0.8373
 7327TIP3    H143396   0.934   2.575  16.378 -1.0080  0.2959  0.7422
 7327TIP3    H243397   0.960   2.428  16.355  2.1071  0.9196 -0.3243
 7328TIP3   OH243398   2.226   6.717  15.154  0.9777  0.1999 -0.3507
 7328TIP3    H143399   2.196   6.633  15.189  0.1403  0.9383  0.7909
 7328TIP3    H243400   2.234   6.773  15.231  0.0795  1.6083 -1.2404
 7329TIP3   OH243401   5.372   6.782   0.395 -0.3370 -0.1666  0.1981
 7329TIP3    H143402   5.323   6.701   0.409  2.1122 -1.8068 -0.2265
 7329TIP3    H243403   5.456   6.754   0.359 -0.6010  2.7533 -3.2728
 7330TIP3   OH243404   2.270   4.965   2.363  0.2784 -0.2693  0.3223
 7330TIP3    H143405   2.365   4.955   2.355  0.2918 -0.0950  0.2472
 7330TIP3    H243406   2.238   4.877   2.383  0.1371 -0.9563 -2.5358
 7331TIP3   OH243407   1.183   3.618  11.986  0.0071  0.3550 -0.2598
 7331TIP3    H143408   1.150   3.652  11.903 -0.9832  1.4860  0.5638
 7331TIP3    H243409   1.104   3.595  12.036  0.6053 -1.1928  0.0262
 7332TIP3   OH243410   5.454   6.530   5.996 -0.1305  0.0471  0.5047
 7332TIP3    H143411   5.483   6.603   5.941 -0.8873  0.3181  0.4531
 7332TIP3    H243412   5.522   6.464   5.985 -0.4899 -0.0976 -1.1481
 7333TIP3   OH243413   5.483   4.473  12.037 -0.5622  0.2856 -0.1667
 7333TIP3    H143414   5.560   4.481  11.980 -0.9557  3.0321 -0.4414
 7333TIP3    H243415   5.461   4.380  12.034  0.6269 -0.0110 -2.9256
 7334TIP3   OH243416   1.196   4.283   4.673 -0.1161  0.1867  0.1543
 7334TIP3    H143417   1.145   4.301   4.753  0.3167  0.4627  0.3688
 7334TIP3    H243418   1.287   4.295   4.699  0.0166  0.5176 -0.4452
 7335TIP3   OH243419   3.831   6.151  16.354  0.2551  0.5356  0.0270
 7335TIP3    H143420   3.887   6.185  16.284  0.3031  1.3870  0.4633
 7335TIP3    H243421   3.853   6.204  16.430 -0.2277  0.0171  0.5391
 7336TIP3   OH243422   4.634   5.063  13.904 -0.1068  0.3827  0.0741
 7336TIP3    H143423   4.723   5.035  13.882 -0.4571  0.0712 -1.0333
 7336TIP3    H243424   4.618   5.026  13.991  0.0343 -1.5510 -0.6652
 7337TIP3   OH243425   6.702   0.140   1.219 -0.0592  0.6608  0.3236
 7337TIP3    H143426   6.737   0.165   1.304 -1.4019 -0.6764  1.3176
 7337TIP3    H243427   6.739   0.053   1.202  0.3496  0.9949 -0.5601
 7338TIP3   OH243428   6.621   2.083   1.005 -0.2091  0.2742 -0.4123
 7338TIP3    H143429   6.663   2.017   1.060  0.9583 -0.3061 -1.9080
 7338TIP3    H243430   6.615   2.041   0.918  0.1528  1.9669 -1.2877
 7339TIP3   OH243431   6.136   2.847   4.962  0.4390 -0.2486  0.0051
 7339TIP3    H143432   6.118   2.912   5.030  0.8906  0.3677 -0.4547
 7339TIP3    H243433   6.226   2.866   4.935 -0.4522  0.9515 -2.3156
 7340TIP3   OH243434   5.430   6.559   3.401  0.4935  0.0528 -0.3235
 7340TIP3    H143435   5.413   6.649   3.430 -0.5351 -0.2007 -0.0962
 7340TIP3    H243436   5.503   6.530   3.454 -0.6793 -0.0362  1.3238
 7341TIP3   OH243437   3.698   3.766   1.333  0.7276  0.0820  0.2550
 7341TIP3    H143438   3.775   3.819   1.310  2.3869 -2.1645  0.2531
 7341TIP3    H243439   3.652   3.753   1.250  1.9487 -0.9057 -0.2935
 7342TIP3   OH243440   3.758   4.327  13.078  0.1873 -0.2920 -0.9503
 7342TIP3    H143441   3.810   4.248  13.092  0.8077  0.5387  2.6566
 7342TIP3    H243442   3.809   4.380  13.018  1.5658 -1.1717 -0.5890
 7343TIP3   OH243443   4.274   6.470  12.323 -0.0804 -0.5117  0.6928
 7343TIP3    H143444   4.214   6.540  12.298  0.4814  0.3972  1.7838
 7343TIP3    H243445   4.217   6.396  12.344 -0.7432 -0.1104  0.3439
 7344TIP3   OH243446   3.631   0.645   2.078 -0.3987 -0.5627  0.6202
 7344TIP3    H143447   3.675   0.589   2.014 -1.1625 -0.5014  0.0301
 7344TIP3    H243448   3.564   0.590   2.117  0.0461 -0.5896  1.3522
 7345TIP3   OH243449   5.216   2.796  13.463  0.2247 -0.2579  0.2188
 7345TIP3    H143450   5.208   2.831  13.551  0.1637  0.2403  0.0190
 7345TIP3    H243451   5.140   2.830  13.416  2.0921  2.5905 -1.0628
 7346TIP3   OH243452   3.271   5.223  13.656 -0.1032  0.2334  0.3757
 7346TIP3    H143453   3.252   5.161  13.727  0.3250  0.6619  0.8735
 7346TIP3    H243454   3.197   5.214  13.596 -0.7570  0.2519  1.1549
 7347TIP3   OH243455   4.029   4.891   0.357  0.5223 -0.3358 -0.4279
 7347TIP3    H143456   4.116   4.905   0.395  1.4176 -0.1329 -2.4210
 7347TIP3    H243457   3.980   4.971   0.379  1.1375 -0.0443 -0.0805
 7348TIP3   OH243458   1.894   3.556  14.234 -0.1126  0.2167 -0.1048
 7348TIP3    H143459   1.883   3.491  14.165 -0.0012 -0.1977  0.2654
 7348TIP3    H243460   1.916   3.505  14.312 -0.1914  0.6838  0.2271
 7349TIP3   OH243461   5.994   4.303  14.851  0.2215  0.2837  0.2250
 7349TIP3    H143462   6.080   4.327  14.817  0.0907 -0.1512 -0.4164
 7349TIP3    H243463   6.012   4.230  14.911  0.0195 -1.7290 -2.0435
 7350TIP3   OH243464   4.992   2.556  16.407 -0.2082 -0.4038 -0.4550
 7350TIP3    H143465   5.062   2.619  16.423  0.4101 -1.4836  1.5003
 7350TIP3    H243466   4.925   2.577  16.472 -0.1914 -1.4318 -0.0800
 7351TIP3   OH243467   4.454   4.655  12.384 -0.5075 -0.7055 -0.0980
 7351TIP3    H143468   4.430   4.634  12.474  2.3100 -2.9524  0.2739
 7351TIP3    H243469   4.382   4.620  12.331 -2.3048  0.8386  1.2180
 7352TIP3   OH243470   4.930   0.225   3.509  0.1538  0.3228  0.0115
 7352TIP3    H143471   4.893   0.303   3.550 -1.2546  0.1288 -0.8295
 7352TIP3    H243472   5.012   0.254   3.470 -0.2887  1.3598 -0.1728
 7353TIP3   OH243473   1.128   5.463  16.073  0.0642  0.0152  0.8020
 7353TIP3    H143474   1.196   5.397  16.066  0.8328  0.5144  2.7323
 7353TIP3    H243475   1.163   5.539  16.026 -1.6801 -1.4432 -3.2076
 7354TIP3   OH243476   1.008   0.370  12.797 -0.0016 -0.0188 -0.1845
 7354TIP3    H143477   1.024   0.276  12.784  1.0419  0.3136 -1.5660
 7354TIP3    H243478   1.078   0.397  12.856 -1.3643 -0.4167  1.7013
 7355TIP3   OH243479   2.480   5.322  14.952  0.0549  0.3661  0.0145
 7355TIP3    H143480   2.562   5.285  14.918 -0.2266 -0.5759  0.3219
 7355TIP3    H243481   2.496   5.334  15.046 -0.5192 -0.9126  0.3020
 7356TIP3   OH243482   6.604   4.552  11.887  0.2516 -0.4668 -0.0394
 7356TIP3    H143483   6.594   4.513  11.974 -0.9315  0.0620  0.0760
 7356TIP3    H243484   6.677   4.504  11.848  1.0316 -0.4930  1.3600
 7357TIP3   OH243485   1.880   6.169   1.589 -0.3111 -0.0608 -0.0751
 7357TIP3    H143486   1.951   6.226   1.618  0.6359 -0.7674 -0.9328
 7357TIP3    H243487   1.805   6.196   1.641  0.4551  1.0466  0.4970
 7358TIP3   OH243488   5.233   2.356   5.278  0.2682  0.5201  0.3193
 7358TIP3    H143489   5.164   2.418   5.254 -0.1265  0.3245  0.9203
 7358TIP3    H243490   5.190   2.292   5.334  0.6729 -0.3021 -0.2828
 7359TIP3   OH243491   6.359   4.748  10.981  0.1517 -0.0494  0.0149
 7359TIP3    H143492   6.427   4.795  11.029  0.1275 -0.2039  0.1989
 7359TIP3    H243493   6.282   4.752  11.038  0.9623 -3.0122  1.4800
 7360TIP3   OH243494   3.524   0.005   4.867 -0.1523 -0.0142 -0.4317
 7360TIP3    H143495   3.449  -0.012   4.924 -0.5784  0.5184 -0.8253
 7360TIP3    H243496   3.530  -0.071   4.810 -1.1541  0.4691 -1.2176
 7361TIP3   OH243497   5.815   3.743   5.536 -0.4942  0.4799 -0.4366
 7361TIP3    H143498   5.819   3.835   5.512 -1.7323  0.4991 -0.6550
 7361TIP3    H243499   5.740   3.709   5.487  1.3298 -1.2296 -2.2415
 7362TIP3   OH243500   1.462   0.835  14.051 -0.6617  0.4079  0.6978
 7362TIP3    H143501   1.535   0.776  14.035 -2.2758 -1.6566  0.4913
 7362TIP3    H243502   1.496   0.900  14.112  1.6130  0.1369 -0.2040
 7363TIP3   OH243503   2.609   3.654   4.153  0.0271  0.3411 -0.1101
 7363TIP3    H143504   2.571   3.599   4.085  0.1076  0.1124  0.0312
 7363TIP3    H243505   2.574   3.620   4.235  0.4705  0.1807  0.0162
 7364TIP3   OH243506   2.141   5.791  12.904  0.2753  0.4527 -0.4624
 7364TIP3    H143507   2.236   5.799  12.902  0.2486  1.7820  1.0338
 7364TIP3    H243508   2.124   5.712  12.955  0.6212  1.3570  1.1300
 7365TIP3   OH243509   6.772   3.536  13.128 -0.2911  0.2683 -0.1255
 7365TIP3    H143510   6.749   3.511  13.217 -1.4594  0.3870 -0.3784
 7365TIP3    H243511   6.699   3.505  13.075  0.1043  0.7386 -0.9567
 7366TIP3   OH243512   2.869   4.221   5.949 -0.1952 -0.1914  0.9302
 7366TIP3    H143513   2.885   4.126   5.947 -0.3327 -0.2098  0.1402
 7366TIP3    H243514   2.886   4.247   6.039 -1.0440 -1.1278  1.3805
 7367TIP3   OH243515   3.543   4.721  13.295  0.9481  0.1838 -0.7562
 7367TIP3    H143516   3.452   4.692  13.299 -0.2357  3.6097  0.3679
 7367TIP3    H243517   3.569   4.706  13.204 -1.5497  1.2250 -1.7207
 7368TIP3   OH243518   4.539   0.219  15.784  0.1643 -0.1779  0.0851
 7368TIP3    H143519   4.553   0.267  15.866 -0.2637 -1.7773  1.1507
 7368TIP3    H243520   4.591   0.267  15.719  1.2032  0.6572  1.4628
 7369TIP3   OH243521   4.703   6.758   5.876  0.4010  0.0855  0.5178
 7369TIP3    H143522   4.696   6.665   5.894  0.3292 -0.0325 -0.1209
 7369TIP3    H243523   4.785   6.784   5.918 -0.6472  0.2147  2.6658
 7370TIP3   OH243524   5.617   5.751   5.445  0.4244 -0.6285  0.3590
 7370TIP3    H143525   5.617   5.759   5.349 -2.6074 -0.0723  0.3110
 7370TIP3    H243526   5.665   5.828   5.476  0.7839 -0.4143 -0.6901
 7371TIP3   OH243527   3.784   4.010  12.896  0.4285  0.6626 -0.4651
 7371TIP3    H143528   3.714   4.049  12.948  1.0737 -1.4876  2.2487
 7371TIP3    H243529   3.759   3.918  12.887  0.8094  0.7601 -3.3046
 7372TIP3   OH243530   0.573   5.443   1.348  0.2293 -0.9011 -0.0608
 7372TIP3    H143531   0.637   5.401   1.291  0.0692 -2.0310  0.5721
 7372TIP3    H243532   0.514   5.488   1.288 -0.9959 -3.5162 -0.9763
 7373TIP3   OH243533   3.243   4.221  11.731 -0.0241 -0.0307  0.2500
 7373TIP3    H143534   3.310   4.171  11.777 -0.3658 -1.0854 -0.3754
 7373TIP3    H243535   3.293   4.280  11.674  0.3825  0.5419  1.1696
 7374TIP3   OH243536   3.707   4.618   1.974 -0.4671  0.3021 -0.7871
 7374TIP3    H143537   3.682   4.635   2.065  2.3586 -1.2064  0.4045
 7374TIP3    H243538   3.639   4.559   1.942 -0.6541 -0.4762  0.9070
 7375TIP3   OH243539   3.583   4.051  16.904  0.4524 -0.1109  0.6600
 7375TIP3    H143540   3.591   4.109  16.829 -0.3219  1.4153  1.7129
 7375TIP3    H243541   3.543   4.104  16.972  0.2381 -1.7238  1.8676
 7376TIP3   OH243542   2.888   6.217   4.768 -0.4360  0.1660  0.3235
 7376TIP3    H143543   2.879   6.156   4.842  1.0022 -1.0263 -0.4138
 7376TIP3    H243544   2.809   6.271   4.771 -2.1641 -2.2110  0.5926
 7377TIP3   OH243545   1.639   6.412   3.533  0.1424 -0.0605 -0.2933
 7377TIP3    H143546   1.702   6.400   3.604  0.3162 -2.0043 -0.7050
 7377TIP3    H243547   1.617   6.505   3.535  1.0371  0.1526  1.5299
 7378TIP3   OH243548   4.720   3.289   5.062  0.0521  0.6195 -0.1564
 7378TIP3    H143549   4.625   3.295   5.073  0.2478  2.6105  0.6996
 7378TIP3    H243550   4.753   3.259   5.146  0.2669  0.8361 -0.1627
 7379TIP3   OH243551   6.165   5.113   1.288 -0.7566  0.1094  0.3446
 7379TIP3    H143552   6.205   5.165   1.218 -0.2768 -0.0614  0.4904
 7379TIP3    H243553   6.140   5.178   1.354  0.6621  0.0935  0.9346
 7380TIP3   OH243554   4.327   4.434   3.419 -0.0315  0.2179 -0.4712
 7380TIP3    H143555   4.407   4.468   3.459  0.0972 -0.3218 -0.2577
 7380TIP3    H243556   4.275   4.511   3.398  0.5659  0.5760 -0.6468
 7381TIP3   OH243557   3.968   5.747   2.627  0.6058  0.1380 -0.6779
 7381TIP3    H143558   4.000   5.825   2.674  1.1454  0.2496 -1.2148
 7381TIP3    H243559   4.026   5.677   2.656 -0.9910 -0.4939  1.1979
 7382TIP3   OH243560   6.099   1.672  13.681 -1.2756 -0.2683 -0.1261
 7382TIP3    H143561   6.107   1.767  13.695 -2.3037  0.0615 -1.4998
 7382TIP3    H243562   6.176   1.649  13.629 -0.8251 -0.2581  0.5368
 7383TIP3   OH243563   5.990   2.821  15.625  0.1845  0.6470  0.4389
 7383TIP3    H143564   6.027   2.907  15.641  1.7925 -0.0283  0.5658
 7383TIP3    H243565   5.919   2.836  15.563  0.9427  1.9767 -0.1339
 7384TIP3   OH243566   3.228   3.888  17.101  0.1887  0.5213  0.4411
 7384TIP3    H143567   3.232   3.984  17.106  2.0204  0.5080 -0.0888
 7384TIP3    H243568   3.249   3.858  17.189  0.9010  0.6136  0.3113
 7385TIP3   OH243569   3.756   6.193  10.952 -0.1205 -0.4949  0.4135
 7385TIP3    H143570   3.730   6.279  10.920  0.8167 -0.6938 -0.9515
 7385TIP3    H243571   3.685   6.134  10.927  0.0540 -0.4269 -0.2600
 7386TIP3   OH243572   2.204   1.987  16.797 -0.2098 -0.0069  0.2326
 7386TIP3    H143573   2.164   1.986  16.710  0.9402 -1.0065 -0.3310
 7386TIP3    H243574   2.253   2.069  16.800  0.3070 -0.2741 -0.3700
 7387TIP3   OH243575   0.415   4.747   5.279  0.4606  0.0412  0.4482
 7387TIP3    H143576   0.346   4.706   5.227 -0.7891  0.0120  2.0473
 7387TIP3    H243577   0.492   4.692   5.264 -0.1097 -0.4990 -0.6133
 7388TIP3   OH243578   3.905   4.945   5.309  0.4097  0.3247 -0.0138
 7388TIP3    H143579   3.942   5.023   5.269 -3.3573  1.9821 -0.7032
 7388TIP3    H243580   3.837   4.978   5.368 -1.0377 -2.3767 -0.0142
 7389TIP3   OH243581   4.538   6.729  15.610  0.3063 -0.2284  0.6627
 7389TIP3    H143582   4.459   6.774  15.642  0.6841  0.0953  1.1542
 7389TIP3    H243583   4.610   6.770  15.658  1.0734  1.2243 -1.5469
 7390TIP3   OH243584   0.767   2.063   2.385  0.3267  0.1849 -0.7206
 7390TIP3    H143585   0.837   2.002   2.406 -0.4802 -0.7411 -0.6732
 7390TIP3    H243586   0.804   2.149   2.405  1.5983 -0.2420 -1.1027
 7391TIP3   OH243587   0.560   0.415  11.236  0.2942 -0.8084 -0.1699
 7391TIP3    H143588   0.511   0.423  11.318  0.1494  0.4528 -0.3520
 7391TIP3    H243589   0.515   0.475  11.176  0.5750 -1.5020 -1.0815
 7392TIP3   OH243590   6.706   4.878   0.807  0.1621 -0.2407  0.3984
 7392TIP3    H143591   6.624   4.838   0.778 -0.1635  1.0332 -0.5498
 7392TIP3    H243592   6.774   4.834   0.756 -0.1930  0.4050 -0.6622
 7393TIP3   OH243593   3.360   5.163   1.811  0.2392 -0.4878  0.2297
 7393TIP3    H143594   3.290   5.099   1.826 -1.9870  1.7699  0.0773
 7393TIP3    H243595   3.400   5.176   1.897 -1.2904  0.0816  0.8774
 7394TIP3   OH243596   4.989   5.389   2.982  0.0299 -0.1102 -0.6404
 7394TIP3    H143597   4.996   5.439   3.064  0.8615 -2.1511  0.6132
 7394TIP3    H243598   4.900   5.352   2.984 -0.0159 -0.0068 -0.7559
 7395TIP3   OH243599   6.366   0.187  14.565 -0.0192  0.9351 -0.1518
 7395TIP3    H143600   6.293   0.128  14.586 -1.2094  1.8301 -1.5968
 7395TIP3    H243601   6.445   0.135  14.584 -1.0000 -1.2797 -1.7525
 7396TIP3   OH243602   0.427   3.573   2.547 -0.1015  0.2745  0.4004
 7396TIP3    H143603   0.434   3.551   2.454 -0.8316 -0.3040  0.4697
 7396TIP3    H243604   0.438   3.489   2.592  0.1124  0.5322  0.8289
 7397TIP3   OH243605   2.592   3.511  12.203  0.9997  0.5849 -0.1245
 7397TIP3    H143606   2.542   3.489  12.125 -0.5114 -0.1884  1.0057
 7397TIP3    H243607   2.676   3.466  12.192  0.0145 -1.2950 -0.3760
 7398TIP3   OH243608   1.680   1.926   2.483  0.3293 -0.1631 -0.0024
 7398TIP3    H143609   1.654   1.856   2.543  3.5112  1.0144  3.1268
 7398TIP3    H243610   1.774   1.911   2.469  1.0452  3.1547  0.4942
 7399TIP3   OH243611   4.503   2.586  15.503 -0.1372  0.4805  0.5250
 7399TIP3    H143612   4.529   2.615  15.591  1.3831  2.0745 -0.3907
 7399TIP3    H243613   4.450   2.508  15.518  0.7789  0.2336  2.8136
 7400TIP3   OH243614   6.168   2.858  12.250  0.0520  0.5725  0.2191
 7400TIP3    H143615   6.214   2.882  12.330  1.0078 -0.0827 -0.1010
 7400TIP3    H243616   6.077   2.850  12.275  0.3578  0.2578  1.2813
 7401TIP3   OH243617   2.585   4.816  14.348 -0.3841  0.2978  0.3411
 7401TIP3    H143618   2.522   4.763  14.300  0.2052  0.1021 -0.2351
 7401TIP3    H243619   2.670   4.794  14.309  0.0415  0.5569  1.0956
 7402TIP3   OH243620   3.524   6.671   1.667 -0.0296  0.1670 -0.1395
 7402TIP3    H143621   3.434   6.658   1.639 -0.1508  1.6754 -0.5789
 7402TIP3    H243622   3.519   6.742   1.732  0.8350  0.3132 -0.2165
 7403TIP3   OH243623   4.026   2.630  14.525 -0.0305  0.8877 -0.2664
 7403TIP3    H143624   4.046   2.544  14.562 -0.8020 -0.0848 -1.9818
 7403TIP3    H243625   4.103   2.683  14.545  0.7187 -0.3680  0.3122
 7404TIP3   OH243626   4.390   2.151   4.370 -0.3348 -0.3349  0.1032
 7404TIP3    H143627   4.410   2.083   4.434 -2.0191 -0.4701  0.5126
 7404TIP3    H243628   4.476   2.178   4.337  0.4471 -1.5842  1.0322
 7405TIP3   OH243629   3.758   2.539  16.057  0.1005 -0.0618  0.3736
 7405TIP3    H143630   3.760   2.629  16.024  0.5316 -0.0177  0.5076
 7405TIP3    H243631   3.782   2.546  16.149  1.5252 -0.4330  0.0654
 7406TIP3   OH243632   1.329   0.942   2.318 -0.1467  0.5227  0.3030
 7406TIP3    H143633   1.317   1.015   2.257  0.2562  0.0508 -0.3687
 7406TIP3    H243634   1.410   0.963   2.364  0.1618  0.3396 -0.1438
 7407TIP3   OH243635   5.075   2.591  13.626 -0.4510 -0.3908  0.4175
 7407TIP3    H143636   4.991   2.570  13.668 -1.4951 -0.5339 -1.6302
 7407TIP3    H243637   5.110   2.664  13.677 -0.8994 -1.5187  2.4397
 7408TIP3   OH243638   0.123   2.860   5.226  0.8988  0.2042  0.2558
 7408TIP3    H143639   0.194   2.869   5.290  1.4564  1.3555 -0.4819
 7408TIP3    H243640   0.169   2.850   5.142  0.1779 -0.6833 -0.0426
 7409TIP3   OH243641   0.311   1.139  16.538  0.2196 -0.1518 -0.1999
 7409TIP3    H143642   0.249   1.156  16.468 -1.6493  1.3159  1.6713
 7409TIP3    H243643   0.257   1.108  16.611  1.8764 -0.1909  1.0770
 7410TIP3   OH243644   5.541   0.440   3.311 -0.6936  0.3439  0.2074
 7410TIP3    H143645   5.559   0.385   3.388  0.2755 -1.1938 -1.0703
 7410TIP3    H243646   5.542   0.530   3.346 -1.2156 -0.3441  2.1472
 7411TIP3   OH243647   1.950   1.656   1.453  0.0406 -0.2227 -0.5948
 7411TIP3    H143648   1.950   1.738   1.503 -0.6336 -0.7719  0.3208
 7411TIP3    H243649   1.862   1.622   1.462  0.2073 -0.8648 -1.2982
 7412TIP3   OH243650   3.067   6.546  11.740 -0.5323 -0.0462  0.3504
 7412TIP3    H143651   3.060   6.641  11.746 -0.6738 -0.0602  0.4106
 7412TIP3    H243652   3.043   6.515  11.827  1.0198 -0.0572  0.7905
 7413TIP3   OH243653   0.731   2.196   6.042  0.0489  0.1679  0.0486
 7413TIP3    H143654   0.672   2.130   6.080  0.4352  0.6253  1.5205
 7413TIP3    H243655   0.689   2.280   6.062  0.0398  0.4165 -0.9662
 7414TIP3   OH243656   2.863   1.004   2.931 -0.1376  0.3049 -0.3155
 7414TIP3    H143657   2.954   1.029   2.946 -0.0270  0.3111 -0.9672
 7414TIP3    H243658   2.856   0.916   2.967 -0.4954  1.1625  1.8701
 7415TIP3   OH243659   1.970   3.594  16.601 -0.0865 -0.4860 -0.0193
 7415TIP3    H143660   1.915   3.609  16.524 -0.0769 -2.2771 -0.4206
 7415TIP3    H243661   1.920   3.632  16.674 -0.4314  0.5736 -0.7772
 7416TIP3   OH243662   2.541   0.239   6.013  0.5642  0.3636  0.1512
 7416TIP3    H143663   2.458   0.260   6.056  0.8137  0.1172  0.7662
 7416TIP3    H243664   2.565   0.153   6.048  0.5810 -0.0233 -0.7831
 7417TIP3   OH243665   2.327   0.958   6.028  0.0165 -0.3804  0.0216
 7417TIP3    H143666   2.282   0.947   5.944 -0.6576 -1.5809  0.5006
 7417TIP3    H243667   2.268   0.917   6.092  0.5005  0.5250  1.0922
 7418TIP3   OH243668   4.284   0.648  12.833  0.4257 -0.3372  0.0662
 7418TIP3    H143669   4.308   0.692  12.915  0.1995 -0.8011  0.3800
 7418TIP3    H243670   4.367   0.615  12.799  0.5995  0.3261 -0.1704
 7419TIP3   OH243671   3.756   5.582   1.609  0.2949  0.5299 -0.7203
 7419TIP3    H143672   3.720   5.556   1.524 -0.5311 -1.8557  0.2617
 7419TIP3    H243673   3.716   5.522   1.671  2.4249  0.8572  1.1088
 7420TIP3   OH243674   3.845   3.654   5.762 -0.9506 -0.3597 -0.3094
 7420TIP3    H143675   3.918   3.706   5.731 -0.3185 -1.0597 -0.0438
 7420TIP3    H243676   3.788   3.716   5.809 -0.0098  0.0148  0.3622
 7421TIP3   OH243677   5.065   1.013  15.794  0.2454 -0.0741  0.1488
 7421TIP3    H143678   4.997   1.065  15.837  0.4815 -0.0207  0.4697
 7421TIP3    H243679   5.137   1.076  15.782  0.1497 -0.0672 -0.4079
 7422TIP3   OH243680   0.444   2.359   5.417  0.4945  0.0850  0.2092
 7422TIP3    H143681   0.401   2.287   5.371  1.2140  0.7314 -1.5557
 7422TIP3    H243682   0.373   2.407   5.459 -0.0550 -1.2671  0.8891
 7423TIP3   OH243683   2.511   6.426  13.400 -0.0376 -0.1202 -0.2992
 7423TIP3    H143684   2.433   6.472  13.432  0.0350 -0.1147 -0.1282
 7423TIP3    H243685   2.506   6.434  13.305 -0.3098 -0.2277 -0.2934
 7424TIP3   OH243686   5.046   2.693   3.350 -0.5222  0.4512 -0.0402
 7424TIP3    H143687   4.986   2.627   3.315  0.8429 -1.8281  1.6188
 7424TIP3    H243688   5.012   2.714   3.437  0.9893 -0.8989  0.9365
 7425TIP3   OH243689   4.853   1.474   5.580  0.5629 -0.0762 -0.3548
 7425TIP3    H143690   4.945   1.464   5.557  0.7936  1.6913 -0.4109
 7425TIP3    H243691   4.806   1.413   5.523  1.6523 -0.6067 -0.7050
 7426TIP3   OH243692   0.083   5.211  11.309 -0.0875 -0.3163 -0.1322
 7426TIP3    H143693   0.168   5.191  11.270 -0.2254 -0.0150 -0.5963
 7426TIP3    H243694   0.099   5.209  11.403  0.3565 -0.5934 -0.2101
 7427TIP3   OH243695   5.796   3.798   4.241  0.0555 -0.0997  0.3348
 7427TIP3    H143696   5.768   3.718   4.197  1.5303 -0.1732 -0.5370
 7427TIP3    H243697   5.759   3.869   4.189  0.9434 -0.2059 -0.4799
 7428TIP3   OH243698   1.599   2.839  15.151 -0.7504  0.3085  0.2240
 7428TIP3    H143699   1.663   2.795  15.206 -0.1291  0.5908 -0.2652
 7428TIP3    H243700   1.515   2.820  15.193 -0.2924  0.5218  1.2702
 7429TIP3   OH243701   1.565   5.272   3.258 -0.4945 -0.6263 -0.3186
 7429TIP3    H143702   1.489   5.224   3.225 -0.5185 -0.7241 -0.1250
 7429TIP3    H243703   1.556   5.360   3.223  1.5056 -1.6528 -3.8967
 7430TIP3   OH243704   1.676   3.576   2.611 -0.4570  0.8468  0.1780
 7430TIP3    H143705   1.588   3.551   2.642 -0.2307 -0.1529  0.0642
 7430TIP3    H243706   1.673   3.671   2.604 -2.0803  0.7248 -1.4833
 7431TIP3   OH243707   1.673   3.240   4.993  0.4169 -0.0001 -0.0314
 7431TIP3    H143708   1.655   3.155   5.033 -1.0630  0.7365  0.9418
 7431TIP3    H243709   1.708   3.293   5.065 -1.6802  1.1501  0.1945
 7432TIP3   OH243710   0.978   0.231  13.138  0.0740 -0.1957  0.1999
 7432TIP3    H143711   1.028   0.307  13.110 -1.7443  0.8709 -0.3719
 7432TIP3    H243712   0.907   0.224  13.073 -0.4019 -1.7527  0.8351
 7433TIP3   OH243713   1.211   0.025   1.703  0.3442 -0.6461  0.5032
 7433TIP3    H143714   1.254   0.039   1.787 -1.4977 -0.9654  1.5671
 7433TIP3    H243715   1.271  -0.030   1.653  0.7280 -1.9424  2.2932
 7434TIP3   OH243716   5.866   1.251  13.567  0.3917 -0.1500 -0.1198
 7434TIP3    H143717   5.880   1.238  13.473  0.0532 -0.0576 -0.1854
 7434TIP3    H243718   5.796   1.189  13.589  0.4091 -0.1086  0.0526
 7435TIP3   OH243719   2.657   1.063  14.790  0.4339  0.6484  0.5352
 7435TIP3    H143720   2.603   1.141  14.803 -0.8505 -0.4205  2.0273
 7435TIP3    H243721   2.741   1.085  14.831  0.1707  1.3230  0.7283
 7436TIP3   OH243722   6.270   5.834  14.835  0.1836  0.6403  0.4266
 7436TIP3    H143723   6.306   5.899  14.775 -2.1296 -1.2444 -3.4271
 7436TIP3    H243724   6.175   5.838  14.820 -0.3547 -1.2954  2.6726
 7437TIP3   OH243725   1.102   4.436  17.034 -0.2611 -0.2156 -0.4265
 7437TIP3    H143726   1.074   4.400  17.118  0.0295  1.0627  0.2393
 7437TIP3    H243727   1.175   4.380  17.007  0.7267  0.3364  0.9935
 7438TIP3   OH243728   5.668   0.494   0.859 -0.3909  0.2977 -0.5281
 7438TIP3    H143729   5.608   0.566   0.843  0.4457  1.8151  2.5021
 7438TIP3    H243730   5.675   0.449   0.774 -2.2992  2.6919 -2.0703
 7439TIP3   OH243731   4.783   3.822  15.921  0.5556 -0.4348  0.2387
 7439TIP3    H143732   4.855   3.825  15.984  0.7189 -0.0036  0.0363
 7439TIP3    H243733   4.728   3.897  15.944 -0.4276 -1.3984  1.0879
 7440TIP3   OH243734   4.604   5.723  12.175 -0.6443 -0.3293 -0.2457
 7440TIP3    H143735   4.605   5.807  12.222  0.3376 -0.4615  0.0053
 7440TIP3    H243736   4.697   5.705  12.158 -0.8097 -1.5929  0.1191
 7441TIP3   OH243737   0.020   0.769  13.130  0.5388  0.2042 -0.6664
 7441TIP3    H143738  -0.061   0.748  13.084  1.3092 -2.3252 -1.0049
 7441TIP3    H243739   0.078   0.803  13.062  0.3280  0.4201 -0.7411
 7442TIP3   OH243740   2.642   5.601   3.259  0.5472  0.1117 -0.2865
 7442TIP3    H143741   2.604   5.689   3.262  1.0328  0.2976  1.7870
 7442TIP3    H243742   2.567   5.543   3.245 -0.0788  0.7017  0.5380
 7443TIP3   OH243743   5.821   6.410  16.269  0.2065 -0.2720  0.8675
 7443TIP3    H143744   5.877   6.363  16.331  1.6629 -0.4018 -0.4734
 7443TIP3    H243745   5.751   6.348  16.248  1.1193 -1.2162  0.4819
 7444TIP3   OH243746   5.731   1.957   5.058 -0.3536  0.5395  0.1362
 7444TIP3    H143747   5.642   1.983   5.032 -1.2077 -1.3719  0.9411
 7444TIP3    H243748   5.735   1.976   5.151 -0.5670 -0.9441  0.4734
 7445TIP3   OH243749   1.290   1.654  13.715  0.4505 -0.2482 -0.1561
 7445TIP3    H143750   1.366   1.600  13.737  1.8663  0.5760 -2.5599
 7445TIP3    H243751   1.283   1.648  13.619 -0.4817  2.2683 -0.3472
 7446TIP3   OH243752   5.842   2.069  11.737 -0.2367  0.5788  0.3589
 7446TIP3    H143753   5.763   2.030  11.701 -0.1846  1.3299 -0.6461
 7446TIP3    H243754   5.818   2.160  11.756  0.5474  1.0156 -0.6237
 7447TIP3   OH243755   5.579   1.830  11.645  0.4887 -0.1152 -0.1007
 7447TIP3    H143756   5.597   1.853  11.736 -2.2746 -0.9364  0.7613
 7447TIP3    H243757   5.526   1.902  11.612  2.0039  0.4914 -1.3297
 7448TIP3   OH243758   0.805   2.464  13.446  0.0374  0.2296  0.0690
 7448TIP3    H143759   0.809   2.439  13.354 -0.2598  0.5672 -0.0395
 7448TIP3    H243760   0.893   2.496  13.466  0.2520 -0.3505  0.0506
 7449TIP3   OH243761   6.620   5.022   5.363 -0.0765  0.0242  0.2819
 7449TIP3    H143762   6.617   5.071   5.281  1.4474 -1.4783 -0.7336
 7449TIP3    H243763   6.535   5.038   5.403  0.6017  4.1669  0.4753
 7450TIP3   OH243764   5.154   5.063  13.676  0.0649  0.4592  0.4980
 7450TIP3    H143765   5.173   5.086  13.585 -0.3525 -0.4053  0.1775
 7450TIP3    H243766   5.123   4.973  13.671  0.7864  0.1405  1.5937
 7451TIP3   OH243767   5.795   2.772  12.645 -0.2773 -0.0818 -0.8794
 7451TIP3    H143768   5.766   2.691  12.602 -1.0296 -0.2594 -0.0795
 7451TIP3    H243769   5.888   2.758  12.663 -0.8844 -1.7607  1.3248
 7452TIP3   OH243770   2.779   6.672  11.581 -0.1125  0.1847 -0.8031
 7452TIP3    H143771   2.701   6.723  11.602  0.5461  0.6667  0.7032
 7452TIP3    H243772   2.851   6.734  11.592  0.6235 -0.7604 -0.1002
 7453TIP3   OH243773   3.776   5.168  16.436 -0.2288  0.2861  0.8464
 7453TIP3    H143774   3.864   5.135  16.417  0.1442 -0.1166  2.9861
 7453TIP3    H243775   3.765   5.241  16.375  2.1407  1.1904  1.3578
 7454TIP3   OH243776   4.855   1.247  12.979 -0.1092  0.1751 -0.1262
 7454TIP3    H143777   4.870   1.294  13.061 -1.3429 -0.0453  0.2402
 7454TIP3    H243778   4.835   1.316  12.915  1.3649  0.3898 -0.3894
 7455TIP3   OH243779   4.366   3.895   3.627  0.0333 -0.0575  0.3969
 7455TIP3    H143780   4.383   3.989   3.630  0.9193 -0.1853 -0.0760
 7455TIP3    H243781   4.316   3.882   3.546 -1.6621  0.2100  1.3533
 7456TIP3   OH243782   0.485   4.814  15.680  0.4977  0.6658 -0.7128
 7456TIP3    H143783   0.511   4.803  15.588  0.7835 -0.7884 -0.4903
 7456TIP3    H243784   0.510   4.731  15.721  0.0907  1.1841  0.6168
 7457TIP3   OH243785   1.573   4.831  11.104  0.1352 -0.1456  0.2092
 7457TIP3    H143786   1.549   4.820  11.012 -0.0728  2.0707 -0.0713
 7457TIP3    H243787   1.596   4.924  11.111 -1.4056  0.1249  2.7492
 7458TIP3   OH243788   3.664   4.101  11.588  0.1154 -0.3838  0.2453
 7458TIP3    H143789   3.736   4.157  11.558  0.7165 -1.2632 -0.0105
 7458TIP3    H243790   3.705   4.045  11.654 -0.2530 -1.1221 -0.1462
 7459TIP3   OH243791   5.779   2.928   0.622 -0.1559 -0.1669 -0.5698
 7459TIP3    H143792   5.726   3.008   0.625 -0.1208 -0.1289 -0.8961
 7459TIP3    H243793   5.722   2.859   0.654 -0.1738 -0.0029 -0.2447
 7460TIP3   OH243794   1.614   0.017  13.279  0.1577  0.2202 -0.2169
 7460TIP3    H143795   1.524   0.008  13.248 -1.0408  0.9723  2.6995
 7460TIP3    H243796   1.668  -0.018  13.207 -2.2171  2.1507 -3.2200
 7461TIP3   OH243797   2.923   4.562   5.476 -0.8528  0.4348 -0.0389
 7461TIP3    H143798   2.975   4.593   5.550 -0.5012  0.9326 -0.4795
 7461TIP3    H243799   2.892   4.642   5.433  0.2362  0.2190 -1.3122
 7462TIP3   OH243800   2.637   3.780  12.728  0.1711  0.6119 -0.7361
 7462TIP3    H143801   2.666   3.870  12.744 -0.8230  0.9612 -0.8713
 7462TIP3    H243802   2.569   3.788  12.661 -1.7316  0.0432  1.0361
 7463TIP3   OH243803   4.014   1.676  13.067  0.0869  0.5156 -0.0586
 7463TIP3    H143804   4.056   1.747  13.018  1.9806 -0.8521 -0.5360
 7463TIP3    H243805   3.961   1.630  13.001  0.3473  0.3834 -0.1772
 7464TIP3   OH243806   3.972   3.577   4.109  0.6257  0.6979  0.7157
 7464TIP3    H143807   3.934   3.507   4.164  1.4757 -0.0553  0.3647
 7464TIP3    H243808   4.016   3.530   4.038  0.3763  1.6372 -0.0673
 7465TIP3   OH243809   4.975   5.858   4.996 -0.4487  0.2131  0.8897
 7465TIP3    H143810   4.921   5.907   4.934 -0.0889  0.4240  0.7387
 7465TIP3    H243811   4.912   5.817   5.055 -0.8313 -0.7598 -0.1623
 7466TIP3   OH243812   0.123   0.367  16.060 -0.0205 -0.3333  0.0233
 7466TIP3    H143813   0.089   0.390  16.147 -1.3225 -1.1915 -0.2371
 7466TIP3    H243814   0.100   0.442  16.005 -1.6421 -0.9421 -0.1710
 7467TIP3   OH243815   1.984   5.343   6.370  0.2497 -0.0356  0.2278
 7467TIP3    H143816   2.000   5.378   6.457  0.0150 -0.0139  0.2639
 7467TIP3    H243817   1.889   5.351   6.358  0.1313 -1.0084  0.3903
 7468TIP3   OH243818   6.648   6.241  12.209  0.6185 -0.0393 -0.1560
 7468TIP3    H143819   6.660   6.282  12.295 -0.3305 -0.3558  0.1358
 7468TIP3    H243820   6.644   6.315  12.149  1.0023  0.1990  0.1054
 7469TIP3   OH243821   1.014   3.117  14.758 -0.3449 -0.5109 -0.1449
 7469TIP3    H143822   1.032   3.040  14.704 -0.7309 -1.3587  0.9207
 7469TIP3    H243823   0.924   3.141  14.736  0.2596  0.5742 -1.5914
 7470TIP3   OH243824   1.914   3.018  10.528 -0.3843  0.3777 -0.0807
 7470TIP3    H143825   1.982   2.957  10.556  0.2937  1.5475  0.9305
 7470TIP3    H243826   1.939   3.043  10.440 -0.3273 -0.3006 -0.2657
 7471TIP3   OH243827   2.872   6.694   3.498  0.0890 -0.3950  0.1979
 7471TIP3    H143828   2.848   6.603   3.480  0.1598 -0.8664  2.2136
 7471TIP3    H243829   2.961   6.703   3.464 -0.3593 -0.7035 -1.0906
 7472TIP3   OH243830   0.992   5.393  13.233 -0.3767  0.2778 -0.0380
 7472TIP3    H143831   0.987   5.363  13.142 -1.5196  0.5021 -0.0647
 7472TIP3    H243832   0.957   5.321  13.285 -0.5319  0.4786  0.1402
 7473TIP3   OH243833   5.135   3.519  16.429  0.5877  0.2761  0.0534
 7473TIP3    H143834   5.187   3.451  16.385  0.7031  0.3342  0.1010
 7473TIP3    H243835   5.053   3.521  16.380  0.9095  0.6993 -0.4831
 7474TIP3   OH243836   4.715   5.924  13.446 -0.2076 -0.3920  0.5020
 7474TIP3    H143837   4.623   5.900  13.435 -0.2752  0.3854 -0.8802
 7474TIP3    H243838   4.761   5.841  13.453 -0.7304 -0.8863 -1.4229
 7475TIP3   OH243839   6.081   4.398  14.113 -0.1851 -0.8689  0.5703
 7475TIP3    H143840   5.989   4.420  14.095  0.4185  1.1863 -0.2220
 7475TIP3    H243841   6.099   4.439  14.198 -0.2333 -2.0977  1.2006
 7476TIP3   OH243842   1.436   0.435   4.371 -0.1956 -0.2025  0.7744
 7476TIP3    H143843   1.459   0.350   4.408 -0.2949 -0.9962 -0.8830
 7476TIP3    H243844   1.518   0.468   4.334 -0.4094 -0.1431  0.3498
 7477TIP3   OH243845   6.504   2.957  16.827 -0.7502 -0.0503  0.5851
 7477TIP3    H143846   6.468   3.034  16.870  0.6946  0.1252  1.5202
 7477TIP3    H243847   6.536   2.989  16.742 -3.1507 -0.3064 -0.5058
 7478TIP3   OH243848   0.333   3.835   2.404 -0.0793 -0.2151  0.4620
 7478TIP3    H143849   0.282   3.837   2.323 -0.8669  1.0429  0.9668
 7478TIP3    H243850   0.332   3.742   2.430 -3.2004 -0.1055  1.0902
 7479TIP3   OH243851   1.191   1.927   2.782  0.1078 -0.0537 -0.1959
 7479TIP3    H143852   1.115   1.901   2.833 -0.2995  1.3027 -0.0710
 7479TIP3    H243853   1.210   2.016   2.811  0.0200  0.6807 -2.2118
 7480TIP3   OH243854   3.684   5.949  14.564  0.5357 -0.6601  0.1400
 7480TIP3    H143855   3.690   5.951  14.469  0.2328 -0.6924  0.1177
 7480TIP3    H243856   3.591   5.966  14.583  0.8424  0.7536  0.4772
 7481TIP3   OH243857   0.052   2.149   0.207  0.2128  0.2684 -0.5489
 7481TIP3    H143858   0.107   2.076   0.239  3.0315  1.2939 -2.6132
 7481TIP3    H243859   0.111   2.225   0.209 -2.3394  2.3719  0.6014
 7482TIP3   OH243860   6.156   3.401  13.725 -0.0472 -0.5287  1.1271
 7482TIP3    H143861   6.066   3.430  13.740 -0.0689 -1.4899  3.0799
 7482TIP3    H243862   6.150   3.341  13.651 -0.4334  2.0053 -1.0606
 7483TIP3   OH243863   5.854   0.980  14.132  0.1709  0.3966 -0.3688
 7483TIP3    H143864   5.918   1.027  14.078  0.1508 -0.2357 -0.9566
 7483TIP3    H243865   5.906   0.937  14.200  0.3844 -0.1679 -0.8831
 7484TIP3   OH243866   5.573   2.951   3.524  0.1540 -0.8349  0.4405
 7484TIP3    H143867   5.595   3.044   3.529 -0.5912 -0.6700  0.7247
 7484TIP3    H243868   5.620   2.920   3.446  0.0728 -0.1328  0.1010
 7485TIP3   OH243869   6.245   2.793   3.105  0.2819  0.3979  0.1157
 7485TIP3    H143870   6.213   2.748   3.027 -2.0618  0.6989  0.8455
 7485TIP3    H243871   6.245   2.886   3.080 -1.4089  0.5871  0.7540
 7486TIP3   OH243872   0.548   2.050  15.027  0.1146  0.4659 -0.1028
 7486TIP3    H143873   0.563   2.017  14.938 -0.6316 -3.2126  1.0084
 7486TIP3    H243874   0.454   2.067  15.031  0.1906  0.8907 -0.0801
 7487TIP3   OH243875   1.921   2.422  11.488 -0.6111  0.4342  0.4472
 7487TIP3    H143876   1.842   2.390  11.531  0.6617 -1.1445  1.7597
 7487TIP3    H243877   1.973   2.460  11.559 -1.1548  3.7677 -0.7488
 7488TIP3   OH243878   1.829   4.471   6.300 -0.2233  0.6701  0.1426
 7488TIP3    H143879   1.895   4.411   6.265 -0.9524  0.0494 -0.2045
 7488TIP3    H243880   1.841   4.551   6.249  1.2238  1.0973  1.0836
 7489TIP3   OH243881   5.874   1.838  12.152 -0.1864  0.2842  0.4471
 7489TIP3    H143882   5.835   1.919  12.119  0.5605  1.5258  2.4450
 7489TIP3    H243883   5.968   1.855  12.154 -0.1682  0.2083  2.8595
 7490TIP3   OH243884   2.853   3.566   4.950  0.0956  0.0089 -0.0898
 7490TIP3    H143885   2.824   3.656   4.936  0.4693  0.0219 -0.8218
 7490TIP3    H243886   2.775   3.513   4.932 -0.7030  0.2608  2.2819
 7491TIP3   OH243887   5.064   1.546   0.550 -0.0679  0.8212  0.0600
 7491TIP3    H143888   5.066   1.466   0.499 -1.1683  0.7895  0.0364
 7491TIP3    H243889   5.148   1.548   0.596 -0.2735 -0.6602  0.5399
 7492TIP3   OH243890   1.721   3.818  13.808 -0.0419  0.0717  0.2622
 7492TIP3    H143891   1.772   3.898  13.820 -1.0035  0.4620  2.3719
 7492TIP3    H243892   1.644   3.831  13.865 -1.8310 -1.0337 -1.7759
 7493TIP3   OH243893   2.073   0.688   0.236 -0.4255 -0.1664 -0.0082
 7493TIP3    H143894   2.127   0.733   0.170 -0.2003  1.2598  1.0858
 7493TIP3    H243895   2.042   0.609   0.192  2.6223 -1.1285 -0.6712
 7494TIP3   OH243896   3.889   0.214   2.657 -0.1222 -0.5790  0.1550
 7494TIP3    H143897   3.934   0.297   2.672 -0.8143 -0.6685  3.3394
 7494TIP3    H243898   3.832   0.231   2.582  0.9457  1.2823 -0.3010
 7495TIP3   OH243899   4.486   4.149   4.976  0.0563  0.4804  0.2568
 7495TIP3    H143900   4.528   4.091   4.913  0.5816  0.4866  0.5987
 7495TIP3    H243901   4.552   4.165   5.043 -0.8979 -0.5753  1.5143
 7496TIP3   OH243902   4.585   1.377   0.551 -0.6441  0.0576 -0.5689
 7496TIP3    H143903   4.660   1.384   0.492 -0.6048  0.1051 -0.5135
 7496TIP3    H243904   4.518   1.333   0.500 -0.5379 -0.0906 -0.5817
 7497TIP3   OH243905   4.544   1.957  16.930 -0.0850 -0.0345  0.5569
 7497TIP3    H143906   4.510   2.045  16.942  1.2462  0.4586  0.9206
 7497TIP3    H243907   4.639   1.968  16.931  0.1260 -1.2187 -1.2330
 7498TIP3   OH243908   2.826   5.004  13.378 -0.1748  0.6706 -0.0434
 7498TIP3    H143909   2.821   4.986  13.284 -0.5241  1.5963 -0.2124
 7498TIP3    H243910   2.786   4.927  13.419  1.3977 -0.4832 -0.5614
 7499TIP3   OH243911   1.998   4.515  17.006  0.3391 -0.5314  0.1816
 7499TIP3    H143912   2.010   4.567  17.086  1.5087 -1.8812  0.9178
 7499TIP3    H243913   1.903   4.505  16.999  0.1074  1.2854  0.2689
 7500TIP3   OH243914   0.001   6.026  14.108  0.0697 -0.4192 -0.0492
 7500TIP3    H143915  -0.019   6.009  14.200 -2.0810  0.9332 -0.1938
 7500TIP3    H243916  -0.039   5.953  14.060 -0.6557 -0.0309 -0.0397
 7501TIP3   OH243917   6.396   4.231   1.343 -0.3250 -0.1030 -0.0334
 7501TIP3    H143918   6.316   4.203   1.387 -0.3875  0.5618  0.2949
 7501TIP3    H243919   6.462   4.234   1.412 -0.1664 -0.0732 -0.1846
 7502TIP3   OH243920   4.790   0.571   4.507 -0.3455  0.0350 -0.4269
 7502TIP3    H143921   4.826   0.632   4.572  0.4934 -0.3422 -0.5316
 7502TIP3    H243922   4.799   0.618   4.423 -4.6354  2.0573 -0.0254
 7503TIP3   OH243923   6.106   4.923  11.586  0.1251 -0.3314 -0.3738
 7503TIP3    H143924   6.107   4.989  11.516  0.7171 -0.2644 -0.3034
 7503TIP3    H243925   6.017   4.927  11.621  0.3520  0.9349  0.1066
 7504TIP3   OH243926   5.516   0.431  16.281  0.5696  0.2091 -0.5378
 7504TIP3    H143927   5.606   0.461  16.266  0.1178  2.3531  0.5086
 7504TIP3    H243928   5.463   0.510  16.270 -1.0555 -0.7572  0.0127
 7505TIP3   OH243929   1.946   1.944  10.748  0.1654  0.8959 -0.4907
 7505TIP3    H143930   2.033   1.968  10.780 -0.3096  0.4317  1.2779
 7505TIP3    H243931   1.960   1.862  10.701  0.7626  1.1001 -0.6784
 7506TIP3   OH243932   3.614   5.821  12.059  0.2274  0.7023  0.1672
 7506TIP3    H143933   3.519   5.815  12.067  0.3475 -0.3352  1.0251
 7506TIP3    H243934   3.647   5.825  12.149  1.1225 -2.1850  0.1032
 7507TIP3   OH243935   3.224   1.569  15.731  0.1811 -0.0175 -0.0730
 7507TIP3    H143936   3.258   1.657  15.748 -1.3438  0.4781  0.6093
 7507TIP3    H243937   3.250   1.518  15.809  2.8125 -0.7852 -1.3355
 7508TIP3   OH243938   1.145   5.128   6.375  0.6422 -0.0576 -0.0312
 7508TIP3    H143939   1.224   5.091   6.335  0.7962 -0.0224  0.2376
 7508TIP3    H243940   1.161   5.223   6.376 -0.2568  0.1700 -1.8309
 7509TIP3   OH243941   2.720   1.790  11.788  0.1567  0.1703  0.6888
 7509TIP3    H143942   2.810   1.768  11.812  0.1001 -0.4275  0.3716
 7509TIP3    H243943   2.729   1.843  11.708  0.1932 -0.7294  0.0793
 7510TIP3   OH243944   3.657   6.774  11.284 -0.6859  0.0473  0.5041
 7510TIP3    H143945   3.726   6.827  11.323 -0.8840  0.2562  0.5762
 7510TIP3    H243946   3.690   6.749  11.199 -0.4609  0.0232  0.5991
 7511TIP3   OH243947   1.936   5.864  15.166  0.4430 -0.7189  0.1195
 7511TIP3    H143948   2.000   5.896  15.229 -0.6701  1.5353  0.2361
 7511TIP3    H243949   1.887   5.943  15.141  0.2551 -1.6769 -2.8778
 7512TIP3   OH243950   6.199   2.631  13.827  0.3851 -0.0255  0.8988
 7512TIP3    H143951   6.158   2.551  13.793  0.8216  0.0767  0.1122
 7512TIP3    H243952   6.184   2.627  13.922 -1.9396  0.2782  0.6079
 7513TIP3   OH243953   1.993   2.651  13.524  0.7793  0.3632  0.8287
 7513TIP3    H143954   2.061   2.594  13.559  0.4441 -0.9619 -0.5462
 7513TIP3    H243955   2.023   2.674  13.436 -0.8959 -0.9833 -0.1578
 7514TIP3   OH243956   2.016   2.325  15.303 -0.5161 -0.5945 -0.3559
 7514TIP3    H143957   1.924   2.301  15.311 -0.4878 -0.2745  1.2161
 7514TIP3    H243958   2.019   2.382  15.227 -1.8599  0.4563  0.3326
 7515TIP3   OH243959   2.785   1.964  13.469  0.1916  0.3052  0.1411
 7515TIP3    H143960   2.717   2.024  13.439  0.7329  0.1127 -1.5840
 7515TIP3    H243961   2.806   1.912  13.392  1.5348 -0.3706  0.9373
 7516TIP3   OH243962   0.427   6.577  13.510  0.4062  0.7379 -0.0082
 7516TIP3    H143963   0.426   6.654  13.565 -1.6298  0.3041  0.6374
 7516TIP3    H243964   0.499   6.524  13.544  0.2089  1.2133  1.1894
 7517TIP3   OH243965   1.226   6.617   5.257 -0.0536 -0.5057  0.1013
 7517TIP3    H143966   1.230   6.711   5.243 -3.3408 -0.2752  0.0710
 7517TIP3    H243967   1.169   6.584   5.188 -0.8986 -2.1521  1.4977
 7518TIP3   OH243968   5.074   5.949  14.278  0.2985  0.1142  1.2579
 7518TIP3    H143969   4.989   5.981  14.250  0.0940 -0.5321  1.1252
 7518TIP3    H243970   5.076   5.857  14.250  1.6098  0.4966 -0.0725
 7519TIP3   OH243971   4.822   5.946  16.813 -0.1083  0.1734  0.2451
 7519TIP3    H143972   4.886   5.983  16.874  1.6398 -0.1117 -1.3214
 7519TIP3    H243973   4.748   5.923  16.868  1.0285  0.7413  2.1257
 7520TIP3   OH243974   3.652   0.370   1.254 -0.6646  0.9210 -0.6362
 7520TIP3    H143975   3.564   0.357   1.291 -0.2366 -0.4832 -0.0288
 7520TIP3    H243976   3.711   0.346   1.326  0.2022  0.0340 -1.6218
 7521TIP3   OH243977   5.235   6.273  14.561 -0.0911  0.5951 -0.4070
 7521TIP3    H143978   5.200   6.279  14.472 -1.5319  0.7183  0.1390
 7521TIP3    H243979   5.270   6.184  14.567 -1.1321  0.1433 -0.7158
 7522TIP3   OH243980   5.620   3.669   1.519 -0.1370 -0.0518 -0.2060
 7522TIP3    H143981   5.649   3.653   1.429  0.1308  0.1906 -0.1648
 7522TIP3    H243982   5.526   3.683   1.511 -0.8896 -3.8854  0.0213
 7523TIP3   OH243983   2.739   1.397   1.087  0.5779 -0.0496 -0.2911
 7523TIP3    H143984   2.751   1.303   1.097 -0.3050 -0.0931  0.4089
 7523TIP3    H243985   2.652   1.406   1.048  0.3186  0.5155  0.4153
 7524TIP3   OH243986   5.859   5.757  15.358  0.3229 -0.2239 -0.2676
 7524TIP3    H143987   5.843   5.849  15.375  0.3411 -0.3353  0.4078
 7524TIP3    H243988   5.954   5.751  15.343  0.1902 -0.0038 -1.2500
 7525TIP3   OH243989   3.479   3.813  16.994 -0.2552 -0.1094  0.2335
 7525TIP3    H143990   3.502   3.872  16.922  0.0390 -1.9979 -1.2855
 7525TIP3    H243991   3.391   3.840  17.020 -0.2555  0.7939 -0.6398
 7526TIP3   OH243992   1.108   4.913  17.125  0.0723  0.3547  0.0111
 7526TIP3    H143993   1.124   4.889  17.216  1.0321 -2.7267 -0.8672
 7526TIP3    H243994   1.013   4.929  17.121  0.1791  1.6766  1.7224
 7527TIP3   OH243995   0.306   5.151  16.976  0.0943  0.2903  0.2174
 7527TIP3    H143996   0.313   5.191  17.062  2.2510 -1.3102  0.8801
 7527TIP3    H243997   0.251   5.074  16.989 -0.2958  0.5201 -0.0461
 7528TIP3   OH243998   2.763   0.645   5.622  0.2507 -0.3200  0.6606
 7528TIP3    H143999   2.760   0.565   5.569 -1.6475 -0.7665  1.3636
 7528TIP3    H244000   2.756   0.614   5.712 -0.4115  0.6330  0.9514
 7529TIP3   OH244001   1.437   5.598   4.070  0.6743  0.1552  0.3732
 7529TIP3    H144002   1.462   5.624   4.158 -0.8743  0.4148  0.7708
 7529TIP3    H244003   1.341   5.603   4.070  0.6740  1.4608 -1.7018
 7530TIP3   OH244004   2.860   6.101  10.891 -0.6175  0.5706  0.1922
 7530TIP3    H144005   2.915   6.107  10.813 -0.1384  1.3708  0.5848
 7530TIP3    H244006   2.859   6.008  10.913 -0.5201  0.3758 -0.5946
 7531TIP3   OH244007   2.745   5.807   0.616 -0.4543  0.3666 -0.1508
 7531TIP3    H144008   2.828   5.777   0.654 -0.0200  0.9491 -0.6280
 7531TIP3    H244009   2.770   5.868   0.547 -1.2556 -0.1721 -0.9453
 7532TIP3   OH244010   2.922   2.390  16.118  0.8038 -0.5860  0.0997
 7532TIP3    H144011   2.913   2.333  16.195 -0.4955  0.3592  0.6941
 7532TIP3    H244012   2.896   2.335  16.044 -0.2147 -0.8547  0.6379
 7533TIP3   OH244013   1.332   0.917  15.813  0.4998 -0.3645  0.8205
 7533TIP3    H144014   1.370   0.834  15.784 -0.8761 -0.4953 -0.7767
 7533TIP3    H244015   1.294   0.897  15.898  2.3632 -0.6827  1.6175
 7534TIP3   OH244016   3.731   1.812   3.799  0.4620 -0.4916 -0.2477
 7534TIP3    H144017   3.656   1.779   3.750  1.8881 -1.3663 -1.9471
 7534TIP3    H244018   3.723   1.907   3.794 -1.6681 -0.5193  1.4831
 7535TIP3   OH244019   1.055   4.731   1.243  0.5619  0.1283 -0.3084
 7535TIP3    H144020   0.993   4.804   1.245  0.7599  0.2749  0.6018
 7535TIP3    H244021   1.005   4.657   1.277  0.3569 -0.1824 -1.2417
 7536TIP3   OH244022   4.369   5.846   6.181 -0.5684  0.5921  0.0210
 7536TIP3    H144023   4.315   5.856   6.102 -0.4329  0.8247 -0.0432
 7536TIP3    H244024   4.308   5.863   6.253 -1.4496 -2.5014  0.1551
 7537TIP3   OH244025   2.223   4.177   2.771 -0.2107 -0.0507  0.1323
 7537TIP3    H144026   2.236   4.216   2.685  0.3021  2.6447  1.3250
 7537TIP3    H244027   2.177   4.095   2.753  1.7619 -0.6802 -2.8209
 7538TIP3   OH244028   1.162   4.882  11.374 -0.2438  0.4382  0.4446
 7538TIP3    H144029   1.189   4.796  11.407 -1.1252 -1.1685 -2.6130
 7538TIP3    H244030   1.237   4.939  11.393  0.7266 -1.1889  1.8179
 7539TIP3   OH244031   4.590   1.923   2.687  0.3955  0.5402 -0.9736
 7539TIP3    H144032   4.543   2.006   2.694 -1.7640 -0.7611  1.3214
 7539TIP3    H244033   4.558   1.884   2.605 -1.1072  0.5821 -0.4451
 7540TIP3   OH244034   2.070   6.283   2.754 -0.2733 -0.5850 -1.1601
 7540TIP3    H144035   1.976   6.267   2.764 -0.0891 -1.7832 -1.1570
 7540TIP3    H244036   2.096   6.328   2.834 -0.9634  0.3832 -1.4643
 7541TIP3   OH244037   1.327   4.826  12.927  0.0856 -0.0602 -0.0600
 7541TIP3    H144038   1.374   4.751  12.964 -2.1748 -1.5719 -0.0902
 7541TIP3    H244039   1.318   4.806  12.834  0.4653  0.8377 -0.3030
 7542TIP3   OH244040   0.028   3.983   2.683  0.5252  0.5608  0.5012
 7542TIP3    H144041  -0.060   3.981   2.720  0.7219 -1.2923  0.9579
 7542TIP3    H244042   0.083   3.943   2.750  1.0787 -1.7695 -1.1933
 7543TIP3   OH244043   0.337   2.252  16.540  0.5036 -0.2868 -0.1080
 7543TIP3    H144044   0.355   2.251  16.634  0.4048 -1.3693 -0.0893
 7543TIP3    H244045   0.246   2.224  16.533  0.4954 -0.1618 -0.5317
 7544TIP3   OH244046   2.864   4.440  14.343 -0.4187  0.6016 -0.4634
 7544TIP3    H144047   2.844   4.355  14.306 -0.8617  0.7751 -0.6282
 7544TIP3    H244048   2.814   4.502  14.289 -0.1946  0.9511 -0.2710
 7545TIP3   OH244049   5.559   1.399  15.507  0.0353 -0.7148 -0.0318
 7545TIP3    H144050   5.580   1.467  15.443  0.4822 -0.7685  0.0557
 7545TIP3    H244051   5.523   1.328  15.455  0.5874 -0.8377 -0.2504
 7546TIP3   OH244052   5.780   5.935  14.978 -0.2339  0.0178  0.1165
 7546TIP3    H144053   5.839   5.981  15.037 -2.2885  1.0040  1.5253
 7546TIP3    H244054   5.771   5.994  14.903 -0.1010  0.2453  0.2786
 7547TIP3   OH244055   0.615   4.194  14.592  0.3217 -0.2388 -0.6130
 7547TIP3    H144056   0.688   4.252  14.610  0.6577 -0.4409 -1.3062
 7547TIP3    H244057   0.654   4.106  14.589 -0.2880 -0.6387  1.2219
 7548TIP3   OH244058   0.962   0.792  16.081 -0.2954  0.4162 -0.6184
 7548TIP3    H144059   0.935   0.830  15.997  0.7782 -0.6635 -1.4939
 7548TIP3    H244060   0.959   0.866  16.142 -2.6361  0.8932 -1.2042
 7549TIP3   OH244061   3.143   1.678  12.947  0.0143 -0.7016  0.7104
 7549TIP3    H144062   3.146   1.772  12.931  0.4767 -0.9418 -0.7237
 7549TIP3    H244063   3.221   1.660  12.999 -0.7919 -0.1144  2.2014
 7550TIP3   OH244064   5.700   3.166   4.866  0.5389 -0.4649  0.0257
 7550TIP3    H144065   5.669   3.076   4.877  0.8967 -0.4543  1.2892
 7550TIP3    H244066   5.795   3.160   4.867  0.5668 -0.1044 -0.1582
 7551TIP3   OH244067   2.506   2.563  13.333 -0.1183 -0.3740  0.0799
 7551TIP3    H144068   2.489   2.575  13.240 -3.9147 -1.8582  0.4331
 7551TIP3    H244069   2.541   2.648  13.361 -0.0451  0.5181 -2.4273
 7552TIP3   OH244070   5.611   5.610   0.777 -0.0720  0.0669  0.4717
 7552TIP3    H144071   5.547   5.649   0.836  0.3709  0.1105  0.9322
 7552TIP3    H244072   5.695   5.638   0.811  0.1678  1.9193 -1.4513
 7553TIP3   OH244073   6.218   3.719  13.230  0.2926 -0.0623  0.6707
 7553TIP3    H144074   6.162   3.644  13.214  2.0671 -1.2327 -0.4163
 7553TIP3    H244075   6.160   3.795  13.219 -0.7974 -1.1445 -1.9071
 7554TIP3   OH244076   0.589   6.752  11.604  0.0005  0.0665  0.4915
 7554TIP3    H144077   0.617   6.836  11.640 -0.0742 -0.3362  1.4999
 7554TIP3    H244078   0.605   6.760  11.510  1.1216  0.7739  0.7222
 7555TIP3   OH244079   5.847   0.605  15.611 -0.1857  0.4126  0.0068
 7555TIP3    H144080   5.877   0.664  15.541  1.1103  1.6229  1.5189
 7555TIP3    H244081   5.833   0.522  15.566 -0.0351  1.3023 -1.8200
 7556TIP3   OH244082   3.120   1.477  16.264  0.4505  0.5029 -0.4490
 7556TIP3    H144083   3.174   1.542  16.307  0.6343  0.4568 -0.6109
 7556TIP3    H244084   3.102   1.411  16.331 -0.0222  0.8900 -0.1876
 7557TIP3   OH244085   5.724   5.196  16.165 -0.2059  0.0493 -0.0894
 7557TIP3    H144086   5.804   5.228  16.125 -0.6863  1.7116  0.2144
 7557TIP3    H244087   5.699   5.264  16.228 -3.2021  0.8593 -1.9531
 7558TIP3   OH244088   1.172   1.940  12.226 -0.1966 -0.0911  0.1594
 7558TIP3    H144089   1.163   1.853  12.187 -0.4030  0.5465 -1.2526
 7558TIP3    H244090   1.088   1.982  12.212  0.2785  0.7578 -0.2466
 7559TIP3   OH244091   2.825   5.368   2.426 -0.6173  0.2140  0.2047
 7559TIP3    H144092   2.748   5.420   2.450 -1.0018 -0.7172  1.0503
 7559TIP3    H244093   2.863   5.343   2.510  0.1047 -0.0717 -0.2073
 7560TIP3   OH244094   1.224   6.150   2.257  0.5149  0.0708  0.5423
 7560TIP3    H144095   1.205   6.243   2.243  0.4809  0.0497  0.4464
 7560TIP3    H244096   1.160   6.122   2.322  0.2084 -0.0036  0.2104
 7561TIP3   OH244097   6.342   2.746  12.075 -0.4077 -0.0078  0.6797
 7561TIP3    H144098   6.384   2.687  12.138 -1.0075 -2.1161 -0.7516
 7561TIP3    H244099   6.280   2.797  12.127  0.4003 -0.3786  2.0476
 7562TIP3   OH244100   3.585   2.300  11.564 -0.5805 -0.1105 -0.5628
 7562TIP3    H144101   3.522   2.302  11.492  0.3351  2.6067 -1.4239
 7562TIP3    H244102   3.670   2.308  11.521  0.0958  0.0892  0.7572
 7563TIP3   OH244103   6.383   2.192  13.211  0.1657 -0.0392 -0.4356
 7563TIP3    H144104   6.436   2.208  13.133 -1.1630 -1.2152 -1.6331
 7563TIP3    H244105   6.447   2.172  13.280  1.3353  0.3871 -1.3555
 7564TIP3   OH244106   2.438   0.162   5.549 -0.3102 -0.2002 -0.0014
 7564TIP3    H144107   2.516   0.112   5.574 -0.4120 -1.0912 -1.3230
 7564TIP3    H244108   2.461   0.253   5.566  1.1494 -0.4184 -0.6390
 7565TIP3   OH244109   1.947   3.101   1.622 -0.1953 -0.0103 -0.0680
 7565TIP3    H144110   1.936   3.156   1.545 -2.3870  2.0157  1.5639
 7565TIP3    H244111   2.036   3.066   1.614  0.4245  1.8525 -2.3847
 7566TIP3   OH244112   0.674   6.565   5.907 -0.2868  0.3495 -0.1154
 7566TIP3    H144113   0.724   6.485   5.888  1.4255  1.0856  1.0287
 7566TIP3    H244114   0.584   6.535   5.918  0.4434 -1.5673  1.0955
 7567TIP3   OH244115   1.135   2.860  14.203 -0.5651  0.1213 -0.4996
 7567TIP3    H144116   1.189   2.939  14.208  0.5244 -0.5106  5.1571
 7567TIP3    H244117   1.052   2.885  14.245 -1.0471 -1.1905 -0.6153
 7568TIP3   OH244118   0.735   0.077  11.825  0.3606  0.2126 -0.0721
 7568TIP3    H144119   0.778   0.082  11.911  1.0042  0.9609 -0.4277
 7568TIP3    H244120   0.789   0.130  11.768 -0.8018  0.8137 -0.6485
 7569TIP3   OH244121   3.875   4.066  13.447 -0.2919  0.1438 -0.5389
 7569TIP3    H144122   3.791   4.112  13.453 -0.5472 -0.4156  0.4158
 7569TIP3    H244123   3.878   4.011  13.525  0.0414 -1.4443 -1.6324
 7570TIP3   OH244124   2.723   0.640   1.865 -0.4941  0.1784 -0.3469
 7570TIP3    H144125   2.668   0.646   1.786  0.2390  0.7080 -0.8348
 7570TIP3    H244126   2.799   0.695   1.845  0.4869 -0.9750  0.0833
 7571TIP3   OH244127   5.946   6.535  11.301  0.1528  0.4613  0.0027
 7571TIP3    H144128   5.994   6.458  11.270 -0.4266  0.1771 -0.2097
 7571TIP3    H244129   5.980   6.551  11.389 -0.0989 -0.3778  0.2639
 7572TIP3   OH244130   4.881   6.010   5.544 -0.3317 -0.3527  0.3320
 7572TIP3    H144131   4.957   6.026   5.488 -1.0856 -0.4659 -0.7444
 7572TIP3    H244132   4.862   6.095   5.583  0.7071 -0.4528  1.0862
 7573TIP3   OH244133   5.138   4.163   3.030 -0.1095 -0.2939 -0.4346
 7573TIP3    H144134   5.063   4.222   3.037  0.7130  0.8440 -0.8692
 7573TIP3    H244135   5.207   4.217   2.991  1.2702 -0.9955  0.9339
 7574TIP3   OH244136   3.204   0.911  15.050 -0.0055  0.2591  0.6028
 7574TIP3    H144137   3.253   0.992  15.032 -1.1525  0.7915 -0.3003
 7574TIP3    H244138   3.254   0.843  15.006  0.2632  0.6983  0.2111
 7575TIP3   OH244139   0.426   1.471   3.294  0.0016 -0.3386  0.1674
 7575TIP3    H144140   0.407   1.407   3.364 -1.4538  1.3076  1.3656
 7575TIP3    H244141   0.345   1.474   3.243  0.0895  0.4486  0.0692
 7576TIP3   OH244142   5.252   1.479  16.138 -0.4216 -0.2701 -0.6002
 7576TIP3    H144143   5.296   1.539  16.197 -0.5643 -0.8859  0.1569
 7576TIP3    H244144   5.174   1.450  16.186 -0.0468 -1.5060 -0.6969
 7577TIP3   OH244145   1.301   4.223  17.029 -0.4468 -0.0642  0.7670
 7577TIP3    H144146   1.344   4.154  16.978  2.0691  0.4994  2.0086
 7577TIP3    H244147   1.287   4.183  17.115 -0.9358  0.3117  0.8640
 7578TIP3   OH244148   5.240   3.613  16.671  0.8391 -0.2225 -0.0643
 7578TIP3    H144149   5.220   3.577  16.585 -0.6883 -0.6338  0.4209
 7578TIP3    H244150   5.240   3.708  16.658 -0.0118 -0.2576 -0.4230
 7579TIP3   OH244151   4.739   1.478   3.848  0.1516  0.6172  0.0435
 7579TIP3    H144152   4.817   1.444   3.892 -1.0130 -1.7214  0.5107
 7579TIP3    H244153   4.771   1.512   3.765  1.5108 -2.1853 -0.7314
 7580TIP3   OH244154   1.986   5.007  14.790  0.1822 -0.9797  0.3202
 7580TIP3    H144155   1.962   4.917  14.812  1.9271 -2.2572 -2.3817
 7580TIP3    H244156   1.924   5.032  14.721  0.3808 -0.5094  0.3049
 7581TIP3   OH244157   0.530   6.424  15.916 -0.4744 -0.0104  0.6244
 7581TIP3    H144158   0.458   6.399  15.974 -1.9451  1.6297 -0.3859
 7581TIP3    H244159   0.535   6.519  15.923  1.4719 -0.0529  0.4646
 7582TIP3   OH244160   1.371   2.683   0.316 -0.5656 -0.4135 -0.0622
 7582TIP3    H144161   1.404   2.595   0.297  0.2229 -0.0972 -0.1923
 7582TIP3    H244162   1.276   2.675   0.308 -0.4990 -1.2394 -0.1258
 7583TIP3   OH244163   1.641   2.193   1.176  0.2734  0.5090  0.3908
 7583TIP3    H144164   1.569   2.217   1.234 -0.7162  0.5685 -0.8370
 7583TIP3    H244165   1.603   2.132   1.114  1.4468  0.0300  0.1168
 7584TIP3   OH244166   1.884   3.020  15.066  0.2052 -0.1971 -0.6765
 7584TIP3    H144167   1.802   2.974  15.082  0.3228 -0.3929 -0.6265
 7584TIP3    H244168   1.949   2.972  15.119  0.2912  0.1514 -0.4606
 7585TIP3   OH244169   4.609   2.699   1.440  0.0578 -0.0825  0.0352
 7585TIP3    H144170   4.564   2.619   1.414 -2.7925  0.3439  3.0330
 7585TIP3    H244171   4.674   2.672   1.504  1.3296 -0.2184 -1.2383
 7586TIP3   OH244172   2.807   4.054   0.034 -0.3294  0.0867 -0.3769
 7586TIP3    H144173   2.876   3.994   0.061 -1.3785 -0.4213  1.3373
 7586TIP3    H244174   2.741   4.047   0.102 -0.2815  3.6025  0.2454
 7587TIP3   OH244175   0.524   0.076   0.207 -0.4712 -0.1517 -0.3449
 7587TIP3    H144176   0.439   0.033   0.192 -1.1775  1.1037 -0.0855
 7587TIP3    H244177   0.546   0.116   0.123 -0.9403  0.8773  0.0079
 7588TIP3   OH244178   2.145   3.624   0.075  0.2685  0.1537  0.6018
 7588TIP3    H144179   2.213   3.596   0.135 -0.6725 -2.0171  0.7680
 7588TIP3    H244180   2.189   3.630  -0.010  0.6305 -1.7172  0.6097
 7589TIP3   OH244181   6.480   2.676   3.226  0.0290  0.1778  0.8837
 7589TIP3    H144182   6.545   2.686   3.156  0.4690  1.5952  1.4481
 7589TIP3    H244183   6.399   2.712   3.190 -0.3737 -1.2329  0.3163
 7590TIP3   OH244184   2.045   0.300   5.299  0.0084  0.3739  0.3050
 7590TIP3    H144185   1.997   0.304   5.381 -0.0852 -0.9359  0.3285
 7590TIP3    H244186   2.132   0.334   5.320  0.0755 -0.2159  1.0199
 7591TIP3   OH244187   1.450   1.226   1.513 -0.0391  0.0733 -0.2352
 7591TIP3    H144188   1.529   1.235   1.568 -0.7224  1.4489  0.5674
 7591TIP3    H244189   1.429   1.133   1.518  0.6645 -0.0576  0.7871
 7592TIP3   OH244190   2.264   1.664  16.107 -0.1164  0.1104  0.0245
 7592TIP3    H144191   2.283   1.585  16.157 -0.1246 -0.6947 -1.2030
 7592TIP3    H244192   2.172   1.654  16.081  0.4195 -0.4580 -1.7936
 7593TIP3   OH244193   6.573   3.564   1.241 -0.5832 -0.7338 -0.0684
 7593TIP3    H144194   6.560   3.508   1.317 -1.8978 -1.2246 -0.6336
 7593TIP3    H244195   6.515   3.639   1.255 -0.0317 -0.2844 -0.0935
 7594TIP3   OH244196   3.463   1.507  16.174  0.1168 -0.1427 -0.2717
 7594TIP3    H144197   3.481   1.561  16.097 -0.8999 -0.6499 -0.8929
 7594TIP3    H244198   3.431   1.424  16.138  1.1077 -0.9664  0.6812
 7595TIP3   OH244199   3.194   1.480  11.009 -0.1801  0.3411  0.3314
 7595TIP3    H144200   3.129   1.531  10.960 -1.8640 -1.2336  0.7716
 7595TIP3    H244201   3.255   1.449  10.943 -0.3287  1.2149 -0.2321
 7596TIP3   OH244202   3.464   0.734   4.424  0.6308  0.1245 -0.2622
 7596TIP3    H144203   3.475   0.827   4.401 -0.3318  0.3602  0.1727
 7596TIP3    H244204   3.523   0.721   4.498 -0.2097  0.7535  0.5436
 7597TIP3   OH244205   3.092   5.702   1.563 -1.1293  0.3087 -0.4617
 7597TIP3    H144206   3.135   5.786   1.577 -0.0701 -0.2982  0.0235
 7597TIP3    H244207   3.085   5.664   1.651  0.3319 -1.0254 -0.8773
 7598TIP3   OH244208   4.661   1.754  17.124 -0.1372  0.0959  0.2377
 7598TIP3    H144209   4.666   1.682  17.062 -0.3767  0.9668 -0.8417
 7598TIP3    H244210   4.670   1.833  17.070  0.0854  0.8744  1.3682
 7599TIP3   OH244211   0.234   4.377  11.637 -0.1618 -0.0275  0.1759
 7599TIP3    H144212   0.326   4.397  11.654 -0.0563 -1.2703  1.2530
 7599TIP3    H244213   0.190   4.396  11.719 -1.0630  1.5000 -0.6331
 7600TIP3   OH244214   4.934   6.006   0.603  0.5674 -0.1791 -0.4038
 7600TIP3    H144215   4.894   6.080   0.558  0.2610  0.7151  1.2359
 7600TIP3    H244216   4.970   6.044   0.683 -1.9343 -2.1733  1.8480
 7601TIP3   OH244217   6.171   5.110  15.629  0.0313  0.3984  0.1817
 7601TIP3    H144218   6.144   5.020  15.613 -0.4762  0.6421 -0.3856
 7601TIP3    H244219   6.108   5.143  15.693  0.3567  0.2825  0.5645
 7602TIP3   OH244220   1.451   5.377  14.433 -0.0709  0.2721  0.7150
 7602TIP3    H144221   1.362   5.388  14.467 -0.2387  1.7447 -0.1115
 7602TIP3    H244222   1.489   5.465  14.435  0.6588  0.0233 -0.8272
 7603TIP3   OH244223   6.584   0.638  15.169 -0.6308  0.2926  0.0714
 7603TIP3    H144224   6.594   0.560  15.223  0.4696  1.2349  1.3051
 7603TIP3    H244225   6.643   0.625  15.096 -0.1434  0.1401  0.4867
 7604TIP3   OH244226   3.186   1.479   0.978  0.1401  0.5932 -0.0504
 7604TIP3    H144227   3.141   1.471   1.062  1.0520  0.2975  0.4202
 7604TIP3    H244228   3.185   1.390   0.942  1.3432  0.3421  0.4959
 7605TIP3   OH244229   3.390   2.044  16.152  0.5384 -0.1434  0.2912
 7605TIP3    H144230   3.475   2.049  16.196  0.3816 -2.5204  1.0101
 7605TIP3    H244231   3.408   1.995  16.072  0.0189  0.1471 -0.0040
 7606TIP3   OH244232   5.608   2.985  14.495 -0.1535  0.1786 -0.3033
 7606TIP3    H144233   5.543   2.991  14.425  0.6406  0.0707 -1.0669
 7606TIP3    H244234   5.692   2.984  14.449  0.3621 -0.3483  0.6324
 7607TIP3   OH244235   0.770   0.905  17.149  0.3342  0.1794  0.1095
 7607TIP3    H144236   0.861   0.916  17.122  0.3796  0.8833  0.5168
 7607TIP3    H244237   0.719   0.928  17.072  0.4894  0.6986  0.1555
 7608TIP3   OH244238   2.137   2.047  13.891  0.0299 -0.4021 -0.1264
 7608TIP3    H144239   2.133   2.081  13.802  1.5488 -0.5323 -0.2698
 7608TIP3    H244240   2.110   2.120  13.947 -1.2337 -0.4116 -0.6767
 7609TIP3   OH244241   0.422   4.384   4.336 -0.3403  0.3566 -0.4122
 7609TIP3    H144242   0.380   4.375   4.422 -1.1091  0.1349 -0.7987
 7609TIP3    H244243   0.374   4.456   4.294 -0.7554 -0.3131 -1.1038
 7610TIP3   OH244244   2.729   4.538  16.261 -0.1129  0.4664  0.0879
 7610TIP3    H144245   2.810   4.494  16.286  0.1245  0.1245 -1.2050
 7610TIP3    H244246   2.682   4.475  16.207 -0.9138  0.9233  0.2228
 7611TIP3   OH244247   2.111   5.565  13.889 -0.3697 -0.1192 -0.1675
 7611TIP3    H144248   2.071   5.538  13.806 -1.2223  1.7596 -0.4328
 7611TIP3    H244249   2.176   5.630  13.864 -0.1346 -0.0596  0.5829
 7612TIP3   OH244250   2.138   4.308  12.324 -0.4037  0.7405 -0.1806
 7612TIP3    H144251   2.044   4.306  12.305 -0.4705  1.0374  0.1087
 7612TIP3    H244252   2.146   4.368  12.398  0.1657  1.7667 -1.0422
 7613TIP3   OH244253   1.215   6.761   2.839  0.6227 -0.0397 -0.1809
 7613TIP3    H144254   1.230   6.846   2.798 -0.9185  1.3024  1.8756
 7613TIP3    H244255   1.270   6.762   2.917  1.4172 -1.4287 -0.6864
 7614TIP3   OH244256   3.071   5.694   4.734  0.8648 -0.1779  0.2603
 7614TIP3    H144257   3.065   5.638   4.657  1.2439 -0.0561  0.1378
 7614TIP3    H244258   3.034   5.641   4.805  0.0561 -0.1050 -0.0961
 7615TIP3   OH244259   0.246   0.738  14.085 -0.0007 -0.3225 -0.2199
 7615TIP3    H144260   0.320   0.759  14.028 -0.3371  0.0514 -0.5248
 7615TIP3    H244261   0.249   0.807  14.152 -0.0169 -0.3628 -0.1778
 7616TIP3   OH244262   2.603   1.391  14.264  0.0456 -0.2631  0.1248
 7616TIP3    H144263   2.598   1.384  14.359 -1.6256  1.9386  0.2748
 7616TIP3    H244264   2.646   1.475  14.248  0.3226 -0.6149 -1.0865
 7617TIP3   OH244265   0.419   1.016   4.420 -0.4399 -0.1720 -0.3326
 7617TIP3    H144266   0.356   0.950   4.447  1.1423 -1.1550  1.1832
 7617TIP3    H244267   0.367   1.096   4.407 -2.1616 -1.3032 -0.6373
 7618TIP3   OH244268   2.214   6.699   2.992  0.1536 -0.8125  0.3701
 7618TIP3    H144269   2.224   6.713   3.086 -2.3379  0.4892  0.5114
 7618TIP3    H244270   2.295   6.732   2.954  0.9648 -0.8345  1.9932
 7619TIP3   OH244271   6.602   0.638   4.041 -0.0863  0.2020  0.3530
 7619TIP3    H144272   6.627   0.660   3.951 -2.9561  0.7431 -0.4067
 7619TIP3    H244273   6.584   0.544   4.039 -0.8574  0.3492  0.1571
 7620TIP3   OH244274   0.543   5.645   5.758  0.3808 -0.6718 -0.4105
 7620TIP3    H144275   0.510   5.593   5.832  0.6915 -0.0212  0.2054
 7620TIP3    H244276   0.630   5.608   5.740 -0.5247 -2.2156 -1.8638
 7621TIP3   OH244277   5.572   0.090   4.214  0.0866 -0.3052 -0.5343
 7621TIP3    H144278   5.511   0.163   4.203  1.7399  1.1648 -0.2499
 7621TIP3    H244279   5.600   0.068   4.125 -1.5055 -1.6286 -0.7628
 7622TIP3   OH244280   6.165   4.915  15.210 -0.4117  0.0700 -0.1931
 7622TIP3    H144281   6.141   5.003  15.239 -1.1170 -0.0397 -0.4251
 7622TIP3    H244282   6.086   4.882  15.166 -0.4699 -1.0327  0.7019
 7623TIP3   OH244283   1.225   2.442   5.876  1.0545 -0.0295  0.1834
 7623TIP3    H144284   1.205   2.447   5.970 -0.4079  0.7347 -0.1290
 7623TIP3    H244285   1.142   2.414   5.836  1.3899  0.5494 -0.9620
 7624TIP3   OH244286   3.210   3.966   1.213 -0.1621 -0.2786  0.7386
 7624TIP3    H144287   3.173   4.025   1.278 -0.7016  0.0527  0.1433
 7624TIP3    H244288   3.269   4.021   1.161 -2.1444  0.2792 -1.0796
 7625TIP3   OH244289   3.610   4.483   2.483  0.5825  0.4669  0.3506
 7625TIP3    H144290   3.700   4.478   2.514  1.2945 -0.6428 -1.7071
 7625TIP3    H244291   3.586   4.393   2.463 -0.8232  0.8001  0.3785
 7626TIP3   OH244292   3.414   3.291   2.207  0.2168 -0.0519 -0.0518
 7626TIP3    H144293   3.351   3.336   2.150 -0.0898 -0.6265 -0.1777
 7626TIP3    H244294   3.500   3.315   2.172  0.0769  0.8553  0.2057
 7627TIP3   OH244295   6.667   3.552  16.711  0.7876 -0.3599  0.0046
 7627TIP3    H144296   6.639   3.636  16.673  1.1015 -0.3218 -0.1451
 7627TIP3    H244297   6.614   3.486  16.666 -0.8482 -0.1055  1.4639
 7628TIP3   OH244298   6.320   2.359  16.844  0.1059  0.1124  0.2636
 7628TIP3    H144299   6.369   2.413  16.782  0.4265  0.5968  0.9196
 7628TIP3    H244300   6.283   2.288  16.791  0.5304  0.4076 -0.4393
 7629TIP3   OH244301   0.405   0.642  16.824  0.2066  0.1252 -0.2882
 7629TIP3    H144302   0.377   0.644  16.916 -0.0253 -0.8102 -0.3256
 7629TIP3    H244303   0.323   0.638  16.775  0.3362  0.4465 -0.5377
 7630TIP3   OH244304   3.785   3.861   2.789 -0.2899 -0.1989 -0.0253
 7630TIP3    H144305   3.811   3.952   2.804 -2.1203  0.5879 -1.2237
 7630TIP3    H244306   3.722   3.842   2.858  2.0929 -1.5785  1.9330
 7631TIP3   OH244307   4.253   3.085  13.375 -0.4089 -0.2556 -0.9438
 7631TIP3    H144308   4.218   2.999  13.352 -0.9305  0.1266 -1.6064
 7631TIP3    H244309   4.189   3.147  13.340  0.5209  0.4291 -1.4622
 7632TIP3   OH244310   0.724   4.762   4.564 -0.4120  0.0987  0.5668
 7632TIP3    H144311   0.761   4.751   4.477 -0.2650  0.6249  0.5584
 7632TIP3    H244312   0.631   4.780   4.549 -0.9309 -2.2144  0.6255
 7633TIP3   OH244313   1.806   4.537  15.736  0.5537 -0.2779 -0.1795
 7633TIP3    H144314   1.726   4.487  15.722 -0.4317  0.9756  0.6729
 7633TIP3    H244315   1.827   4.525  15.828  1.6221 -0.9485 -0.4910
 7634TIP3   OH244316   5.764   5.288  13.662 -0.2639 -0.7591 -0.1383
 7634TIP3    H144317   5.813   5.348  13.606 -3.3551  0.5293 -1.7628
 7634TIP3    H244318   5.765   5.205  13.615 -2.1125  0.0932 -1.8758
 7635TIP3   OH244319   0.374   4.086  15.178  0.2080 -0.0478 -0.1924
 7635TIP3    H144320   0.334   4.028  15.113 -1.7440  0.8465  0.1242
 7635TIP3    H244321   0.432   4.030  15.229  0.8947 -1.0028 -1.9487
 7636TIP3   OH244322   0.285   1.696  14.249 -0.0572 -0.1568 -0.2743
 7636TIP3    H144323   0.242   1.749  14.316  0.0281 -0.6920  0.2040
 7636TIP3    H244324   0.368   1.742  14.232 -0.4409  0.4230 -0.6071
 7637TIP3   OH244325   6.012   5.068  12.411 -0.6181  0.6493  0.2924
 7637TIP3    H144326   6.101   5.037  12.426 -1.0380 -0.6594  0.2744
 7637TIP3    H244327   6.010   5.096  12.320 -0.8847 -1.8937 -0.5586
 7638TIP3   OH244328   2.045   0.733  12.053 -0.2990 -0.6093 -0.0759
 7638TIP3    H144329   2.007   0.794  12.115 -0.1846  0.9510 -1.4576
 7638TIP3    H244330   2.100   0.787  11.997  2.2494 -2.4570  0.4786
 7639TIP3   OH244331   0.508   3.128   1.995  0.2561  0.0383 -0.1703
 7639TIP3    H144332   0.488   3.170   2.079  0.2255 -0.5211  0.1074
 7639TIP3    H244333   0.590   3.169   1.967  0.6902 -0.3295  0.5273
 7640TIP3   OH244334   2.295   5.323   0.791  0.2453 -0.5866 -0.4215
 7640TIP3    H144335   2.204   5.294   0.778 -0.0239  0.7449 -1.6897
 7640TIP3    H244336   2.289   5.389   0.860  0.4726 -1.4746  0.4775
 7641TIP3   OH244337   5.148   0.629  11.919 -0.4859  0.2321 -0.4853
 7641TIP3    H144338   5.237   0.601  11.941 -0.1312 -0.8456 -2.9964
 7641TIP3    H244339   5.095   0.602  11.994  0.8442 -1.8285 -0.2263
 7642TIP3   OH244340   1.214   6.206   5.871  0.2261 -0.0129 -0.1245
 7642TIP3    H144341   1.287   6.145   5.880 -0.9912 -1.6056 -0.5862
 7642TIP3    H244342   1.209   6.251   5.956  0.6036 -1.2072  0.5504
 7643TIP3   OH244343   2.029   0.117  10.998  0.3034 -0.9099 -0.1561
 7643TIP3    H144344   2.079   0.154  11.071  0.0700  0.5805 -0.7068
 7643TIP3    H244345   1.959   0.067  11.039 -0.2561  0.5022  0.6713
 7644TIP3   OH244346   3.124   3.813  13.701  0.0886 -0.0930  0.7539
 7644TIP3    H144347   3.180   3.749  13.657  1.4300  1.8447 -0.5067
 7644TIP3    H244348   3.136   3.894  13.651 -1.7171  1.1036  2.1396
 7645TIP3   OH244349   4.856   2.661  16.619  0.2685 -0.6479 -0.1023
 7645TIP3    H144350   4.827   2.580  16.661  0.3849 -0.2922  0.6706
 7645TIP3    H244351   4.836   2.730  16.682  2.7240 -0.3626  0.4613
 7646TIP3   OH244352   3.410   2.265   3.317  0.0092  0.5666 -0.1147
 7646TIP3    H144353   3.422   2.259   3.222  1.9997 -1.5999  0.1514
 7646TIP3    H244354   3.494   2.300   3.349 -0.3697  0.5809  0.8912
 7647TIP3   OH244355   4.694   1.556   5.769  0.4156  0.3488  0.0036
 7647TIP3    H144356   4.766   1.537   5.709 -0.6195 -0.4976 -1.0117
 7647TIP3    H244357   4.729   1.537   5.856  1.9135  1.5178 -0.3090
 7648TIP3   OH244358   3.322   4.615  12.954  0.7387 -0.0523  0.3736
 7648TIP3    H144359   3.310   4.707  12.978 -0.5300  0.2006 -1.0964
 7648TIP3    H244360   3.342   4.616  12.861 -2.3955 -1.3825 -0.4323
 7649TIP3   OH244361   1.783   0.413   1.474  0.8299  0.1447  0.1149
 7649TIP3    H144362   1.755   0.364   1.397  1.8010  1.0502 -0.8446
 7649TIP3    H244363   1.718   0.482   1.484  0.5526 -0.1383  0.2771
 7650TIP3   OH244364   4.988   2.817  15.021 -0.4871 -0.7767  0.3192
 7650TIP3    H144365   5.081   2.834  15.010 -0.7459  0.7335  0.2693
 7650TIP3    H244366   4.977   2.725  14.995  0.9232 -0.8725  0.0040
 7651TIP3   OH244367   1.096   4.586   5.375 -0.2166 -0.4836  0.9381
 7651TIP3    H144368   1.018   4.549   5.333 -1.2484  1.2207  1.2165
 7651TIP3    H244369   1.168   4.529   5.348 -1.0148 -0.2296 -2.0906
 7652TIP3   OH244370   1.866   3.645  12.436 -0.1794  0.5128  0.1509
 7652TIP3    H144371   1.849   3.551  12.429 -0.0031  0.5061 -0.1875
 7652TIP3    H244372   1.913   3.654  12.519 -0.0533  0.2827  0.1061
 7653TIP3   OH244373   2.742   1.278  16.334 -0.5049  0.2517 -0.1396
 7653TIP3    H144374   2.657   1.276  16.289 -0.8243  0.3734  0.4451
 7653TIP3    H244375   2.773   1.368  16.321  0.1454 -0.1519 -1.4587
 7654TIP3   OH244376   4.002   6.111  16.742  0.4557  0.4888  0.8529
 7654TIP3    H144377   3.991   6.025  16.700 -1.1874  0.4742  1.2754
 7654TIP3    H244378   3.999   6.173  16.669  0.3594  0.2832  0.6790
 7655TIP3   OH244379   2.117   5.029   0.913  0.5264 -1.0700 -0.5316
 7655TIP3    H144380   2.159   4.944   0.902 -2.1097 -2.4712 -0.6504
 7655TIP3    H244381   2.092   5.032   1.005  0.5671 -0.4280 -0.5338
 7656TIP3   OH244382   5.829   6.675   2.866 -0.2077 -0.1214 -0.5953
 7656TIP3    H144383   5.739   6.651   2.887  0.7961 -2.7247  1.3840
 7656TIP3    H244384   5.840   6.652   2.774 -1.6175  0.6213 -0.9793
 7657TIP3   OH244385   0.418   5.913   6.236  0.3661  0.1184  0.2480
 7657TIP3    H144386   0.496   5.871   6.201  0.5315 -0.2370  1.0202
 7657TIP3    H244387   0.442   5.939   6.325 -0.4784 -0.2569  0.6027
 7658TIP3   OH244388   4.237   3.514  16.878 -0.0022  0.5000 -0.5440
 7658TIP3    H144389   4.180   3.579  16.837 -1.5424 -0.3331  0.1762
 7658TIP3    H244390   4.188   3.486  16.956  1.2614 -0.4905 -0.0805
 7659TIP3   OH244391   5.964   6.710  13.548 -0.7715  0.1749  0.0880
 7659TIP3    H144392   6.056   6.691  13.566 -0.4307  1.6071 -0.0209
 7659TIP3    H244393   5.942   6.782  13.607 -2.1193 -0.7430  0.7912
 7660TIP3   OH244394   3.639   1.312  14.924 -0.2242  0.1514 -0.3057
 7660TIP3    H144395   3.658   1.303  14.830 -0.7803  1.0801 -0.5166
 7660TIP3    H244396   3.720   1.349  14.960 -0.3624  0.7766 -0.6095
 7661TIP3   OH244397   4.011   3.872  16.051 -0.1216  0.0087  0.2409
 7661TIP3    H144398   3.978   3.804  16.108 -0.2625 -0.4451 -0.3732
 7661TIP3    H244399   3.989   3.843  15.963 -1.7565  1.6760  0.0294
 7662TIP3   OH244400   0.099   2.136  13.260  0.2311 -0.1537 -0.0167
 7662TIP3    H144401   0.141   2.213  13.222 -0.5216  1.3016  1.9171
 7662TIP3    H244402   0.170   2.092  13.307  0.3929  0.1303  0.0085
 7663TIP3   OH244403   4.220   5.639  11.787 -0.1993 -0.0617 -0.1392
 7663TIP3    H144404   4.261   5.716  11.827 -1.4551  0.5560 -0.0026
 7663TIP3    H244405   4.130   5.641  11.818 -0.3427 -1.3960 -0.4305
 7664TIP3   OH244406   1.185   4.106  12.493 -0.3085  0.1715 -0.3377
 7664TIP3    H144407   1.225   4.053  12.562  0.1402  0.0826 -0.6614
 7664TIP3    H244408   1.111   4.150  12.536 -0.4658 -0.4320  0.0247
 7665TIP3   OH244409   5.287   1.745  16.576  0.5547  0.1308 -0.5893
 7665TIP3    H144410   5.210   1.698  16.543  0.6931 -1.7707  1.5821
 7665TIP3    H244411   5.260   1.837  16.576 -1.5370 -0.4305 -0.4026
 7666TIP3   OH244412   1.422   4.934  11.574  0.4142 -0.4607 -0.3426
 7666TIP3    H144413   1.371   5.009  11.542 -1.0959 -1.5622 -0.5813
 7666TIP3    H244414   1.388   4.917  11.662  1.5532 -0.1824  0.1810
 7667TIP3   OH244415   2.691   5.053   5.444 -0.0161 -0.2243  0.4921
 7667TIP3    H144416   2.762   4.998   5.478  0.0266 -0.4965 -0.0267
 7667TIP3    H244417   2.711   5.140   5.477  0.6297 -0.2730  0.2545
 7668TIP3   OH244418   5.868   4.416  14.495 -0.5097 -0.2550  0.5765
 7668TIP3    H144419   5.861   4.477  14.569 -0.5901  0.5234 -0.0665
 7668TIP3    H244420   5.778   4.389  14.478 -0.4300 -0.9069  1.1414
 7669TIP3   OH244421   6.692   1.998   5.567 -0.5613  0.7386 -0.3642
 7669TIP3    H144422   6.600   2.004   5.594  0.2121  1.6163  2.4597
 7669TIP3    H244423   6.706   1.904   5.550 -2.1339  0.6956 -1.6081
 7670TIP3   OH244424   2.764   0.100  11.309 -0.7101 -0.2976 -0.0407
 7670TIP3    H144425   2.743   0.124  11.399  0.5344 -0.4481  0.3003
 7670TIP3    H244426   2.708   0.024  11.291  0.2311 -1.3282  1.1927
 7671TIP3   OH244427   1.254   5.366  11.261 -0.1273  0.1102 -0.3108
 7671TIP3    H144428   1.336   5.346  11.215 -0.2346 -0.1133 -0.4095
 7671TIP3    H244429   1.266   5.454  11.295  0.9875 -0.6790  1.5020
 7672TIP3   OH244430   0.810   5.445   0.650 -0.1391 -0.3281  0.2933
 7672TIP3    H144431   0.894   5.420   0.689 -0.2999 -1.5257 -0.0864
 7672TIP3    H244432   0.824   5.439   0.556  0.1864  2.3672  0.0918
 7673TIP3   OH244433   2.631   2.084   4.188  0.0793  0.1621  0.4178
 7673TIP3    H144434   2.680   2.163   4.165  0.6807 -0.5764 -1.0109
 7673TIP3    H244435   2.541   2.102   4.161  0.4459 -0.0463 -1.0660
 7674TIP3   OH244436   1.369   2.604   3.715 -0.6850 -0.0853  0.1108
 7674TIP3    H144437   1.301   2.538   3.697  0.6265 -2.1872  2.2487
 7674TIP3    H244438   1.446   2.571   3.669 -0.2888  0.5159  0.3396
 7675TIP3   OH244439   1.121   1.668   0.829 -0.1051  0.5311 -0.1853
 7675TIP3    H144440   1.142   1.660   0.736 -0.7261  1.7428 -0.4543
 7675TIP3    H244441   1.124   1.578   0.862 -0.9492 -0.0589 -1.6191
 7676TIP3   OH244442   6.460   5.934  15.324 -0.1408  0.2047 -0.2695
 7676TIP3    H144443   6.410   6.010  15.294  0.9240  1.5823  1.2732
 7676TIP3    H244444   6.480   5.885  15.244 -0.3465  1.8610 -1.3833
 7677TIP3   OH244445   1.008   3.835  11.884 -0.1544 -0.0337  0.2076
 7677TIP3    H144446   1.008   3.930  11.872 -2.7487 -0.2793 -3.0292
 7677TIP3    H244447   0.919   3.815  11.913 -0.3372 -1.5933 -1.2988
 7678TIP3   OH244448   6.202   4.830   4.355 -0.0847 -0.0317  0.1208
 7678TIP3    H144449   6.297   4.826   4.350 -0.0979 -0.9867  0.3456
 7678TIP3    H244450   6.174   4.739   4.339 -1.1407  0.7632 -3.3665
 7679TIP3   OH244451   2.032   3.139   1.026 -0.8429  0.3794 -0.2560
 7679TIP3    H144452   2.112   3.131   1.077 -0.7007 -2.3769 -0.7430
 7679TIP3    H244453   1.964   3.100   1.081 -0.8511 -1.8426 -1.6974
 7680TIP3   OH244454   0.137   4.400   4.156  0.3106  0.5128  0.8555
 7680TIP3    H144455   0.215   4.423   4.106 -1.0208 -0.7065 -1.9545
 7680TIP3    H244456   0.068   4.457   4.122 -0.8780 -1.0831  0.4625
 7681TIP3   OH244457   5.184   1.911   1.313 -0.0627 -0.1056 -0.3720
 7681TIP3    H144458   5.250   1.970   1.276  0.0185 -0.5024 -0.8718
 7681TIP3    H244459   5.234   1.847   1.364 -0.0055 -0.7227 -1.1824
 7682TIP3   OH244460   4.052   4.124   2.620 -0.3279  0.0155 -0.4605
 7682TIP3    H144461   4.119   4.071   2.577 -1.2819 -1.2868 -0.4014
 7682TIP3    H244462   3.979   4.064   2.634 -0.7052  0.8463  1.4456
 7683TIP3   OH244463   5.811   3.483  11.165  0.3463  0.4544  0.2647
 7683TIP3    H144464   5.814   3.515  11.074 -0.6582  0.0381  0.0697
 7683TIP3    H244465   5.765   3.399  11.159  1.8149 -0.4371  0.9403
 7684TIP3   OH244466   3.218   5.895   4.219 -0.1213 -0.0366  0.3761
 7684TIP3    H144467   3.167   5.940   4.286  1.4941  0.0293  1.6189
 7684TIP3    H244468   3.241   5.811   4.258  3.8921  1.3869  1.4990
 7685TIP3   OH244469   4.375   4.770  11.189 -0.4762  0.3454  0.6792
 7685TIP3    H144470   4.348   4.723  11.267 -2.8503 -1.6987 -1.1928
 7685TIP3    H244471   4.471   4.764  11.188 -0.5449 -1.8258  2.0926
 7686TIP3   OH244472   3.439   2.405  11.362 -0.0672 -0.6778 -0.1923
 7686TIP3    H144473   3.363   2.462  11.344  1.7329  2.2071  0.6597
 7686TIP3    H244474   3.481   2.395  11.277 -0.1776 -0.3607 -0.2881
 7687TIP3   OH244475   3.967   2.163   2.533 -0.6536  1.2306  0.1614
 7687TIP3    H144476   3.902   2.097   2.558  0.2397  0.3498  0.2375
 7687TIP3    H244477   3.929   2.246   2.560 -1.7058  0.7283  0.2860
 7688TIP3   OH244478   2.798   1.212   5.851 -0.2025 -0.3385  0.6935
 7688TIP3    H144479   2.867   1.208   5.784  0.9617  0.1739  1.8099
 7688TIP3    H244480   2.736   1.277   5.817  0.1027 -0.4526 -0.1123
 7689TIP3   OH244481   1.793   1.941   1.237  0.5994 -0.3477  0.6088
 7689TIP3    H144482   1.758   2.026   1.211  0.3408 -0.9379 -1.0857
 7689TIP3    H244483   1.884   1.942   1.207  1.1585 -0.0123  2.2088
 7690TIP3   OH244484   3.282   4.223   5.393 -0.0094  0.3835  0.3280
 7690TIP3    H144485   3.220   4.161   5.431  1.0973 -1.1269 -0.2138
 7690TIP3    H244486   3.326   4.263   5.468  0.5343 -0.8698  0.7121
 7691TIP3   OH244487   1.852   5.734   0.694  0.3616  0.1199 -0.1119
 7691TIP3    H144488   1.913   5.681   0.745 -1.1940 -1.5302  0.1089
 7691TIP3    H244489   1.770   5.730   0.742  0.0359  2.3581 -0.3746
 7692TIP3   OH244490   0.681   4.517  15.369 -0.0955 -0.0230  0.8460
 7692TIP3    H144491   0.616   4.448  15.377 -1.6015  1.0947 -1.0831
 7692TIP3    H244492   0.644   4.590  15.420 -0.1661  0.4825  0.0750
 7693TIP3   OH244493   5.091   4.171  13.876  0.4971  0.5537 -0.7377
 7693TIP3    H144494   5.042   4.136  13.802 -1.3482  0.4882  0.4489
 7693TIP3    H244495   5.127   4.093  13.919  1.6795  0.6004 -1.5950
 7694TIP3   OH244496   5.538   4.562   3.003  0.1206  0.0967 -0.3911
 7694TIP3    H144497   5.579   4.518   3.078  0.0483  1.0387  0.2197
 7694TIP3    H244498   5.586   4.645   2.995  0.8624 -0.4658 -2.0936
 7695TIP3   OH244499   0.086   3.961  11.388 -0.1192  0.6692 -0.4339
 7695TIP3    H144500   0.110   3.977  11.479  0.0829 -1.2106 -0.1177
 7695TIP3    H244501   0.091   4.047  11.347 -0.4951  1.6160  1.3746
 7696TIP3   OH244502   5.916   1.240  15.677  0.5084  0.4705  0.2984
 7696TIP3    H144503   5.986   1.189  15.717  0.5545  1.2705  1.2613
 7696TIP3    H244504   5.926   1.225  15.583 -0.2383 -2.2846  0.5772
 7697TIP3   OH244505   6.344   2.206  13.840 -0.0457 -0.1206  0.0232
 7697TIP3    H144506   6.311   2.120  13.815  0.2260 -0.8012  1.8634
 7697TIP3    H244507   6.331   2.260  13.763  1.1939 -2.1793 -1.7294
 7698TIP3   OH244508   3.301   0.478  11.726  0.0224 -0.5429 -0.7270
 7698TIP3    H144509   3.333   0.551  11.779  0.4337 -1.2183 -0.0269
 7698TIP3    H244510   3.373   0.459  11.666  1.1400 -2.2328  1.0221
 7699TIP3   OH244511   0.895   5.194  13.948 -0.0051 -0.1837  0.5087
 7699TIP3    H144512   0.891   5.285  13.918 -1.7465  0.4901  2.4922
 7699TIP3    H244513   0.975   5.190  14.000 -0.2598  0.4551  0.9793
 7700TIP3   OH244514   0.693   0.032  12.096 -0.0215  0.3544 -0.9318
 7700TIP3    H144515   0.760   0.099  12.113  1.8873 -1.3632 -1.3563
 7700TIP3    H244516   0.720  -0.043  12.149 -1.1469 -0.6719 -1.7619
 7701TIP3   OH244517   1.264   0.975  16.331  0.4800 -0.1876 -0.6420
 7701TIP3    H144518   1.237   1.063  16.358  1.1503  0.7807 -2.9228
 7701TIP3    H244519   1.229   0.918  16.399  0.1901  1.8390  1.0173
 7702TIP3   OH244520   0.661   2.554   4.046 -0.1354  0.3488  0.0447
 7702TIP3    H144521   0.648   2.459   4.049  0.5321  0.2398 -0.3389
 7702TIP3    H244522   0.735   2.570   4.105 -0.5388  0.6908  0.4670
 7703TIP3   OH244523   2.505   4.049  15.889  0.1409  0.2116  0.2838
 7703TIP3    H144524   2.583   4.008  15.926 -0.0411  1.2092  1.8541
 7703TIP3    H244525   2.508   4.026  15.796  1.2541 -1.3966  0.6685
 7704TIP3   OH244526   3.123   4.496  12.655 -0.1340 -0.0893  0.7911
 7704TIP3    H144527   3.207   4.451  12.642 -0.1817  0.3276 -1.3117
 7704TIP3    H244528   3.143   4.588  12.636 -1.2994 -0.1625 -0.9147
 7705TIP3   OH244529   5.996   6.582  16.902 -0.1679  0.1401  0.0207
 7705TIP3    H144530   6.069   6.639  16.930  0.2923 -0.6709  0.5074
 7705TIP3    H244531   5.933   6.642  16.863  0.2059  1.0243  0.7387
 7706TIP3   OH244532   5.648   0.593  15.967 -0.1854 -0.3609 -0.3685
 7706TIP3    H144533   5.620   0.530  15.900  0.1870 -1.1016  0.1513
 7706TIP3    H244534   5.567   0.616  16.013 -0.4031 -0.0518 -0.9053
 7707TIP3   OH244535   0.919   4.386  15.387 -0.1357 -0.6068 -0.0457
 7707TIP3    H144536   0.925   4.342  15.302 -1.2606  1.6494 -1.4132
 7707TIP3    H244537   0.844   4.445  15.377  0.9516  1.2035  1.8080
 7708TIP3   OH244538   0.305   3.820   3.721 -0.4176 -0.4006  0.3634
 7708TIP3    H144539   0.320   3.863   3.637 -0.3351 -0.3454  0.4060
 7708TIP3    H244540   0.390   3.823   3.765 -0.8108  0.9310  1.0764
 7709TIP3   OH244541   5.931   0.973   3.929  0.5427  0.3109 -0.3744
 7709TIP3    H144542   5.982   0.947   4.006  0.2580  1.7071  0.3229
 7709TIP3    H244543   5.956   1.064   3.914  0.3896  0.1418 -1.7936
 7710TIP3   OH244544   2.871   3.102  14.213 -0.3367 -0.4079 -0.1148
 7710TIP3    H144545   2.824   3.130  14.134  0.7721  3.2981  0.3481
 7710TIP3    H244546   2.808   3.049  14.261 -2.2596  0.1555 -1.8780
 7711TIP3   OH244547   2.626   2.246  12.516 -0.2386 -0.6929  0.0031
 7711TIP3    H144548   2.539   2.214  12.539  0.0780 -0.7618  1.1972
 7711TIP3    H244549   2.616   2.340  12.507 -0.0405 -0.3888  2.3460
 7712TIP3   OH244550   6.636   1.046  12.796  0.5229 -0.2505  0.0169
 7712TIP3    H144551   6.630   0.994  12.717 -0.3057 -1.1561  0.6483
 7712TIP3    H244552   6.556   1.025  12.845 -1.0440  3.2949 -0.6825
 7713TIP3   OH244553   1.913   0.696  14.701  0.2997  0.4621  0.0629
 7713TIP3    H144554   1.834   0.647  14.677  0.2246  0.1848  0.8601
 7713TIP3    H244555   1.881   0.783  14.723  0.3947  0.7862 -1.0367
 7714TIP3   OH244556   1.540   1.996   0.996 -0.1219 -0.0813  0.2371
 7714TIP3    H144557   1.530   1.902   0.985 -0.2126 -0.1292  0.7137
 7714TIP3    H244558   1.619   2.018   0.946 -0.3299 -0.3407 -0.2118
 7715TIP3   OH244559   2.718   4.970  16.156 -0.3623  0.2702 -0.2767
 7715TIP3    H144560   2.677   4.963  16.071 -0.9543 -0.3649  0.0510
 7715TIP3    H244561   2.810   4.948  16.140 -0.4549  0.2383 -0.7673
 7716TIP3   OH244562   1.504   4.840   0.604  0.1889 -0.2884  0.2028
 7716TIP3    H144563   1.517   4.934   0.608 -0.2361 -0.0589 -2.2139
 7716TIP3    H244564   1.593   4.804   0.603  0.4506  0.3117 -1.6043
 7717TIP3   OH244565   1.414   5.398   2.199 -0.0147  0.7101  0.3016
 7717TIP3    H144566   1.467   5.390   2.120 -0.7598  0.7968 -0.2173
 7717TIP3    H244567   1.446   5.330   2.257 -0.9523 -0.8598 -0.9565
 7718TIP3   OH244568   3.724   4.193   4.207 -0.0614  0.1043 -0.0245
 7718TIP3    H144569   3.724   4.147   4.291 -0.0107  0.9472  0.4440
 7718TIP3    H244570   3.714   4.285   4.230  0.9900  0.4578 -0.8813
 7719TIP3   OH244571   2.124   4.305   3.171 -0.0851  0.3682 -0.4390
 7719TIP3    H144572   2.079   4.367   3.228 -0.1960 -0.2317  0.1437
 7719TIP3    H244573   2.071   4.225   3.176  0.9211 -0.2831  0.1073
 7720TIP3   OH244574   4.170   2.176   0.438 -0.1918  0.0244 -0.1218
 7720TIP3    H144575   4.096   2.189   0.379 -0.9703 -0.6124  0.6782
 7720TIP3    H244576   4.169   2.082   0.457 -0.7017  0.3980  1.8344
 7721TIP3   OH244577   4.916   0.614  14.331  0.2130 -0.0909 -0.0915
 7721TIP3    H144578   4.898   0.579  14.244 -3.4829  0.1538  0.4125
 7721TIP3    H244579   4.898   0.708  14.324  0.4734  0.0346  0.7762
 7722TIP3   OH244580   3.471   4.854  11.337 -0.5976 -0.4001  0.5028
 7722TIP3    H144581   3.520   4.803  11.401 -1.1576 -0.2063  1.1059
 7722TIP3    H244582   3.422   4.917  11.390 -0.3520  0.3892 -0.1831
 7723TIP3   OH244583   4.838   6.683   0.322 -0.1001  0.1046 -0.5336
 7723TIP3    H144584   4.789   6.744   0.377  0.2297 -0.1093  0.0049
 7723TIP3    H244585   4.863   6.735   0.246 -1.4406  0.1311 -0.9840
 7724TIP3   OH244586   1.774   6.608   2.249 -0.1818  0.0593 -0.3327
 7724TIP3    H144587   1.748   6.645   2.334  0.8167  0.4801 -0.1927
 7724TIP3    H244588   1.764   6.681   2.188 -0.0217  0.0155 -0.4102
 7725TIP3   OH244589   1.647   6.667  11.516 -0.3753 -0.5408 -0.4989
 7725TIP3    H144590   1.568   6.616  11.528  0.0223 -1.3433 -1.1898
 7725TIP3    H244591   1.700   6.616  11.455  0.0342  0.6877 -1.2134
 7726TIP3   OH244592   0.657   1.797  15.526  0.5020 -1.2198  0.1891
 7726TIP3    H144593   0.582   1.763  15.574 -0.9900 -0.8397 -1.7321
 7726TIP3    H244594   0.618   1.841  15.450  2.6494 -0.4076 -0.4997
 7727TIP3   OH244595   4.988   3.629   5.395 -0.3076  0.4290 -0.2843
 7727TIP3    H144596   4.987   3.656   5.303  2.1266  0.4761 -0.3670
 7727TIP3    H244597   4.990   3.711   5.445  2.3130  0.5245 -0.3893
 7728TIP3   OH244598   0.463   6.233  16.495  0.1491 -0.5012  0.0439
 7728TIP3    H144599   0.423   6.274  16.571 -0.7624 -1.2492 -0.0188
 7728TIP3    H244600   0.536   6.181  16.531  0.3088 -0.1098  0.2911
 7729TIP3   OH244601   2.252   3.358  14.637  0.4582  0.3743  0.3571
 7729TIP3    H144602   2.242   3.408  14.718 -0.6990  0.5856  0.1020
 7729TIP3    H244603   2.302   3.416  14.579  1.0771  0.3176  0.8227
 7730TIP3   OH244604   4.688   0.704  12.962  0.1743 -0.4361 -0.1741
 7730TIP3    H144605   4.722   0.730  13.048 -0.5053 -1.4247  0.4098
 7730TIP3    H244606   4.764   0.666  12.918  0.4640 -0.1744  0.0894
 7731TIP3   OH244607   1.897   2.167   0.544  0.1976  0.0482 -0.1129
 7731TIP3    H144608   1.971   2.209   0.589 -0.2307  1.8606 -0.9809
 7731TIP3    H244609   1.914   2.182   0.451 -0.6151 -0.6578 -0.3851
 7732TIP3   OH244610   1.750   3.275  15.894  0.1503  0.3957  0.1140
 7732TIP3    H144611   1.692   3.307  15.825 -2.1926  0.4798  2.0087
 7732TIP3    H244612   1.738   3.337  15.966  1.7534 -0.2591  0.9920
 7733TIP3   OH244613   2.736   1.091  16.567 -0.3559 -0.3163 -0.6917
 7733TIP3    H144614   2.739   1.092  16.472  1.4152 -0.6593 -0.6676
 7733TIP3    H244615   2.650   1.128  16.589 -0.6597  0.0506 -2.3986
 7734TIP3   OH244616   6.406   3.530  13.789 -0.6697  0.4212 -0.2930
 7734TIP3    H144617   6.313   3.508  13.785 -0.6189  0.2338 -0.4429
 7734TIP3    H244618   6.415   3.605  13.731 -0.9100  1.0894  0.5023
 7735TIP3   OH244619   3.926   3.686  15.225  0.2239 -0.9146  0.3319
 7735TIP3    H144620   3.886   3.747  15.287  2.3541  1.6440 -0.6259
 7735TIP3    H244621   3.862   3.680  15.153 -0.0633  0.1391  0.4828
 7736TIP3   OH244622   3.722   2.749   2.493 -0.1217 -0.2639 -0.1248
 7736TIP3    H144623   3.725   2.791   2.407 -2.6831 -0.3130 -0.3267
 7736TIP3    H244624   3.813   2.736   2.517  0.7596 -1.8208 -3.6275
 7737TIP3   OH244625   3.005   5.752  16.463 -0.0127  0.3569 -0.0890
 7737TIP3    H144626   2.928   5.737  16.408  0.2887 -1.7585 -0.0043
 7737TIP3    H244627   3.078   5.759  16.401  0.2127 -1.2543 -0.0518
 7738TIP3   OH244628   4.290   3.625  15.408 -0.1106  0.2101  0.4357
 7738TIP3    H144629   4.241   3.659  15.333 -0.8204  0.1761  0.8718
 7738TIP3    H244630   4.267   3.533  15.412  1.2939 -0.1954 -0.3424
 7739TIP3   OH244631   1.108   1.057  15.710 -0.3557  0.4140  0.0899
 7739TIP3    H144632   1.054   1.031  15.784 -0.4110  0.7903  0.1800
 7739TIP3    H244633   1.194   1.020  15.730  0.1696  2.2009  1.3279
 7740TIP3   OH244634   1.843   4.768  15.428 -0.2672 -0.3854 -0.0895
 7740TIP3    H144635   1.882   4.701  15.484  0.7641  1.6157  1.7081
 7740TIP3    H244636   1.761   4.792  15.471 -1.0928 -1.0846 -1.2157
 7741TIP3   OH244637   4.578   1.547   2.608 -0.2042 -0.2509  0.2334
 7741TIP3    H144638   4.603   1.474   2.551  0.4562  0.7539 -0.8164
 7741TIP3    H244639   4.483   1.554   2.598 -0.4126 -1.5421  1.0861
 7742TIP3   OH244640   5.189   4.594  15.356 -0.5769 -0.2247  0.2661
 7742TIP3    H144641   5.099   4.628  15.360 -0.1662  0.8982  0.3405
 7742TIP3    H244642   5.200   4.546  15.438 -0.5143  1.2058  1.1219
 7743TIP3   OH244643   5.282   0.937   5.426 -0.4734  0.2531  0.1214
 7743TIP3    H144644   5.345   0.954   5.496 -1.8158  0.0440  1.4137
 7743TIP3    H244645   5.241   1.022   5.410  0.6777  0.5853 -1.3255
 7744TIP3   OH244646   2.764   5.271   5.565  0.5540  0.3756 -0.1588
 7744TIP3    H144647   2.763   5.279   5.660  0.9810 -0.7570 -0.0376
 7744TIP3    H244648   2.769   5.361   5.533  0.5982  0.7576  0.8920
 7745TIP3   OH244649   4.020   1.116   6.203 -0.8696  0.2029  0.2978
 7745TIP3    H144650   4.076   1.039   6.196 -0.0608  0.7786  0.2014
 7745TIP3    H244651   3.991   1.117   6.294 -0.8431 -0.1897  0.3103
 7746TIP3   OH244652   1.030   2.639  13.009  0.3840  0.1454  0.1523
 7746TIP3    H144653   1.052   2.551  13.041 -0.9274 -1.1838 -2.2535
 7746TIP3    H244654   0.947   2.627  12.963 -1.1538  3.2241  1.8405
 7747TIP3   OH244655   1.094   4.196  14.042  0.0238  0.2416  0.0622
 7747TIP3    H144656   0.999   4.210  14.035  0.0523  0.5576  0.2743
 7747TIP3    H244657   1.103   4.127  14.106 -0.0752  0.0193 -0.1610
 7748TIP3   OH244658   5.403   2.980   0.618  0.3789 -0.1363 -0.3505
 7748TIP3    H144659   5.433   2.928   0.544  1.2821 -0.9835  0.5813
 7748TIP3    H244660   5.483   3.015   0.657  0.1018 -1.2542  1.3330
 7749TIP3   OH244661   0.532   2.215  15.473  0.3633  0.3572 -0.3370
 7749TIP3    H144662   0.535   2.134  15.524 -0.2561  0.1203 -0.6530
 7749TIP3    H244663   0.468   2.270  15.519  0.0086  0.2507 -0.6905
 7750TIP3   OH244664   3.937   2.319  10.544 -0.2044 -0.0808  0.4087
 7750TIP3    H144665   3.864   2.274  10.500  0.5829  0.0892 -1.1381
 7750TIP3    H244666   4.006   2.253  10.547 -0.2344 -0.0746  1.3889
 7751TIP3   OH244667   0.647   0.396   2.024  0.3213 -0.0567  0.2802
 7751TIP3    H144668   0.630   0.363   2.112 -2.8616  1.7166  0.5011
 7751TIP3    H244669   0.591   0.344   1.967  1.2357 -0.2162 -0.4895
 7752TIP3   OH244670   5.749   3.242   5.890  0.0737 -0.4489 -0.2536
 7752TIP3    H144671   5.840   3.255   5.916  0.2394 -0.9429 -0.5913
 7752TIP3    H244672   5.732   3.150   5.906 -0.2293 -0.4584 -0.6352
 7753TIP3   OH244673   1.138   1.629  13.400 -0.6623 -0.0847  0.2227
 7753TIP3    H144674   1.146   1.690  13.327 -0.1321  0.6209  0.8520
 7753TIP3    H244675   1.073   1.669  13.458  0.0211  0.1267  0.8597
 7754TIP3   OH244676   3.536   5.413  12.766  0.1507 -0.2116 -0.3686
 7754TIP3    H144677   3.631   5.428  12.761  0.2927 -0.8320  0.2625
 7754TIP3    H244678   3.520   5.397  12.859 -0.0892 -3.1017 -0.8109
 7755TIP3   OH244679   0.962   5.023  15.770 -0.1063  0.3629 -0.1428
 7755TIP3    H144680   0.974   5.005  15.863  3.4484  1.0139 -0.3597
 7755TIP3    H244681   0.896   4.959  15.742 -0.5918 -0.4565  2.5824
 7756TIP3   OH244682   0.860   3.012  16.382  0.0957  0.6914  0.1424
 7756TIP3    H144683   0.936   3.049  16.336  1.0196  0.4325  1.4286
 7756TIP3    H244684   0.803   3.088  16.397 -1.4178  0.4807 -3.4620
 7757TIP3   OH244685   2.945   5.040  12.435  0.1523  0.0946  0.3687
 7757TIP3    H144686   2.901   4.956  12.423  0.4101 -0.5533  3.1222
 7757TIP3    H244687   3.039   5.019  12.429  0.2493  0.9945 -2.8877
 7758TIP3   OH244688   0.494   4.247  16.542 -0.1923  0.1476  0.2281
 7758TIP3    H144689   0.484   4.175  16.479 -0.8972  1.0511 -0.7124
 7758TIP3    H244690   0.530   4.319  16.490  2.4575 -0.0786  1.5550
 7759TIP3   OH244691   2.926   1.641  15.469 -0.4709 -0.3551 -0.7608
 7759TIP3    H144692   2.925   1.582  15.545 -0.8439  1.0169  0.3445
 7759TIP3    H244693   2.838   1.635  15.433 -0.0649 -1.6130 -1.5995
 7760TIP3   OH244694   3.235   5.939   1.280  0.0684  0.1679 -0.1045
 7760TIP3    H144695   3.251   6.026   1.316  1.0141 -0.5219  1.2169
 7760TIP3    H244696   3.146   5.918   1.306  0.1388  0.3872  0.3148
 7761TIP3   OH244697   6.515   6.659  11.899  0.5788  0.0565 -0.2096
 7761TIP3    H144698   6.498   6.705  11.982 -1.1372  1.6498 -1.3657
 7761TIP3    H244699   6.464   6.578  11.906 -1.7185  1.3791 -0.6691
 7762TIP3   OH244700   3.366   1.146   2.983 -0.6683 -0.2237 -0.0982
 7762TIP3    H144701   3.380   1.227   2.935 -1.1072 -0.8165 -1.2514
 7762TIP3    H244702   3.271   1.132   2.980 -0.6920 -0.3455  0.8343
 7763TIP3   OH244703   3.572   2.975   3.266  0.3457  0.6864 -0.2002
 7763TIP3    H144704   3.565   2.966   3.361 -0.3505  0.8191 -0.2356
 7763TIP3    H244705   3.660   3.009   3.252  0.2486  1.2381  0.4451
 7764TIP3   OH244706   6.684   4.235   3.774  0.3311  0.2767 -0.8498
 7764TIP3    H144707   6.772   4.200   3.757  0.1056  0.4547 -2.5959
 7764TIP3    H244708   6.692   4.329   3.758  0.7624  1.1073  3.1478
 7765TIP3   OH244709   2.872   5.287  12.647 -0.0142 -0.0096  0.5217
 7765TIP3    H144710   2.795   5.296  12.703  0.4008 -0.4025  1.1723
 7765TIP3    H244711   2.872   5.196  12.619  0.2954 -0.0496  0.6458
 7766TIP3   OH244712   5.876   5.759  11.067  0.3182 -0.7679  0.4420
 7766TIP3    H144713   5.928   5.735  11.144  1.7152  0.7381  0.0269
 7766TIP3    H244714   5.930   5.733  10.993  0.7685  1.2292 -0.0041
 7767TIP3   OH244715   1.156   6.197   1.709 -0.4938  0.4866  0.1557
 7767TIP3    H144716   1.178   6.201   1.802 -1.2046 -0.9359  0.4141
 7767TIP3    H244717   1.061   6.206   1.706 -0.6708 -1.1206 -0.2540
 7768TIP3   OH244718   4.591   2.807  14.646  0.8333 -0.1296  0.8002
 7768TIP3    H144719   4.558   2.826  14.734  0.4380  3.0702  0.0797
 7768TIP3    H244720   4.681   2.841  14.646  0.9253 -0.3599  0.0715
 7769TIP3   OH244721   2.941   0.169  14.736 -0.5117  0.2077 -0.2804
 7769TIP3    H144722   2.867   0.185  14.678 -0.8391  1.8515  0.5525
 7769TIP3    H244723   3.016   0.157  14.677 -0.9786  1.0852 -1.0662
 7770TIP3   OH244724   5.384   1.972  12.512  0.5964 -0.4199  0.8820
 7770TIP3    H144725   5.398   1.993  12.604 -0.5566 -0.1065  0.9901
 7770TIP3    H244726   5.398   1.878  12.507  2.5139 -0.2009  1.0041
 7771TIP3   OH244727   1.689   6.459  17.136  0.2910  0.6299 -0.2183
 7771TIP3    H144728   1.708   6.399  17.064  0.3154  0.6775 -0.2508
 7771TIP3    H244729   1.598   6.485  17.122 -0.5166 -1.2507  1.1243
 7772TIP3   OH244730   2.733   5.185  12.267 -0.2938 -0.3283 -0.0482
 7772TIP3    H144731   2.688   5.102  12.279 -1.6242  0.5808  1.7331
 7772TIP3    H244732   2.796   5.188  12.339 -2.3194  1.4310  1.7910
 7773TIP3   OH244733   2.482   2.564  16.001 -0.6158  0.2280  0.9836
 7773TIP3    H144734   2.567   2.567  15.956 -0.7824 -2.1714  0.4000
 7773TIP3    H244735   2.504   2.535  16.090 -0.6078  2.0785  1.6276
 7774TIP3   OH244736   3.666   0.264  11.949  0.0936  0.1856  0.3067
 7774TIP3    H144737   3.606   0.196  11.980  0.6750 -0.4487  0.0567
 7774TIP3    H244738   3.714   0.291  12.027  0.1274  0.0372  0.3376
 7775TIP3   OH244739   0.552   1.318   1.587  0.3911  0.4468 -0.3211
 7775TIP3    H144740   0.580   1.409   1.578 -1.6159  1.0191 -1.3489
 7775TIP3    H244741   0.487   1.319   1.657  1.1153 -0.4178  0.3974
 7776TIP3   OH244742   1.403   0.011   3.334 -0.5142  0.2074  0.1079
 7776TIP3    H144743   1.377  -0.006   3.425  4.3285  1.6389  2.0334
 7776TIP3    H244744   1.466   0.082   3.339  0.9450 -0.4658 -4.2765
 7777TIP3   OH244745   1.743   5.989   4.364 -0.1051  0.0128  0.2068
 7777TIP3    H144746   1.675   5.957   4.423  0.0240  0.7640  0.7871
 7777TIP3    H244747   1.772   5.912   4.316  0.7097 -0.9263  2.0714
 7778TIP3   OH244748   4.759   4.542  14.369  0.0553 -0.0989  0.5564
 7778TIP3    H144749   4.770   4.518  14.277 -0.2120 -0.6407  0.6592
 7778TIP3    H244750   4.755   4.638  14.369  3.8038  0.2067  0.3986
 7779TIP3   OH244751   4.873   5.173   3.773 -0.5260 -0.5455  0.5494
 7779TIP3    H144752   4.808   5.195   3.839 -1.0627 -0.0561 -0.1257
 7779TIP3    H244753   4.830   5.194   3.689  0.9534  1.0931  0.1274
 7780TIP3   OH244754   5.077   1.180   0.682 -0.6934 -0.0013 -0.6763
 7780TIP3    H144755   5.048   1.202   0.594 -2.3155 -1.1430 -0.4974
 7780TIP3    H244756   5.141   1.110   0.670  0.9023  1.4505 -1.0111
 7781TIP3   OH244757   6.021   6.434  15.347 -0.0723  0.1466  0.1823
 7781TIP3    H144758   6.020   6.529  15.360  1.3344  0.2829 -0.4611
 7781TIP3    H244759   5.936   6.414  15.307 -0.9576  0.9082  1.6264
 7782TIP3   OH244760   3.131   6.040  16.940 -0.2296  0.4458 -0.3359
 7782TIP3    H144761   3.129   6.116  16.882  1.0544  0.6767 -0.1054
 7782TIP3    H244762   3.202   5.985  16.905  1.7592  1.3770  1.9149
 7783TIP3   OH244763   6.636   3.897  16.850 -0.0059  0.4297  0.5150
 7783TIP3    H144764   6.714   3.843  16.858 -0.3022 -0.1548 -0.3838
 7783TIP3    H244765   6.617   3.926  16.939  1.7242  1.3017  0.6484
 7784TIP3   OH244766   0.928   0.502   5.151  0.2740 -0.8059  0.0179
 7784TIP3    H144767   0.909   0.452   5.231 -0.3529 -0.6690 -0.0356
 7784TIP3    H244768   0.869   0.577   5.156 -1.0938 -1.7025 -1.4261
 7785TIP3   OH244769   3.727   1.309  12.182 -0.6038  0.0300 -0.0963
 7785TIP3    H144770   3.718   1.214  12.191 -0.8531 -0.2912 -2.9564
 7785TIP3    H244771   3.701   1.328  12.092 -2.2556  3.0673  0.8526
 7786TIP3   OH244772   4.682   5.316   0.181 -0.3254  0.7709  0.2922
 7786TIP3    H144773   4.637   5.291   0.101  0.6459  0.1297 -0.0718
 7786TIP3    H244774   4.629   5.278   0.252 -0.5709  0.3742 -0.0991
 7787TIP3   OH244775   6.346   2.981  11.659  0.5345  0.0874 -0.2380
 7787TIP3    H144776   6.393   3.008  11.738 -0.9927 -0.5383  0.9462
 7787TIP3    H244777   6.401   3.012  11.587  1.6677  1.2577  1.0483
 7788TIP3   OH244778   0.958   2.646  15.873 -0.5670 -0.2465  0.0391
 7788TIP3    H144779   0.988   2.679  15.789 -2.1717  1.5505  0.0864
 7788TIP3    H244780   0.862   2.647  15.866 -0.7345 -0.2355  1.8043
 7789TIP3   OH244781   2.911   3.166   2.609  0.7039  0.9033 -0.0734
 7789TIP3    H144782   2.975   3.102   2.578  1.2473 -0.0248  2.6277
 7789TIP3    H244783   2.965   3.238   2.643  0.1463  1.9324 -1.3056
 7790TIP3   OH244784   0.935   0.650  16.954 -0.2087  0.1251  0.6490
 7790TIP3    H144785   0.843   0.623  16.955 -0.1563 -0.0437  1.0696
 7790TIP3    H244786   0.945   0.700  16.873 -0.6491  0.0644  0.5580
 7791TIP3   OH244787   2.007   0.894  15.961  0.5905  0.2705  0.5235
 7791TIP3    H144788   1.990   0.908  16.054  0.8273  0.7100  0.5016
 7791TIP3    H244789   1.966   0.968  15.917  1.1626  0.4836  0.3425
 7792TIP3   OH244790   2.582   2.359  11.566  0.1857 -0.0880 -0.7905
 7792TIP3    H144791   2.533   2.277  11.574 -0.1084 -0.1007 -2.3925
 7792TIP3    H244792   2.661   2.335  11.517  0.4651  0.4447 -0.6013
 7793TIP3   OH244793   6.441   1.637   0.638  0.3698 -0.5411 -0.1281
 7793TIP3    H144794   6.465   1.694   0.711 -1.7662  1.4654 -0.8700
 7793TIP3    H244795   6.485   1.554   0.657  1.6137  0.5708  2.2977
 7794TIP3   OH244796   2.935   6.437   1.839  0.0241  0.0737 -0.1870
 7794TIP3    H144797   2.842   6.459   1.847 -0.4350 -2.0218  0.7938
 7794TIP3    H244798   2.961   6.408   1.927  1.3029 -0.4733 -0.7168
 7795TIP3   OH244799   4.437   1.203   0.388 -0.2724  0.0449 -0.5567
 7795TIP3    H144800   4.488   1.124   0.409 -0.9759 -0.5061 -0.8807
 7795TIP3    H244801   4.362   1.200   0.448 -0.2290  0.5537 -0.4691
 7796TIP3   OH244802   3.901   3.525  14.315  0.9001  0.6261 -0.3919
 7796TIP3    H144803   3.856   3.589  14.259 -2.2695 -2.4659 -1.7605
 7796TIP3    H244804   3.844   3.515  14.391  1.5653 -0.2091  0.0105
 7797TIP3   OH244805   5.036   0.437  15.010 -0.2341  0.0625 -0.1155
 7797TIP3    H144806   5.066   0.350  15.038 -0.7804  0.1918  0.9512
 7797TIP3    H244807   5.116   0.482  14.984 -0.0234 -0.9912 -1.3936
 7798TIP3   OH244808   6.589   2.978  15.123  0.6641 -0.1796  0.8035
 7798TIP3    H144809   6.610   2.945  15.035 -0.5595  0.7082  0.1507
 7798TIP3    H244810   6.672   3.012  15.156  0.6086  2.3277 -1.3001
 7799TIP3   OH244811   3.216   2.331   6.187 -0.0463 -0.0330 -0.1535
 7799TIP3    H144812   3.295   2.321   6.239  0.2744 -0.6742 -0.7511
 7799TIP3    H244813   3.168   2.402   6.230 -1.0562 -2.1933  2.5747
 7800TIP3   OH244814   4.468   3.995  13.193  0.4193  0.3903  0.1333
 7800TIP3    H144815   4.487   4.013  13.100 -0.4820  1.9555  0.2185
 7800TIP3    H244816   4.553   4.000  13.236  0.5299  2.3645 -0.2316
 7801TIP3   OH244817   0.819   0.365   3.034  0.1907 -0.3275 -0.3976
 7801TIP3    H144818   0.867   0.411   2.966 -0.5960 -1.6712 -1.9444
 7801TIP3    H244819   0.886   0.318   3.084  1.1310  2.9893  1.8139
 7802TIP3   OH244820   6.203   5.636   1.270  0.3216 -0.2713 -0.5220
 7802TIP3    H144821   6.288   5.597   1.292 -1.2382 -2.5070  2.3584
 7802TIP3    H244822   6.197   5.713   1.325  0.7031  0.2447 -1.1914
 7803TIP3   OH244823   1.039   4.028  13.607  0.2107 -0.2530 -0.1782
 7803TIP3    H144824   0.964   3.978  13.640 -0.5437 -0.5537 -2.1840
 7803TIP3    H244825   1.004   4.079  13.534  1.7021  0.5777 -0.3552
 7804TIP3   OH244826   6.657   5.381  14.222 -0.2630  0.4585 -0.0901
 7804TIP3    H144827   6.564   5.395  14.206 -0.2119 -1.0568 -2.1249
 7804TIP3    H244828   6.697   5.383  14.135  1.1556 -1.7222  0.4215
 7805TIP3   OH244829   4.025   5.224  15.448 -0.1253 -0.5562 -0.1063
 7805TIP3    H144830   4.057   5.141  15.483  1.1982 -0.3008 -0.6443
 7805TIP3    H244831   4.099   5.258  15.397  0.2414  2.0195  1.9120
 7806TIP3   OH244832   2.576   2.598  11.211  0.2304  0.6876 -0.7524
 7806TIP3    H144833   2.504   2.540  11.183 -0.3847 -0.0623  2.0246
 7806TIP3    H244834   2.541   2.686  11.202 -1.6017  0.3054  1.6296
 7807TIP3   OH244835   0.406   3.601   6.169  0.0013  0.4211 -0.0437
 7807TIP3    H144836   0.466   3.674   6.185 -0.3114  0.4229  1.2096
 7807TIP3    H244837   0.333   3.640   6.122  0.3530  0.6931 -0.3694
 7808TIP3   OH244838   3.755   3.731  16.938 -0.6166 -0.2308  0.3738
 7808TIP3    H144839   3.761   3.801  17.002 -1.1798 -1.6679  2.0690
 7808TIP3    H244840   3.666   3.697  16.947 -0.8420 -0.2590 -1.4453
 7809TIP3   OH244841   5.379   1.698  14.308  0.0785 -0.1041 -0.0406
 7809TIP3    H144842   5.424   1.675  14.389 -0.0123 -0.7464 -0.1708
 7809TIP3    H244843   5.289   1.717  14.336  0.3096  0.7590  0.1571
 7810TIP3   OH244844   2.200   3.516  16.491 -0.0981 -0.0066  0.0259
 7810TIP3    H144845   2.118   3.513  16.541  1.2461  0.1655  2.3557
 7810TIP3    H244846   2.228   3.424  16.486  0.6471  0.1394  1.1776
 7811TIP3   OH244847   4.699   3.518  15.337 -0.0322 -0.6357  0.1232
 7811TIP3    H144848   4.630   3.575  15.304 -1.1407 -1.7712  0.3554
 7811TIP3    H244849   4.700   3.444  15.276  0.7048 -0.8139  0.3466
 7812TIP3   OH244850   5.756   0.892   1.107 -0.2171 -0.0238 -0.0724
 7812TIP3    H144851   5.715   0.896   1.021 -2.0971 -0.5552  0.7305
 7812TIP3    H244852   5.796   0.805   1.111  0.6889  0.3543 -0.7327
 7813TIP3   OH244853   0.853   3.769   0.349 -0.2538 -0.4913 -0.0920
 7813TIP3    H144854   0.843   3.713   0.426  0.5553 -0.0263  0.3722
 7813TIP3    H244855   0.948   3.778   0.338 -0.3653  0.3617 -0.4618
 7814TIP3   OH244856   1.779   5.726   4.302  0.0879 -0.2718 -0.3656
 7814TIP3    H144857   1.711   5.661   4.322 -0.1518 -0.4847 -1.7882
 7814TIP3    H244858   1.797   5.714   4.209  2.2018 -0.3316 -0.0024
 7815TIP3   OH244859   3.689   4.670   5.878  0.0571 -0.2965  0.0690
 7815TIP3    H144860   3.754   4.600   5.864  0.1331  0.0672 -1.5349
 7815TIP3    H244861   3.742   4.748   5.894 -0.0037 -0.1911 -0.2504
 7816TIP3   OH244862   5.230   4.543   5.483  0.3556  0.2159  0.0344
 7816TIP3    H144863   5.176   4.539   5.561  0.9149  0.3336  0.4377
 7816TIP3    H244864   5.291   4.470   5.493 -0.1824 -0.3544 -0.7630
 7817TIP3   OH244865   6.135   3.265   0.843 -0.1186 -0.3191  0.2966
 7817TIP3    H144866   6.102   3.183   0.806  1.1004 -0.6442 -0.0884
 7817TIP3    H244867   6.067   3.291   0.906 -0.6346 -1.4905  0.2511
 7818TIP3   OH244868   5.562   2.654  13.481 -0.5864 -0.6340 -0.6033
 7818TIP3    H144869   5.480   2.605  13.484 -0.8018 -0.2635  0.7138
 7818TIP3    H244870   5.543   2.729  13.425 -1.4611 -0.0708  0.4094
 7819TIP3   OH244871   5.127   5.095   1.166 -0.1532  0.7481 -0.4680
 7819TIP3    H144872   5.036   5.114   1.142 -0.5978 -0.7163 -0.0481
 7819TIP3    H244873   5.130   5.110   1.260 -0.1088  0.3112 -0.3950
 7820TIP3   OH244874   5.624   5.706  13.219 -0.6058 -0.1581 -0.6299
 7820TIP3    H144875   5.543   5.700  13.168  0.5616 -2.0410 -2.3897
 7820TIP3    H244876   5.595   5.704  13.310 -2.6548  1.6252 -1.1408
 7821TIP3   OH244877   1.532   2.524   3.967  0.6382 -0.3164  0.3725
 7821TIP3    H144878   1.487   2.585   3.908 -1.0182 -0.3868  1.4817
 7821TIP3    H244879   1.625   2.535   3.947  0.2186  0.5955 -1.3213
 7822TIP3   OH244880   0.520   2.484  12.677  0.1549  0.0338 -0.5095
 7822TIP3    H144881   0.598   2.438  12.644  0.2120 -0.1296 -0.1435
 7822TIP3    H244882   0.487   2.429  12.747  1.4632  1.5847  1.4236
 7823TIP3   OH244883   1.556   2.192   6.298  0.2713  0.4286 -0.2511
 7823TIP3    H144884   1.606   2.173   6.218 -0.6441  2.2663 -1.3163
 7823TIP3    H244885   1.611   2.157   6.368  0.2266 -3.0009 -1.7204
 7824TIP3   OH244886   2.257   3.501   5.455 -0.0364  0.0004  0.0374
 7824TIP3    H144887   2.236   3.409   5.444  0.0740 -0.0820  0.5120
 7824TIP3    H244888   2.175   3.541   5.486 -0.1508  0.1072 -0.3931
 7825TIP3   OH244889   6.310   1.994  11.524 -0.0630  0.3190  0.4203
 7825TIP3    H144890   6.290   2.026  11.612 -3.6070  2.9774 -1.1307
 7825TIP3    H244891   6.406   2.001  11.518  0.1977  1.2483  3.6093
 7826TIP3   OH244892   2.073   4.486  15.968  0.4609  0.0649 -0.3420
 7826TIP3    H144893   2.160   4.527  15.972  0.9730 -0.9252 -0.9807
 7826TIP3    H244894   2.070   4.443  15.883 -0.4391 -0.4033 -0.0893
 7827TIP3   OH244895   3.067   5.803   3.789  0.2546 -0.4793 -0.0969
 7827TIP3    H144896   3.077   5.731   3.851  0.2773 -0.9179 -0.6027
 7827TIP3    H244897   3.153   5.809   3.746  1.0238  1.3838  1.5612
 7828TIP3   OH244898   6.262   1.601   1.070 -0.4573 -0.1188  0.4117
 7828TIP3    H144899   6.178   1.629   1.107 -0.3750  1.1328 -0.3091
 7828TIP3    H244900   6.292   1.675   1.018  1.6905 -0.0655  1.6058
 7829TIP3   OH244901   5.647   2.001  13.314  0.1273  0.1354  0.0661
 7829TIP3    H144902   5.645   2.070  13.382 -1.5741  0.2334 -0.0195
 7829TIP3    H244903   5.556   1.971  13.309  0.7265 -1.7552 -0.3028
 7830TIP3   OH244904   0.182   5.603   5.678  0.0498 -0.2396 -0.1512
 7830TIP3    H144905   0.102   5.555   5.698  1.0047 -0.9417  2.3639
 7830TIP3    H244906   0.240   5.536   5.640 -0.6037  0.3574 -2.3772
 7831TIP3   OH244907   0.233   4.255  14.177 -0.8214 -0.4336  0.2945
 7831TIP3    H144908   0.276   4.215  14.253 -1.1558  0.2767  0.8797
 7831TIP3    H244909   0.157   4.301  14.215 -1.6708 -1.0494 -0.6192
 7832TIP3   OH244910   1.938   1.273   1.221  0.4681 -0.1515 -0.0070
 7832TIP3    H144911   2.003   1.236   1.162 -0.4132 -0.6301 -0.6924
 7832TIP3    H244912   1.865   1.210   1.220 -0.3779  0.7969  0.0513
 7833TIP3   OH244913   5.064   1.448  13.960 -0.3825  0.2496 -0.3704
 7833TIP3    H144914   5.026   1.473  14.045  0.9079  0.4666  0.1596
 7833TIP3    H244915   5.129   1.382  13.982 -0.6955 -0.3967 -1.3119
 7834TIP3   OH244916   0.919   1.435   3.803 -0.2080 -0.5114  0.6011
 7834TIP3    H144917   0.967   1.443   3.886  3.4574 -0.1488 -1.3483
 7834TIP3    H244918   0.878   1.520   3.790  1.9538  0.5886  0.5759
 7835TIP3   OH244919   4.444   6.180   5.135 -0.0244 -0.0093  0.6887
 7835TIP3    H144920   4.392   6.101   5.151 -3.5130  1.8734 -0.3671
 7835TIP3    H244921   4.426   6.237   5.210  0.1790  0.8566  0.0948
 7836TIP3   OH244922   0.861   3.526  15.737 -0.0336 -0.2353 -0.0416
 7836TIP3    H144923   0.797   3.501  15.670 -0.3057  1.3387 -0.4208
 7836TIP3    H244924   0.808   3.562  15.809  0.3479 -0.2425  0.2481
 7837TIP3   OH244925   2.443   4.915   3.888  0.2949  0.5840 -0.4637
 7837TIP3    H144926   2.374   4.859   3.922 -0.3518  0.8521 -1.3070
 7837TIP3    H244927   2.453   4.984   3.954  0.3057  0.1095  0.0333
 7838TIP3   OH244928   5.593   0.389  11.061 -0.4376 -0.7427  0.8194
 7838TIP3    H144929   5.597   0.343  10.977 -0.5142 -2.0991  1.5514
 7838TIP3    H244930   5.505   0.373  11.094 -0.4045 -0.2180  1.1858
 7839TIP3   OH244931   2.566   3.164   3.066  0.9098 -0.4144  0.0706
 7839TIP3    H144932   2.629   3.224   3.026  0.3858  0.7919  0.9969
 7839TIP3    H244933   2.595   3.077   3.039  1.6143  0.2479 -1.4200
 7840TIP3   OH244934   2.437   3.981  14.187 -0.0159 -0.1119  0.6593
 7840TIP3    H144935   2.370   3.997  14.253 -1.2050  0.7324 -0.6953
 7840TIP3    H244936   2.420   4.046  14.118 -0.3995 -2.4967 -1.6713
 7841TIP3   OH244937   6.519   1.930   4.733 -1.0098 -0.1135  0.1945
 7841TIP3    H144938   6.527   1.936   4.638 -1.3870  0.1006  0.1720
 7841TIP3    H244939   6.516   2.021   4.763 -0.4591 -0.1767  0.4530
 7842TIP3   OH244940   3.586   0.833  13.862 -0.0620  0.4727  0.0402
 7842TIP3    H144941   3.641   0.786  13.924  0.5608  0.2752 -0.6465
 7842TIP3    H244942   3.648   0.873  13.801 -0.6956 -1.8958 -2.3256
 7843TIP3   OH244943   2.893   3.217   1.832 -0.3502 -0.1638 -0.0838
 7843TIP3    H144944   2.946   3.255   1.762 -1.2510 -0.0832 -0.7347
 7843TIP3    H244945   2.867   3.292   1.886  2.0954 -0.4407  1.6065
 7844TIP3   OH244946   0.648   4.204   2.413 -0.2724 -0.4300  0.1348
 7844TIP3    H144947   0.634   4.164   2.499 -0.8757  0.9594  0.7278
 7844TIP3    H244948   0.706   4.278   2.431 -1.9013  1.0078 -0.2906
 7845TIP3   OH244949   2.695   2.810   6.060  0.0930 -0.3027  0.2306
 7845TIP3    H144950   2.646   2.824   6.142 -1.2659 -2.8311 -0.0505
 7845TIP3    H244951   2.774   2.763   6.087  0.2148 -0.1118  0.2084
 7846TIP3   OH244952   0.877   5.017   0.808  0.4162  0.7081 -0.1551
 7846TIP3    H144953   0.946   5.000   0.872 -0.1556 -0.5006  0.1630
 7846TIP3    H244954   0.815   4.945   0.818 -0.6165  1.4536 -0.8297
 7847TIP3   OH244955   3.437   1.879  14.118  0.0743  0.0042  0.0841
 7847TIP3    H144956   3.387   1.802  14.144  1.5426 -1.5072 -1.2702
 7847TIP3    H244957   3.488   1.850  14.042 -0.2524  2.6913 -1.2826
 7848TIP3   OH244958   3.626   2.672   1.114  0.2345  0.4228  0.0696
 7848TIP3    H144959   3.701   2.656   1.057  0.3808  1.0569  0.0821
 7848TIP3    H244960   3.574   2.739   1.069  0.0682  0.5326  0.4198
 7849TIP3   OH244961   6.380   4.506  16.153 -0.2269 -0.0988 -0.6983
 7849TIP3    H144962   6.373   4.597  16.122 -0.1755  0.2383  0.2357
 7849TIP3    H244963   6.468   4.501  16.191 -1.5792  0.7516  3.0372
 7850TIP3   OH244964   5.764   1.359   6.243  0.1405 -0.4864 -0.1220
 7850TIP3    H144965   5.848   1.369   6.199  0.8349  0.7244  1.3824
 7850TIP3    H244966   5.786   1.347   6.335 -1.3313  1.0296  0.4843
 7851TIP3   OH244967   6.448   4.691   0.696 -0.1381 -0.2273 -0.2635
 7851TIP3    H144968   6.410   4.614   0.654 -0.4113 -1.2143  1.6749
 7851TIP3    H244969   6.437   4.761   0.632  0.8643 -1.9404 -2.4333
 7852TIP3   OH244970   0.699   6.746   4.183 -0.1250 -0.0209  0.5900
 7852TIP3    H144971   0.658   6.697   4.112 -0.1239 -0.3601  0.8238
 7852TIP3    H244972   0.730   6.679   4.244  0.6879  0.2305  0.4662
 7853TIP3   OH244973   2.977   4.393   3.318  0.7511 -0.3237  0.1642
 7853TIP3    H144974   3.042   4.384   3.388  2.0539  0.4929 -0.9055
 7853TIP3    H244975   2.894   4.365   3.359  1.9072 -2.3729  1.2743
 7854TIP3   OH244976   2.289   5.713  15.082 -0.3203 -0.3328 -0.8442
 7854TIP3    H144977   2.316   5.670  15.162  2.0527 -1.1184 -1.9610
 7854TIP3    H244978   2.322   5.803  15.090 -1.8542  0.1966 -0.1435
 7855TIP3   OH244979   3.059   4.793   2.044 -0.7237  0.6892  0.2931
 7855TIP3    H144980   3.048   4.855   2.116  0.3278  1.3258 -0.0588
 7855TIP3    H244981   3.023   4.711   2.076 -2.5678  1.5794  0.6097
 7856TIP3   OH244982   2.898   2.232   3.942 -0.0238 -0.4350  0.1078
 7856TIP3    H144983   2.969   2.206   3.883  1.0116  0.9438  0.6872
 7856TIP3    H244984   2.823   2.247   3.884  0.9676  0.8962 -0.9005
 7857TIP3   OH244985   2.179   0.526  17.071 -0.6716  0.3170 -0.6596
 7857TIP3    H144986   2.230   0.476  17.135 -2.0114 -0.1751  0.0675
 7857TIP3    H244987   2.110   0.568  17.123 -0.3391  1.9017 -1.4530
 7858TIP3   OH244988   1.451   0.732  11.381  0.3007  0.3593  0.0868
 7858TIP3    H144989   1.393   0.709  11.308  2.8887 -1.2764 -1.6055
 7858TIP3    H244990   1.508   0.800  11.345  1.3854 -0.2134  0.6833
 7859TIP3   OH244991   5.903   2.550  12.356  0.6265 -0.5542 -0.4941
 7859TIP3    H144992   5.980   2.523  12.306  0.1127 -1.8126 -0.6336
 7859TIP3    H244993   5.897   2.644  12.341  1.8783 -0.5099 -0.8418
 7860TIP3   OH244994   5.755   3.259  16.215  0.1044 -0.3787  0.2397
 7860TIP3    H144995   5.721   3.331  16.161  1.6519  0.0267 -0.2588
 7860TIP3    H244996   5.811   3.303  16.279  0.3982 -1.0777  0.4651
 7861TIP3   OH244997   2.341   3.085  13.975  0.5386  0.7290 -0.0931
 7861TIP3    H144998   2.347   3.135  13.893  0.9764  0.2464 -0.3614
 7861TIP3    H244999   2.307   3.148  14.039  0.1198  1.0869 -0.6639
 7862TIP3   OH245000   6.109   2.529  12.185 -0.3563  0.0838 -0.0830
 7862TIP3    H145001   6.158   2.477  12.122  0.7782  0.4365  0.4658
 7862TIP3    H245002   6.085   2.609  12.137  1.1544  0.6880  0.0995
 7863TIP3   OH245003   3.835   3.267  13.128 -0.1369 -0.0085  0.1476
 7863TIP3    H145004   3.910   3.207  13.124 -0.9286 -0.9551 -1.9150
 7863TIP3    H245005   3.764   3.221  13.084 -1.8185  1.0841  1.5719
 7864TIP3   OH245006   2.577   1.429   4.574  0.1839  0.2372  0.2157
 7864TIP3    H145007   2.545   1.518   4.590  0.4039  0.2605  0.5234
 7864TIP3    H245008   2.637   1.438   4.500 -0.8244  0.1305 -0.6506
 7865TIP3   OH245009   0.399   1.302   1.836 -0.2037 -0.4439 -0.0669
 7865TIP3    H145010   0.375   1.240   1.905  0.2803 -1.9319 -1.1677
 7865TIP3    H245011   0.366   1.386   1.867 -0.8137 -1.2195  1.5385
 7866TIP3   OH245012   0.232   2.089   3.043 -0.1953  0.0789 -0.0277
 7866TIP3    H145013   0.297   2.018   3.039 -0.2296 -0.2183  2.8816
 7866TIP3    H245014   0.284   2.168   3.057 -0.3740 -0.1412  2.1566
 7867TIP3   OH245015   2.649   1.886  12.297 -0.4377 -0.3619 -0.2086
 7867TIP3    H145016   2.605   1.969  12.280 -1.3182 -1.0396 -1.4153
 7867TIP3    H245017   2.577   1.823  12.308  0.1959 -1.3434 -1.4073
 7868TIP3   OH245018   4.849   0.009   5.398  0.1075  0.3397 -0.0544
 7868TIP3    H145019   4.883   0.097   5.382  0.7108 -0.0542 -0.9958
 7868TIP3    H245020   4.811   0.014   5.486 -1.3229  1.9702 -0.6954
 7869TIP3   OH245021   0.933   0.213   0.645 -0.0833 -0.4065 -0.1434
 7869TIP3    H145022   0.982   0.132   0.637  0.0256 -0.3085 -0.5069
 7869TIP3    H245023   0.980   0.264   0.710  0.5629 -0.1296 -0.8064
 7870TIP3   OH245024   5.555   0.096  16.847 -0.1688  0.3669  0.0098
 7870TIP3    H145025   5.467   0.062  16.834  0.3072 -1.3129  0.8141
 7870TIP3    H245026   5.605   0.061  16.772  0.0425  0.3968  0.1368
 7871TIP3   OH245027   0.279   6.178   0.102  0.5894  0.4773  0.1771
 7871TIP3    H145028   0.190   6.157   0.073  0.7975 -0.7537  0.3841
 7871TIP3    H245029   0.305   6.253   0.049 -0.5429  0.8036  0.0574
 7872TIP3   OH245030   0.341   3.930  15.899  0.0003 -0.2217 -0.1146
 7872TIP3    H145031   0.328   3.929  15.804 -1.3685 -1.8300  0.0290
 7872TIP3    H245032   0.342   3.837  15.923 -1.5860  0.1663  1.6565
 7873TIP3   OH245033   2.948   6.711   1.400 -0.0469 -0.0218  0.3515
 7873TIP3    H145034   2.886   6.721   1.329  0.1794 -0.2674  0.1202
 7873TIP3    H245035   2.900   6.662   1.467  0.0068 -0.5106  0.0369
 7874TIP3   OH245036   2.433   1.681   4.614 -0.1997 -0.2692 -0.0894
 7874TIP3    H145037   2.453   1.700   4.705  0.0450  0.4673 -0.2920
 7874TIP3    H245038   2.495   1.734   4.564 -0.2984 -0.7027 -0.6827
 7875TIP3   OH245039   1.856   1.556   4.913  0.3371 -0.1423  0.3130
 7875TIP3    H145040   1.834   1.521   4.826 -0.6315 -0.9421  0.8677
 7875TIP3    H245041   1.881   1.647   4.896  2.5978 -0.9395 -1.1397
 7876TIP3   OH245042   2.408   0.938   2.640  0.2634 -0.1449  0.1404
 7876TIP3    H145043   2.424   0.987   2.559 -0.2056 -0.9777 -0.4711
 7876TIP3    H245044   2.467   0.862   2.635  0.5237  0.0065  0.7778
 7877TIP3   OH245045   1.363   6.723   3.625 -0.6256  0.6350  0.4143
 7877TIP3    H145046   1.442   6.691   3.581 -2.2357 -0.9270 -1.5733
 7877TIP3    H245047   1.364   6.681   3.711 -0.1567 -0.8015 -0.2613
 7878TIP3   OH245048   4.987   6.151  10.694  0.5758  0.1159 -0.2440
 7878TIP3    H145049   5.050   6.169  10.625 -0.5110 -1.5556 -1.7653
 7878TIP3    H245050   4.913   6.209  10.676  0.6966  0.3910  0.1282
 7879TIP3   OH245051   3.535   3.415   6.007  0.0281  0.2698  0.4781
 7879TIP3    H145052   3.470   3.398   6.075 -1.3111  0.4964 -0.6828
 7879TIP3    H245053   3.483   3.439   5.930  1.1332 -4.0083 -1.9495
 7880TIP3   OH245054   0.321   1.563   5.118  0.1006 -0.1520  0.2394
 7880TIP3    H145055   0.312   1.518   5.033 -1.0851  0.8484 -0.1979
 7880TIP3    H245056   0.408   1.539   5.149  0.4029 -0.8546 -1.0825
 7881TIP3   OH245057   3.919   3.189  13.953  0.4997 -0.2860  0.1981
 7881TIP3    H145058   4.011   3.191  13.978  0.8897 -0.9765 -1.0486
 7881TIP3    H245059   3.910   3.260  13.889  0.3521 -0.7003 -0.2446
 7882TIP3   OH245060   2.562   5.776   0.818  0.5407  1.0570  0.6056
 7882TIP3    H145061   2.499   5.845   0.800  2.0052  2.3987  0.4567
 7882TIP3    H245062   2.613   5.768   0.738 -1.0520 -1.9111 -0.3029
 7883TIP3   OH245063   5.752   2.165   6.155 -0.1811 -0.1548 -1.0943
 7883TIP3    H145064   5.831   2.218   6.166  0.6754 -1.3288 -1.4569
 7883TIP3    H245065   5.730   2.137   6.244  1.3804 -2.0069 -1.2323
 7884TIP3   OH245066   4.289   1.815  14.310  0.1612 -0.1314  0.1710
 7884TIP3    H145067   4.374   1.824  14.266  0.6159 -3.1902  0.2177
 7884TIP3    H245068   4.231   1.781  14.243 -0.8731  1.1273  0.3808
 7885TIP3   OH245069   2.714   3.080  13.315  0.7645  0.4039  0.1520
 7885TIP3    H145070   2.738   3.173  13.303  0.7334  0.4101  0.1376
 7885TIP3    H245071   2.651   3.081  13.386  1.2257  0.3274  0.5684
 7886TIP3   OH245072   0.417   1.730  13.103 -0.6299 -0.0910  0.7284
 7886TIP3    H145073   0.411   1.796  13.034  0.6093  1.7730  2.3003
 7886TIP3    H245074   0.351   1.756  13.167  0.6375  0.3425  1.8985
 7887TIP3   OH245075   0.799   3.211   5.130  0.4724 -0.2436 -0.1160
 7887TIP3    H145076   0.769   3.259   5.053  1.4596  0.8627  0.1570
 7887TIP3    H245077   0.868   3.153   5.096 -0.2934 -1.0454 -0.3402
 7888TIP3   OH245078   2.431   6.622  16.183 -0.6825 -0.2103 -0.5804
 7888TIP3    H145079   2.336   6.624  16.187 -0.6948 -1.2305  0.2703
 7888TIP3    H245080   2.451   6.588  16.096 -1.0870  0.3734 -0.9009
 7889TIP3   OH245081   3.164   5.185  15.233  0.3019  0.5623 -0.0771
 7889TIP3    H145082   3.156   5.126  15.158 -2.0515  0.7193 -0.0513
 7889TIP3    H245083   3.182   5.127  15.307  0.2490  0.1232 -0.4023
 7890TIP3   OH245084   3.505   1.992  13.619 -0.1088 -0.3542 -0.2250
 7890TIP3    H145085   3.504   2.002  13.524  1.6603 -0.6771 -0.3054
 7890TIP3    H245086   3.491   2.081  13.652  0.2659 -0.0743 -0.7944
 7891TIP3   OH245087   5.797   2.624  16.243 -0.0918 -0.1148 -0.1720
 7891TIP3    H145088   5.888   2.611  16.217 -0.5603 -0.5659 -1.7144
 7891TIP3    H245089   5.748   2.621  16.160 -1.5361 -0.1522  0.6527
 7892TIP3   OH245090   1.287   5.950   0.480  0.5842 -0.5527 -0.1346
 7892TIP3    H145091   1.256   5.871   0.524  1.0279 -0.4498  0.3701
 7892TIP3    H245092   1.381   5.936   0.469  0.2743 -1.2579 -2.4760
 7893TIP3   OH245093   6.147   2.870  14.500  0.0140  0.0096 -0.5582
 7893TIP3    H145094   6.151   2.963  14.477  0.7440 -0.0694 -0.7971
 7893TIP3    H245095   6.181   2.866  14.590  0.4451 -0.0700 -0.7178
 7894TIP3   OH245096   2.762   2.005  14.040 -0.2216  0.1603  0.2704
 7894TIP3    H145097   2.821   1.947  13.993  0.0770  0.2871  0.4886
 7894TIP3    H245098   2.809   2.028  14.120 -0.2980  0.7880  0.1368
 7895TIP3   OH245099   2.440   6.183   0.560 -0.6317 -0.5078 -0.1101
 7895TIP3    H145100   2.449   6.222   0.646 -1.1097  0.3443 -0.4333
 7895TIP3    H245101   2.527   6.188   0.521 -0.2104 -1.6884  0.6351
 7896TIP3   OH245102   5.386   4.960   1.718 -0.3528 -0.3974 -0.4100
 7896TIP3    H145103   5.428   4.892   1.666  3.6140  0.2413  1.5788
 7896TIP3    H245104   5.366   4.918   1.801  0.8284  0.4849  0.3394
 7897TIP3   OH245105   1.413   4.766   2.035 -0.6011 -0.0917 -0.4338
 7897TIP3    H145106   1.321   4.742   2.029 -0.9559  0.9165  0.6616
 7897TIP3    H245107   1.415   4.859   2.015  0.4110 -0.4151 -2.0295
 7898TIP3   OH245108   1.651   1.960   5.288  0.3069 -0.2529  0.2183
 7898TIP3    H145109   1.715   1.916   5.343  1.0197 -1.0469 -1.1922
 7898TIP3    H245110   1.580   1.985   5.348  0.9121 -1.3445  1.4231
 7899TIP3   OH245111   1.387   0.210   0.451  0.7771 -0.0310  0.2510
 7899TIP3    H145112   1.457   0.182   0.509 -0.9830  1.0678  3.1432
 7899TIP3    H245113   1.406   0.303   0.434 -0.8393  0.8378  2.6683
 7900TIP3   OH245114   3.039   4.646  12.150 -0.4388 -0.3090 -0.0462
 7900TIP3    H145115   3.123   4.627  12.109 -0.5463  0.2443 -0.5367
 7900TIP3    H245116   3.038   4.591  12.229 -0.2256 -1.3636 -0.7632
 7901TIP3   OH245117   3.302   2.041   3.413 -0.7992  0.0184 -0.1451
 7901TIP3    H145118   3.343   2.114   3.365 -0.5720 -0.8014 -1.2363
 7901TIP3    H245119   3.219   2.077   3.444  0.1393  1.3225  1.0100
 7902TIP3   OH245120   0.976   3.580  12.180 -0.4507  0.6149  0.0995
 7902TIP3    H145121   0.922   3.508  12.213 -1.5285  0.7706 -1.2330
 7902TIP3    H245122   0.970   3.647  12.248 -0.4321 -0.0774  0.7954
 7903TIP3   OH245123   3.868   4.088   1.236 -0.4203 -0.1987 -0.2661
 7903TIP3    H145124   3.889   4.166   1.185 -1.1796 -0.9270 -1.7567
 7903TIP3    H245125   3.784   4.107   1.277 -1.8350 -1.0743 -2.5922
 7904TIP3   OH245126   3.936   4.026  15.706  0.8061 -0.0711 -0.4192
 7904TIP3    H145127   3.987   4.101  15.676  2.4464 -0.2309  1.7810
 7904TIP3    H245128   3.886   4.059  15.780  0.4808 -0.8222 -0.2992
 7905TIP3   OH245129   4.287   4.679   2.053  0.8797  0.0260  0.1853
 7905TIP3    H145130   4.273   4.592   2.093  0.3532 -1.0295 -2.1365
 7905TIP3    H245131   4.254   4.740   2.119  1.8541 -1.4518  2.1835
 7906TIP3   OH245132   6.400   2.879  16.343 -0.0846 -0.7003  0.1038
 7906TIP3    H145133   6.324   2.854  16.395 -0.9090 -2.0044 -1.6127
 7906TIP3    H245134   6.458   2.803  16.347  0.8436  0.0340  0.8671
 7907TIP3   OH245135   2.482   6.637   1.442  0.2534 -0.4193  0.3384
 7907TIP3    H145136   2.506   6.586   1.364 -1.3046  0.0737 -0.5160
 7907TIP3    H245137   2.547   6.707   1.447 -0.4690  0.4430 -1.4516
 7908TIP3   OH245138   0.111   2.175  15.878 -0.4162 -0.0108 -0.2800
 7908TIP3    H145139   0.165   2.097  15.890  0.1566  0.2671 -0.9204
 7908TIP3    H245140   0.125   2.227  15.957  1.8384  0.9549 -1.2032
 7909TIP3   OH245141   1.378   3.969  14.492  0.4073 -0.5033 -0.1711
 7909TIP3    H145142   1.425   3.887  14.508  0.7643 -0.1382  0.6904
 7909TIP3    H245143   1.442   4.025  14.448 -0.1175 -0.9874 -1.6077
 7910TIP3   OH245144   2.947   5.223   0.047  0.0622  0.1977 -0.3436
 7910TIP3    H145145   2.862   5.179   0.042  0.2373 -0.2626  0.5604
 7910TIP3    H245146   2.976   5.210   0.137  1.0701  0.3942 -0.6235
 7911TIP3   OH245147   4.537   0.994   3.273 -0.2374 -0.4430  0.0970
 7911TIP3    H145148   4.590   0.930   3.224  0.5160 -0.5251  0.9875
 7911TIP3    H245149   4.600   1.040   3.328 -1.0975 -0.5851  1.2381
 7912TIP3   OH245150   0.529   2.817   2.522  0.3481 -0.0376  0.6908
 7912TIP3    H145151   0.578   2.841   2.443 -0.7745 -0.0758 -0.0297
 7912TIP3    H245152   0.556   2.882   2.587  0.1453  0.9374 -0.1698
 7913TIP3   OH245153   6.317   2.917   3.591 -0.0679  0.4700 -0.1127
 7913TIP3    H145154   6.330   2.822   3.581 -0.2340  0.2364  1.6123
 7913TIP3    H245155   6.248   2.924   3.657 -1.8205  1.7916 -1.9562
 7914TIP3   OH245156   2.016   5.708   6.376  0.3663 -0.2793  0.1609
 7914TIP3    H145157   2.106   5.735   6.356  0.1317  1.5882  1.3486
 7914TIP3    H245158   2.025   5.642   6.445  0.8407 -0.5381 -0.1438
 7915TIP3   OH245159   6.131   6.527  13.731  0.3330  0.1548 -0.0152
 7915TIP3    H145160   6.160   6.436  13.736  1.1888  0.3152 -1.4355
 7915TIP3    H245161   6.181   6.572  13.799 -0.1338 -0.4374  0.7296
 7916TIP3   OH245162   4.886   5.216   2.638  0.1154  0.2626  0.3360
 7916TIP3    H145163   4.958   5.192   2.697  0.2919 -0.2597 -0.0810
 7916TIP3    H245164   4.926   5.268   2.570  0.0665  0.1300  0.2047
 7917TIP3   OH245165   4.105   1.070   1.745  0.0814 -0.4395 -0.7670
 7917TIP3    H145166   4.070   1.152   1.780 -0.2888 -0.4131 -1.1907
 7917TIP3    H245167   4.081   1.004   1.809 -0.1676 -0.3144 -0.7327
 7918TIP3   OH245168   5.027   0.320  13.172 -0.8387  0.3386  0.2267
 7918TIP3    H145169   5.015   0.371  13.093 -0.1103  1.8337  1.0447
 7918TIP3    H245170   5.076   0.243  13.143  1.4788  1.9642 -0.4589
 7919TIP3   OH245171   2.337   3.971  11.318 -0.5346 -0.3122  0.3228
 7919TIP3    H145172   2.416   4.014  11.284 -0.7601  0.6210  0.9585
 7919TIP3    H245173   2.318   3.902  11.254  1.3377 -1.1979  0.6491
 7920TIP3   OH245174   4.561   2.786   5.541  0.1457  0.2647 -0.1522
 7920TIP3    H145175   4.470   2.761   5.558  0.0356  0.7213 -0.0605
 7920TIP3    H245176   4.564   2.880   5.557  0.7419  0.1782  0.3052
 7921TIP3   OH245177   2.050   2.888   3.223  0.3906 -0.0575  0.0003
 7921TIP3    H145178   2.108   2.912   3.294  1.3975  0.5340 -0.9880
 7921TIP3    H245179   2.108   2.853   3.155 -0.7173 -2.4450  0.1664
 7922TIP3   OH245180   6.709   5.322   4.897  0.5957 -0.1794  0.6036
 7922TIP3    H145181   6.632   5.376   4.881  0.7361  0.5883  2.3529
 7922TIP3    H245182   6.726   5.280   4.812 -1.3089  0.1657 -0.0006
 7923TIP3   OH245183   2.476   2.848  11.100  0.2147 -0.1681 -0.2283
 7923TIP3    H145184   2.445   2.938  11.087 -2.6734 -0.9261  0.7256
 7923TIP3    H245185   2.444   2.801  11.024 -0.3415 -0.8565  0.4261
 7924TIP3   OH245186   6.004   0.240   6.137 -0.5896  0.9281  0.8018
 7924TIP3    H145187   6.095   0.219   6.114 -0.7611  0.9703  0.0596
 7924TIP3    H245188   5.982   0.179   6.207  0.6710  2.2308  2.4463
 7925TIP3   OH245189   4.617   6.545   3.081 -0.6204 -0.4770 -0.2720
 7925TIP3    H145190   4.638   6.517   2.992  1.2575 -2.1680  0.6173
 7925TIP3    H245191   4.596   6.638   3.073 -0.6011 -0.6175 -2.4744
 7926TIP3   OH245192   4.400   5.477   5.274  0.5487  0.3532 -0.2590
 7926TIP3    H145193   4.353   5.501   5.194  1.7064  1.6945 -0.5886
 7926TIP3    H245194   4.437   5.560   5.305  1.1524 -0.3584  0.9849
 7927TIP3   OH245195   1.661   5.655  13.971  0.5305  0.2495 -0.3130
 7927TIP3    H145196   1.749   5.664  14.008  0.4516 -0.7117  0.1440
 7927TIP3    H245197   1.673   5.603  13.892  0.4257  0.5054 -0.4987
 7928TIP3   OH245198   5.354   2.460   4.602 -0.4012 -0.1179 -0.3939
 7928TIP3    H145199   5.349   2.392   4.535 -0.3304  0.6077 -1.1562
 7928TIP3    H245200   5.351   2.542   4.553  0.1241  0.4290  0.4584
 7929TIP3   OH245201   1.108   0.248   2.408 -0.3233 -0.1528 -0.0034
 7929TIP3    H145202   1.086   0.320   2.466 -0.7018  0.3750 -0.7860
 7929TIP3    H245203   1.101   0.285   2.320 -0.4688 -1.1245 -0.4150
 7930TIP3   OH245204   3.864   0.811  15.557  0.3912 -0.1629  0.2400
 7930TIP3    H145205   3.898   0.778  15.640 -0.7502 -0.7953  0.4804
 7930TIP3    H245206   3.784   0.760  15.542 -0.7924  1.6839  0.0058
 7931TIP3   OH245207   4.527   3.878  15.049 -0.2369  0.4207 -0.2821
 7931TIP3    H145208   4.500   3.968  15.033  0.4031  0.4749 -1.1155
 7931TIP3    H245209   4.591   3.859  14.981 -0.2286 -0.6108 -0.0116
 7932TIP3   OH245210   6.611   5.819  11.525 -0.2304 -0.3372  0.8870
 7932TIP3    H145211   6.667   5.896  11.520 -0.5471 -0.1855 -1.2306
 7932TIP3    H245212   6.667   5.752  11.564  1.4072 -0.1087 -0.8987
 7933TIP3   OH245213   5.651   1.097   3.030  0.1090  0.2919 -0.1160
 7933TIP3    H145214   5.586   1.032   3.056 -0.6106  1.1128  0.2164
 7933TIP3    H245215   5.711   1.102   3.104 -0.7729  1.1522  0.5904
 7934TIP3   OH245216   2.165   1.148  10.560  0.0189 -0.1058 -0.1473
 7934TIP3    H145217   2.147   1.054  10.563 -0.7555 -0.0170 -1.1718
 7934TIP3    H245218   2.172   1.175  10.651 -1.4987 -0.8574  0.2233
 7935TIP3   OH245219   6.760   0.287   3.326  0.3559  0.0117  0.0486
 7935TIP3    H145220   6.849   0.322   3.330 -0.2574  1.6538  3.7051
 7935TIP3    H245221   6.770   0.194   3.348  1.2061 -0.0765 -0.6326
 7936TIP3   OH245222   5.741   4.268  14.714 -0.7281 -0.2779 -0.1382
 7936TIP3    H145223   5.699   4.182  14.708 -3.3114  0.8908 -0.0131
 7936TIP3    H245224   5.773   4.273  14.804 -1.4188 -0.7672  0.1468
 7937TIP3   OH245225   2.926   2.977  16.415  0.0663 -0.0375 -0.2948
 7937TIP3    H145226   2.953   3.064  16.386  0.2839 -0.2545 -0.7475
 7937TIP3    H245227   2.904   2.989  16.508 -1.4098  0.8357 -0.7240
 7938TIP3   OH245228   2.435   3.745  12.549  0.2844  0.7225  0.9051
 7938TIP3    H145229   2.447   3.737  12.454 -0.2260  2.2395  0.6747
 7938TIP3    H245230   2.346   3.779  12.559 -0.3196 -1.0757  2.0512
 7939TIP3   OH245231   0.848   3.534  14.892  0.3838 -0.0164  0.4187
 7939TIP3    H145232   0.788   3.470  14.930  1.4219 -1.1663  0.2106
 7939TIP3    H245233   0.878   3.586  14.967 -0.9449  0.6635  0.4996
 7940TIP3   OH245234   0.250   5.668  10.782  0.2523  0.0943 -0.1153
 7940TIP3    H145235   0.155   5.666  10.775  0.3470  0.2296 -3.9077
 7940TIP3    H245236   0.273   5.760  10.767  0.9579 -0.5275 -3.8811
 7941TIP3   OH245237   5.831   1.221  16.038  0.6407 -0.1302 -0.2997
 7941TIP3    H145238   5.807   1.284  15.970  0.2933 -1.3890 -1.3829
 7941TIP3    H245239   5.912   1.255  16.076 -0.1784  1.5914 -0.0034
 7942TIP3   OH245240   3.742   3.469  12.276  0.7046  0.8737  0.9583
 7942TIP3    H145241   3.761   3.413  12.201 -1.1964  0.3032  0.8538
 7942TIP3    H245242   3.825   3.474  12.324  1.0620 -1.6313  0.7021
 7943TIP3   OH245243   2.131   4.024   5.763  0.2524 -0.5224  0.1446
 7943TIP3    H145244   2.077   4.073   5.825  1.5780  0.0963  0.8525
 7943TIP3    H245245   2.219   4.060   5.775  0.3164  0.8555 -3.2910
 7944TIP3   OH245246   3.307   5.661   5.089 -0.4043 -0.0950  0.1481
 7944TIP3    H145247   3.232   5.658   5.149 -0.3278  0.1594  0.2599
 7944TIP3    H245248   3.330   5.570   5.073 -1.0557 -0.1916 -0.2782
 7945TIP3   OH245249   4.522   3.696   2.657  0.0197 -0.3816 -0.5295
 7945TIP3    H145250   4.467   3.622   2.685 -2.2350  0.8889 -1.2790
 7945TIP3    H245251   4.489   3.771   2.706  1.7372  0.2915 -0.3522
 7946TIP3   OH245252   1.904   0.169  12.564  0.0883  0.1616  0.0843
 7946TIP3    H145253   1.839   0.138  12.502  0.8329 -0.9223 -0.1739
 7946TIP3    H245254   1.894   0.113  12.640 -0.7786  1.4455  0.9548
 7947TIP3   OH245255   5.087   2.541   5.143  0.4575 -0.1876 -0.3947
 7947TIP3    H145256   5.016   2.527   5.080 -0.9439  1.3178  0.7739
 7947TIP3    H245257   5.125   2.625   5.118  0.6997 -0.1640  0.0510
 7948TIP3   OH245258   0.311   3.823  15.007 -0.0973 -0.4264  0.0155
 7948TIP3    H145259   0.225   3.824  15.049 -0.2101 -0.9158 -0.1895
 7948TIP3    H245260   0.310   3.743  14.954  0.2147 -0.0618 -0.5454
 7949TIP3   OH245261   1.538   0.221  16.773 -0.0102 -0.0305  0.0389
 7949TIP3    H145262   1.537   0.179  16.687 -1.6753 -1.6861  0.8025
 7949TIP3    H245263   1.480   0.297  16.763 -0.0075 -0.0773 -0.3557
 7950TIP3   OH245264   1.680   5.003  11.320  0.0177  0.1193 -0.3594
 7950TIP3    H145265   1.689   4.915  11.356 -0.0204  0.3173  0.1404
 7950TIP3    H245266   1.586   5.021  11.325  0.0730  0.3431 -0.0831
 7951TIP3   OH245267   2.343   1.753  15.276  0.1762  0.1776 -0.6629
 7951TIP3    H145268   2.295   1.674  15.298  1.6987 -1.0296 -1.4883
 7951TIP3    H245269   2.344   1.804  15.358 -1.0798 -0.4779 -0.2109
 7952TIP3   OH245270   5.811   4.643  12.455  0.3069  0.1765 -0.3906
 7952TIP3    H145271   5.752   4.650  12.380 -2.7996  1.9588  1.9823
 7952TIP3    H245272   5.753   4.628  12.530  3.0333  0.4666  1.9570
 7953TIP3   OH245273   0.181   4.828   1.334  0.0729  0.4179  0.1826
 7953TIP3    H145274   0.224   4.756   1.289 -1.1147  0.2347 -0.7061
 7953TIP3    H245275   0.139   4.787   1.410 -0.1327  0.2556 -0.0156
 7954TIP3   OH245276   0.767   2.138  15.777 -0.0119 -0.1896 -0.3928
 7954TIP3    H145277   0.827   2.102  15.842 -1.8645 -2.7343  0.0791
 7954TIP3    H245278   0.809   2.120  15.693 -0.4429 -2.9007 -0.1283
 7955TIP3   OH245279   1.669   6.656   0.932  0.5572  0.2915 -0.4573
 7955TIP3    H145280   1.593   6.704   0.963  0.2438  0.0685 -0.8633
 7955TIP3    H245281   1.648   6.634   0.841  0.3952 -1.1669 -0.1030
 7956TIP3   OH245282   2.110   1.761   5.834  0.1694  0.1972 -0.2798
 7956TIP3    H145283   2.198   1.759   5.796 -0.1670  0.4237 -1.1030
 7956TIP3    H245284   2.089   1.854   5.839 -0.5114  0.1164 -1.2929
 7957TIP3   OH245285   6.387   5.811   4.121 -0.5479 -0.7035 -0.1069
 7957TIP3    H145286   6.292   5.820   4.108 -0.5138 -0.4535 -0.1800
 7957TIP3    H245287   6.410   5.734   4.068 -0.7738 -1.0116  0.2330
 7958TIP3   OH245288   0.198   6.424   1.731 -0.3520 -0.0959 -0.7228
 7958TIP3    H145289   0.168   6.514   1.734 -1.1639 -0.3734 -0.0154
 7958TIP3    H245290   0.164   6.385   1.812  1.1673 -0.6694 -0.3287
 7959TIP3   OH245291   4.358   1.100   5.821  0.3424  0.3576 -0.3563
 7959TIP3    H145292   4.288   1.139   5.874 -0.1694 -0.7976 -0.1500
 7959TIP3    H245293   4.429   1.165   5.823 -0.1804  0.9249  0.6085
 7960TIP3   OH245294   3.611   6.554  15.885  0.0048 -0.5194 -0.8357
 7960TIP3    H145295   3.707   6.548  15.889  0.0000 -0.1957  2.0293
 7960TIP3    H245296   3.593   6.648  15.891 -0.4883 -0.5844 -1.3017
 7961TIP3   OH245297   6.641   1.621  11.399  0.2432 -0.0247  0.0295
 7961TIP3    H145298   6.685   1.684  11.456 -0.4972  1.0449 -0.5559
 7961TIP3    H245299   6.561   1.597  11.447  0.0128  0.2706 -0.2058
 7962TIP3   OH245300   4.716   4.778   4.907 -0.2272 -0.5960  0.1170
 7962TIP3    H145301   4.783   4.783   4.975  0.9937 -2.2640 -0.8754
 7962TIP3    H245302   4.651   4.717   4.941 -2.7709  2.9392  2.2021
 7963TIP3   OH245303   6.435   2.806   0.131 -0.3700  0.0873  0.2870
 7963TIP3    H145304   6.363   2.867   0.147 -0.4617  0.1168 -0.2430
 7963TIP3    H245305   6.395   2.719   0.143 -0.8049  0.0580 -1.2023
 7964TIP3   OH245306   3.356   6.264   3.611 -0.2163 -0.2452  0.2167
 7964TIP3    H145307   3.284   6.327   3.605  0.0515 -0.0163 -0.8702
 7964TIP3    H245308   3.369   6.251   3.705 -2.3158 -1.0392  0.4579
 7965TIP3   OH245309   6.408   2.826   1.096 -0.2588  0.5457  0.4499
 7965TIP3    H145310   6.457   2.744   1.095  0.0185  0.7133 -0.7540
 7965TIP3    H245311   6.457   2.884   1.038 -0.8879  1.3087  0.6677
 7966TIP3   OH245312   4.450   2.700  13.681 -0.2421 -0.4515 -0.0975
 7966TIP3    H145313   4.411   2.691  13.594  1.3481  0.9161 -1.0198
 7966TIP3    H245314   4.544   2.707  13.665 -0.0218  1.6750  1.5301
 7967TIP3   OH245315   6.228   4.430   3.505  0.1972  0.1417  0.0177
 7967TIP3    H145316   6.133   4.433   3.492 -0.2900 -0.2338  2.7538
 7967TIP3    H245317   6.243   4.493   3.576  2.0091  0.1426 -0.3372
 7968TIP3   OH245318   4.406   5.024  11.565 -0.2822 -0.4548 -0.9595
 7968TIP3    H145319   4.313   5.037  11.585 -0.2374  0.5671 -1.3773
 7968TIP3    H245320   4.452   5.077  11.630 -0.0573  0.6058 -1.9562
 7969TIP3   OH245321   5.475   6.454   1.920 -0.4019  0.4845  0.2499
 7969TIP3    H145322   5.464   6.486   2.010  1.6421  0.5218  0.5287
 7969TIP3    H245323   5.508   6.529   1.871 -1.5047  0.4637 -0.5628
 7970TIP3   OH245324   0.610   4.774  16.419  0.0293  0.0995 -0.3404
 7970TIP3    H145325   0.548   4.788  16.491  0.3114  0.1434 -0.1040
 7970TIP3    H245326   0.655   4.693  16.443 -0.2279 -0.1615 -0.7228
 7971TIP3   OH245327   5.373   6.013   4.753  0.1491  0.0823 -0.3421
 7971TIP3    H145328   5.342   6.103   4.753 -1.3474 -0.4129 -0.4654
 7971TIP3    H245329   5.331   5.972   4.677 -0.4791 -1.1343  0.6159
 7972TIP3   OH245330   6.748   5.587   3.406  0.2648  0.1380  0.2165
 7972TIP3    H145331   6.789   5.501   3.412  1.0926  0.2953 -2.2481
 7972TIP3    H245332   6.688   5.580   3.331 -0.4358  1.4146  0.6218
 7973TIP3   OH245333   0.669   6.475  11.563 -0.0228 -0.0965 -0.7154
 7973TIP3    H145334   0.666   6.553  11.618 -0.7091 -1.7821  1.8473
 7973TIP3    H245335   0.588   6.479  11.511 -1.1462 -0.0790  0.9488
 7974TIP3   OH245336   1.695   2.787   4.712 -0.1092  0.4145 -0.1471
 7974TIP3    H145337   1.692   2.734   4.633 -0.3653 -0.9969  0.7569
 7974TIP3    H245338   1.656   2.871   4.687 -0.2123 -0.0123 -1.4872
 7975TIP3   OH245339   3.925   2.289   0.294  0.0039 -0.0922 -0.4060
 7975TIP3    H145340   3.830   2.284   0.306 -0.0017 -0.5150 -0.5779
 7975TIP3    H245341   3.939   2.252   0.207  0.4243 -1.0796  0.0677
 7976TIP3   OH245342   4.929   0.373   3.876  0.3322  0.0060  0.0344
 7976TIP3    H145343   5.004   0.391   3.820 -0.1336  0.0709 -0.5818
 7976TIP3    H245344   4.873   0.450   3.867 -0.4768 -0.6385 -0.6402
 7977TIP3   OH245345   0.984   0.730   3.981 -0.6639  0.3750  0.4395
 7977TIP3    H145346   0.934   0.670   4.036  0.7437 -0.5446  0.7663
 7977TIP3    H245347   0.918   0.785   3.939 -2.1404 -2.1879 -0.8239
 7978TIP3   OH245348   0.830   4.244  13.519  0.4891  0.2091 -0.0967
 7978TIP3    H145349   0.803   4.334  13.502  0.5581  0.3518  0.5081
 7978TIP3    H245350   0.753   4.191  13.501 -0.0181  0.5476  1.0114
 7979TIP3   OH245351   3.681   2.674  13.734  0.5167 -0.7196  0.2449
 7979TIP3    H145352   3.620   2.703  13.802 -0.9150 -1.6903 -0.5610
 7979TIP3    H245353   3.761   2.723  13.751 -0.5207  0.7179  1.2729
 7980TIP3   OH245354   2.057   5.832  11.896  0.0503 -0.5508  0.4689
 7980TIP3    H145355   2.085   5.900  11.835  1.2714  1.0951  2.7018
 7980TIP3    H245356   1.990   5.783  11.849 -0.0314  1.4542 -1.6680
 7981TIP3   OH245357   4.461   3.068  13.722  0.1218  0.5943  0.0812
 7981TIP3    H145358   4.488   3.098  13.809 -0.0395 -1.6708  0.9691
 7981TIP3    H245359   4.399   2.997  13.739 -0.1061  0.2723 -1.8931
 7982TIP3   OH245360   2.555   5.256  10.536  0.3463 -0.5600 -0.3947
 7982TIP3    H145361   2.464   5.227  10.549  0.3325 -0.2201  0.2851
 7982TIP3    H245362   2.556   5.346  10.567  1.4930 -1.3319  2.1003
 7983TIP3   OH245363   1.863   5.450  14.165  0.8494  0.4457 -0.4071
 7983TIP3    H145364   1.913   5.381  14.208  0.9609  0.2632 -0.8296
 7983TIP3    H245365   1.771   5.425  14.177  0.8404  0.9166  0.5968
 7984TIP3   OH245366   5.407   2.125  11.043  0.0418 -0.5462 -0.3524
 7984TIP3    H145367   5.358   2.156  10.966 -1.8319 -1.9524  0.1692
 7984TIP3    H245368   5.413   2.201  11.100 -2.7550 -0.5591  0.1022
 7985TIP3   OH245369   1.393   5.468   5.215 -0.1529 -0.1935 -0.4436
 7985TIP3    H145370   1.397   5.414   5.294 -1.9001  1.7839  1.0987
 7985TIP3    H245371   1.479   5.458   5.174  0.5562 -1.8199  1.3097
 7986TIP3   OH245372   2.519   6.055  11.035  0.0222 -0.7926 -0.5800
 7986TIP3    H145373   2.514   6.043  10.940  0.6622  0.0699 -0.7303
 7986TIP3    H245374   2.585   5.992  11.064 -1.5607 -2.4791 -0.4079
 7987TIP3   OH245375   4.567   3.983   2.016 -0.2002  0.1814  0.1831
 7987TIP3    H145376   4.545   4.053   2.077  1.2577  0.3778  0.5171
 7987TIP3    H245377   4.659   4.000   1.993 -0.6456 -0.0048 -1.8979
 7988TIP3   OH245378   5.343   1.874  15.705 -0.5863 -0.0451 -0.3416
 7988TIP3    H145379   5.301   1.810  15.647  0.1080 -0.2053 -0.6907
 7988TIP3    H245380   5.414   1.824  15.746 -1.3231 -0.0417  0.9718
 7989TIP3   OH245381   0.674   6.069  16.562 -0.3869 -0.4848 -1.0299
 7989TIP3    H145382   0.597   6.017  16.540 -0.2848  0.0737 -2.8820
 7989TIP3    H245383   0.745   6.032  16.509  0.0856  0.4381 -1.0700
 7990TIP3   OH245384   5.282   0.875   4.098  0.8437 -0.3836 -0.2174
 7990TIP3    H145385   5.240   0.798   4.062  0.4251 -1.0830  1.6773
 7990TIP3    H245386   5.255   0.946   4.040 -0.8153 -1.2445 -0.5585
 7991TIP3   OH245387   5.399   0.790  12.205  0.0137  0.5225  0.2249
 7991TIP3    H145388   5.472   0.845  12.235  0.3959 -0.1463  0.5459
 7991TIP3    H245389   5.435   0.739  12.133 -0.2965  0.5756  0.0292
 7992TIP3   OH245390   6.754   4.184  14.288  0.1811  0.3203 -0.1464
 7992TIP3    H145391   6.708   4.191  14.204  0.0502  0.8165 -0.0337
 7992TIP3    H245392   6.721   4.102  14.326  1.4414 -0.7859 -1.2980
 7993TIP3   OH245393   1.259   5.098   0.441 -0.0034  0.4017 -0.0200
 7993TIP3    H145394   1.223   5.023   0.488  0.5648  0.0818 -0.0799
 7993TIP3    H245395   1.352   5.099   0.465 -0.0528  1.2460  0.1889
 7994TIP3   OH245396   0.577   2.782   1.290 -0.3664 -0.0222  0.1581
 7994TIP3    H145397   0.614   2.694   1.281 -0.1241 -0.2542  2.7089
 7994TIP3    H245398   0.618   2.832   1.220  0.2567 -1.6992 -0.7338
 7995TIP3   OH245399   4.231   0.154  16.342  0.0484 -0.1975 -0.4353
 7995TIP3    H145400   4.202   0.124  16.256 -1.8083  1.5391 -0.4988
 7995TIP3    H245401   4.304   0.213  16.324 -1.6996  1.8975 -1.1307
 7996TIP3   OH245402   3.299   0.118  15.932 -0.7672  0.3444 -0.2738
 7996TIP3    H145403   3.206   0.136  15.915 -1.0525 -0.3914  0.4872
 7996TIP3    H245404   3.299   0.061  16.008  0.2672 -0.4325 -0.8315
 7997TIP3   OH245405   4.407   2.406  16.744 -0.0134  0.5116  0.5276
 7997TIP3    H145406   4.429   2.408  16.837  0.4112 -0.4076  0.4544
 7997TIP3    H245407   4.487   2.438  16.701 -0.3711  1.3870  0.4959
 7998TIP3   OH245408   6.283   0.245  11.197 -0.4124  0.2232  0.0038
 7998TIP3    H145409   6.355   0.203  11.245 -0.3089  0.4323  0.0341
 7998TIP3    H245410   6.212   0.252  11.261 -0.3762  0.2378  0.0423
 7999TIP3   OH245411   4.769   4.826   2.122 -0.2351 -0.3222  0.0644
 7999TIP3    H145412   4.735   4.810   2.210 -0.2041 -0.9924 -0.0403
 7999TIP3    H245413   4.701   4.877   2.078 -0.0655  0.3892  0.6082
 8000TIP3   OH245414   5.303   4.282  15.207  0.2183 -0.1705  0.3804
 8000TIP3    H145415   5.372   4.217  15.202  0.8659  0.3345  2.1477
 8000TIP3    H245416   5.222   4.231  15.205  0.6912 -0.9642  0.8457
 8001TIP3   OH245417   2.903   2.649  14.728 -0.0080 -0.7069 -0.8637
 8001TIP3    H145418   2.867   2.562  14.713 -0.4771 -0.7938  0.5978
 8001TIP3    H245419   2.987   2.649  14.682  1.7313 -3.2029  1.9677
 8002TIP3   OH245420   3.896   0.790   1.351 -0.2913  0.3837 -0.3836
 8002TIP3    H145421   3.973   0.827   1.308 -0.4459 -0.6299 -1.5828
 8002TIP3    H245422   3.918   0.698   1.363 -1.0074  0.2597  0.0143
 8003TIP3   OH245423   6.074   2.153  12.043 -0.3150  0.4257  0.5296
 8003TIP3    H145424   6.136   2.085  12.016 -0.6837 -0.3809  1.6413
 8003TIP3    H245425   6.019   2.111  12.108 -0.8735  1.6642  0.8931
 8004TIP3   OH245426   4.989   6.412   5.826 -0.1670 -0.0761 -0.2243
 8004TIP3    H145427   4.914   6.375   5.872  2.2044 -0.3104  3.9899
 8004TIP3    H245428   5.037   6.336   5.793 -1.5159  0.0631 -2.7002
 8005TIP3   OH245429   2.354   6.729   2.108 -0.0351 -0.6298  0.4492
 8005TIP3    H145430   2.421   6.672   2.070  0.8344  0.4614  0.2807
 8005TIP3    H245431   2.299   6.754   2.035 -0.3034 -1.0825  0.4903
 8006TIP3   OH245432   1.649   6.498  15.900 -0.0499  0.8489  0.0349
 8006TIP3    H145433   1.624   6.440  15.828  1.5865  1.4754 -1.1005
 8006TIP3    H245434   1.582   6.566  15.901 -0.7016  0.2257 -0.1377
 8007TIP3   OH245435   1.428   0.053   0.693  0.3869 -0.3025 -0.5794
 8007TIP3    H145436   1.383   0.009   0.766 -0.6388  0.4304 -0.7563
 8007TIP3    H245437   1.365   0.050   0.621 -0.1864  2.4400 -0.2777
 8008TIP3   OH245438   3.786   1.098   0.309  0.6740 -0.5159 -0.0952
 8008TIP3    H145439   3.735   1.177   0.290  0.7880 -0.8521 -2.0376
 8008TIP3    H245440   3.724   1.026   0.299  0.8477 -0.7503  0.4834
 8009TIP3   OH245441   3.461   0.773  10.506 -0.0583  0.2016  0.5597
 8009TIP3    H145442   3.365   0.771  10.501 -0.0754 -0.2055  0.9796
 8009TIP3    H245443   3.480   0.840  10.572 -0.0674  0.0208  0.7473
 8010TIP3   OH245444   0.701   2.319   2.765 -0.3094 -0.0840 -0.0538
 8010TIP3    H145445   0.643   2.393   2.786  0.7431  1.0880 -1.1110
 8010TIP3    H245446   0.690   2.306   2.671  1.0259  0.0790 -0.2492
 8011TIP3   OH245447   4.746   5.860  15.469  0.1852 -0.8493 -0.1252
 8011TIP3    H145448   4.774   5.770  15.453  0.0607 -1.1023  1.0027
 8011TIP3    H245449   4.683   5.878  15.400  1.8508 -0.8334 -1.7406
 8012TIP3   OH245450   5.070   1.283  15.132 -0.0720  0.4635 -0.1501
 8012TIP3    H145451   5.120   1.263  15.053 -0.4991 -0.4579 -0.1940
 8012TIP3    H245452   5.116   1.237  15.203 -1.7349 -1.8030 -0.4347
 8013TIP3   OH245453   5.165   4.127   2.111  0.0102 -0.3951 -0.1586
 8013TIP3    H145454   5.153   4.142   2.017  0.5222  0.0553 -0.1493
 8013TIP3    H245455   5.179   4.214   2.148 -1.4071 -0.4206  0.5228
 8014TIP3   OH245456   2.019   1.388  14.284 -0.6472  0.3776  0.1532
 8014TIP3    H145457   2.111   1.370  14.267 -1.0305 -0.5339 -1.0899
 8014TIP3    H245458   1.975   1.304  14.271 -1.2043 -0.2617  4.6957
 8015TIP3   OH245459   6.125   3.606  15.198  0.7519 -0.2731 -0.5621
 8015TIP3    H145460   6.047   3.578  15.246  0.6959  1.1794  0.2511
 8015TIP3    H245461   6.101   3.596  15.106 -0.8723  1.3138 -0.3626
 8016TIP3   OH245462   6.299   5.130  13.499  0.0119  0.0881  0.0341
 8016TIP3    H145463   6.216   5.171  13.523  0.5742  0.2789  1.7514
 8016TIP3    H245464   6.327   5.177  13.420 -2.0248 -0.7404 -1.2555
 8017TIP3   OH245465   6.493   5.634   5.454  0.6668 -0.5983  0.2485
 8017TIP3    H145466   6.536   5.720   5.461  0.2588 -0.2032 -1.5526
 8017TIP3    H245467   6.492   5.616   5.360  0.1452 -2.2890  0.5542
 8018TIP3   OH245468   4.517   5.285   0.403  0.4444 -0.2574 -0.0639
 8018TIP3    H145469   4.452   5.258   0.338  1.0327 -1.3228 -0.2324
 8018TIP3    H245470   4.476   5.269   0.487  0.5453 -1.1145 -0.1684
 8019TIP3   OH245471   5.381   6.409  17.132  0.3111  0.6409  0.0657
 8019TIP3    H145472   5.364   6.336  17.073 -2.7777  0.6528  0.7645
 8019TIP3    H245473   5.381   6.370  17.219 -0.2584  1.3179  0.3774
 8020TIP3   OH245474   0.957   2.747   1.843 -0.0698  0.2035 -0.1451
 8020TIP3    H145475   0.891   2.788   1.786  1.0474  0.5840 -1.2229
 8020TIP3    H245476   0.909   2.679   1.890 -1.3851  0.9421 -0.3392
 8021TIP3   OH245477   3.708   6.456   3.465 -0.3958  0.5470 -0.8557
 8021TIP3    H145478   3.620   6.477   3.433 -0.9420 -0.1086  0.1829
 8021TIP3    H245479   3.701   6.463   3.560 -0.1796 -2.6519 -0.5230
 8022TIP3   OH245480   4.717   5.258   3.197 -0.2396  0.2165  0.3046
 8022TIP3    H145481   4.662   5.335   3.185  0.5415  0.7202 -0.1354
 8022TIP3    H245482   4.774   5.281   3.270  0.3557  0.2836 -0.1682
 8023TIP3   OH245483   5.398   0.428   1.849 -0.5953 -0.2650 -0.4193
 8023TIP3    H145484   5.455   0.391   1.781 -0.2518  0.3958 -0.4950
 8023TIP3    H245485   5.442   0.508   1.876 -1.2578  0.0084 -0.1435
 8024TIP3   OH245486   4.827   5.018  11.376  0.5434 -0.3336 -0.7031
 8024TIP3    H145487   4.789   4.978  11.454  0.1358 -0.3649 -0.9141
 8024TIP3    H245488   4.824   4.950  11.310  0.9290 -0.3206 -0.7367
 8025TIP3   OH245489   6.791   5.658  14.300 -0.1240  0.4498  0.3934
 8025TIP3    H145490   6.772   5.752  14.291  2.4276  0.9119 -1.0619
 8025TIP3    H245491   6.726   5.615  14.245 -1.9520  1.2186  1.8282
 8026TIP3   OH245492   5.182   4.897  12.817 -0.5269 -0.2412  0.7302
 8026TIP3    H145493   5.135   4.964  12.768  2.2220  1.9198  0.7898
 8026TIP3    H245494   5.166   4.917  12.909 -0.9953 -0.6734  0.7440
 8027TIP3   OH245495   6.250   2.984  15.020  0.4717  0.5482  0.2950
 8027TIP3    H145496   6.182   3.048  15.043  0.9275  0.7074  1.2469
 8027TIP3    H245497   6.293   2.964  15.103  0.9995 -0.2381 -0.1542
 8028TIP3   OH245498   6.219   1.286  14.058 -0.2007  0.5404  0.3355
 8028TIP3    H145499   6.212   1.195  14.087 -0.4341  0.1547 -0.8494
 8028TIP3    H245500   6.189   1.284  13.967  1.3796  1.5073 -0.2486
 8029TIP3   OH245501   5.693   4.337  16.793  0.1335 -0.2700  0.2724
 8029TIP3    H145502   5.616   4.384  16.764  0.5074  0.4152  0.3688
 8029TIP3    H245503   5.692   4.255  16.742  1.0783  1.1124 -2.1329
 8030TIP3   OH245504   0.765   5.525  11.309 -0.2711 -0.0247  0.5259
 8030TIP3    H145505   0.694   5.462  11.325 -0.1665 -0.1735  0.4058
 8030TIP3    H245506   0.834   5.473  11.268 -0.5450  0.3639 -0.4446
 8031TIP3   OH245507   2.311   4.018   0.135 -0.3139  0.2511  0.4423
 8031TIP3    H145508   2.258   4.029   0.056  0.9736  1.0877 -0.3450
 8031TIP3    H245509   2.269   4.074   0.200 -0.9745  0.1043  0.1496
 8032TIP3   OH245510   1.680   5.987   5.564 -0.0083 -0.0491 -0.2920
 8032TIP3    H145511   1.677   6.050   5.492  2.7793  0.5947  0.0681
 8032TIP3    H245512   1.679   6.041   5.643 -1.7712 -0.7014  0.1881
 8033TIP3   OH245513   5.868   3.606   3.058 -0.5955  0.2704 -0.3749
 8033TIP3    H145514   5.927   3.531   3.064 -1.4497 -0.3148  1.6920
 8033TIP3    H245515   5.780   3.568   3.064 -1.0335  1.4381  1.9756
 8034TIP3   OH245516   6.013   0.081   5.387  0.6336 -0.1342  0.5786
 8034TIP3    H145517   5.947   0.118   5.329 -0.0540  0.5656  1.7676
 8034TIP3    H245518   6.053   0.157   5.429  0.0753 -0.6498  2.1202
 8035TIP3   OH245519   2.270   4.679   2.363  0.0975  0.3036 -0.4208
 8035TIP3    H145520   2.331   4.609   2.385  0.2427  0.1658 -1.2346
 8035TIP3    H245521   2.292   4.704   2.274 -2.2405 -1.0364 -1.4620
 8036TIP3   OH245522   5.517   0.799  12.852 -0.1129  0.2263 -0.4016
 8036TIP3    H145523   5.519   0.888  12.888  0.6497 -0.1756  0.6232
 8036TIP3    H245524   5.427   0.771  12.862 -0.6995  1.3663 -2.0363
 8037TIP3   OH245525   5.336   4.358  12.777 -0.0798 -0.7083 -0.0492
 8037TIP3    H145526   5.326   4.453  12.791 -0.2271 -0.9626  1.8048
 8037TIP3    H245527   5.347   4.349  12.682  2.3231  1.3731 -0.0794
 8038TIP3   OH245528   1.448   3.475  15.991  0.0742 -0.8916  0.9305
 8038TIP3    H145529   1.462   3.449  15.899 -1.1728  1.5738 -0.0403
 8038TIP3    H245530   1.357   3.505  15.994  0.6795  0.9436  2.4795
 8039TIP3   OH245531   5.983   1.671  14.291 -0.4962  0.1928  0.0960
 8039TIP3    H145532   6.021   1.748  14.333 -0.4763  0.8239 -1.0329
 8039TIP3    H245533   6.043   1.651  14.219  0.1286 -1.6012  1.0421
 8040TIP3   OH245534   1.201   2.729   0.895 -0.3605  0.2040  0.5745
 8040TIP3    H145535   1.201   2.772   0.810  0.7080 -0.6219  0.1319
 8040TIP3    H245536   1.237   2.795   0.955  1.4976 -0.0915 -0.1391
 8041TIP3   OH245537   5.938   4.433  13.552  0.0594 -0.7068 -0.1964
 8041TIP3    H145538   5.923   4.493  13.479  1.9723 -1.2100 -1.0581
 8041TIP3    H245539   5.885   4.469  13.624 -0.5460  0.7549 -1.3170
 8042TIP3   OH245540   0.904   5.030  16.068 -0.2410  0.1963 -0.5815
 8042TIP3    H145541   0.811   5.044  16.081 -0.0515  0.8500  0.1411
 8042TIP3    H245542   0.936   5.114  16.033  0.2065  0.2483 -0.0581
 8043TIP3   OH245543   1.519   3.730   3.042 -0.2539  0.2028 -0.6310
 8043TIP3    H145544   1.592   3.673   3.065 -0.4019 -0.0954 -0.8850
 8043TIP3    H245545   1.472   3.742   3.125  0.5323  1.0654 -0.2994
 8044TIP3   OH245546   2.742   1.599   3.130 -0.1160  0.3172  0.1072
 8044TIP3    H145547   2.761   1.606   3.037 -2.4552  0.8730 -0.3900
 8044TIP3    H245548   2.740   1.690   3.161 -0.3852  0.1927  0.4662
 8045TIP3   OH245549   4.067   2.111   5.090  0.2755 -0.2547  0.0565
 8045TIP3    H145550   3.979   2.098   5.125 -0.5084  1.1026 -1.3104
 8045TIP3    H245551   4.107   2.174   5.149  0.7739 -1.7148  1.3346
 8046TIP3   OH245552   6.272   2.905  14.745  0.1504  0.0491  0.1926
 8046TIP3    H145553   6.255   2.889  14.838  0.7428 -2.5402 -0.0683
 8046TIP3    H245554   6.329   2.982  14.744 -0.3943  0.5214  1.9074
 8047TIP3   OH245555   1.626   5.442   5.546  0.6277 -0.2139 -0.0358
 8047TIP3    H145556   1.564   5.394   5.491  0.6908  0.4684 -0.7222
 8047TIP3    H245557   1.572   5.503   5.596  0.4961 -1.3178  1.1943
 8048TIP3   OH245558   5.229   5.908  12.407 -0.1599 -0.3086  0.0389
 8048TIP3    H145559   5.169   5.858  12.463  1.5687 -0.9742  1.3924
 8048TIP3    H245560   5.304   5.849  12.394  1.6833  1.6514  1.1589
 8049TIP3   OH245561   3.391   1.852  15.437  0.4339  0.2544  0.5305
 8049TIP3    H145562   3.391   1.870  15.344  0.0161  2.7833  0.9552
 8049TIP3    H245563   3.418   1.760  15.444  0.1264 -0.0913 -2.0556
 8050TIP3   OH245564   2.550   1.181   4.781 -0.0208  0.4173 -0.3641
 8050TIP3    H145565   2.611   1.217   4.845  1.1656 -2.0822  0.0338
 8050TIP3    H245566   2.478   1.244   4.777  1.4718  2.2953  0.8950
 8051TIP3   OH245567   0.970   5.230  15.287  0.0141 -0.2086 -0.0111
 8051TIP3    H145568   1.020   5.248  15.366  1.3566  0.4702 -0.9574
 8051TIP3    H245569   0.935   5.316  15.261 -0.8164 -0.5084  0.1063
 8052TIP3   OH245570   3.917   6.451   1.160 -0.0375  0.3916  0.5163
 8052TIP3    H145571   3.987   6.515   1.173  0.6098 -0.2568  0.2727
 8052TIP3    H245572   3.843   6.486   1.211  0.1668  1.5355  0.0592
 8053TIP3   OH245573   2.943   5.307   4.069 -0.0217  0.0892  0.4432
 8053TIP3    H145574   2.954   5.250   4.145 -1.5005  0.2981  0.8330
 8053TIP3    H245575   2.898   5.384   4.103 -0.2117  0.4270 -0.5505
 8054TIP3   OH245576   5.835   0.409  12.808  0.4675  0.4582 -0.0009
 8054TIP3    H145577   5.861   0.400  12.900  1.2942  0.1573 -0.2510
 8054TIP3    H245578   5.917   0.401  12.760 -0.2198 -1.9386 -0.9315
 8055TIP3   OH245579   0.265   2.149   0.690  0.1284  0.4032 -0.0364
 8055TIP3    H145580   0.192   2.208   0.669  0.6194  1.2897  0.7151
 8055TIP3    H245581   0.227   2.084   0.749 -0.6627 -0.6744 -1.6380
 8056TIP3   OH245582   5.023   2.091   5.722 -0.0495  0.2247  0.4584
 8056TIP3    H145583   5.076   2.032   5.777 -0.7598 -0.3853  0.4940
 8056TIP3    H245584   4.948   2.038   5.696  0.3738  0.4477 -1.2790
 8057TIP3   OH245585   5.774   5.606   2.135 -0.2453 -0.1436  0.1762
 8057TIP3    H145586   5.747   5.536   2.194 -0.5005 -1.2927 -1.2355
 8057TIP3    H245587   5.696   5.626   2.084  0.0897  0.4631 -0.1041
 8058TIP3   OH245588   4.628   1.127   4.670  0.2680 -0.2390 -0.5171
 8058TIP3    H145589   4.702   1.067   4.681 -1.1535 -2.0152 -0.1212
 8058TIP3    H245590   4.582   1.124   4.754 -0.3781  0.6628 -0.8262
 8059TIP3   OH245591   3.656   4.738   5.208  0.4033  0.3141  0.3403
 8059TIP3    H145592   3.687   4.659   5.163  0.0163 -1.0492  2.2992
 8059TIP3    H245593   3.562   4.740   5.190  0.2207 -0.3181  1.1537
 8060TIP3   OH245594   2.517   2.107   5.356 -0.3791  0.3417  0.3939
 8060TIP3    H145595   2.542   2.085   5.267 -0.3757  0.4103  0.3778
 8060TIP3    H245596   2.596   2.094   5.408 -0.0706  1.3747  0.2044
 8061TIP3   OH245597   0.664   5.043   3.837  0.3922 -0.1821  0.4648
 8061TIP3    H145598   0.717   4.971   3.803 -0.0650 -0.9011  1.2414
 8061TIP3    H245599   0.650   5.100   3.761 -0.4200 -1.6270 -0.5471
 8062TIP3   OH245600   3.625   0.706  15.947 -0.1067  0.5562  0.4227
 8062TIP3    H145601   3.536   0.677  15.928 -0.0573 -0.4719  1.6492
 8062TIP3    H245602   3.624   0.727  16.040  0.9557  0.4403  0.4754
 8063TIP3   OH245603   4.389   2.273  11.421  0.1345 -0.1103  0.3924
 8063TIP3    H145604   4.406   2.179  11.424 -1.2613 -0.4265 -0.7367
 8063TIP3    H245605   4.470   2.311  11.388  0.9225 -0.8363  1.4424
 8064TIP3   OH245606   0.166   0.063  11.874 -0.1364  0.1380  0.1097
 8064TIP3    H145607   0.234   0.002  11.843  0.4142  0.1544  1.2523
 8064TIP3    H245608   0.084   0.015  11.861  0.0371  0.2479 -1.6090
 8065TIP3   OH245609   5.844   6.254  15.981  0.1809  0.1534 -0.1694
 8065TIP3    H145610   5.755   6.219  15.977  1.2585 -3.0208  0.7174
 8065TIP3    H245611   5.859   6.274  16.073 -0.3536  3.1188 -0.6326
 8066TIP3   OH245612   3.347   5.866  11.848  0.0730  0.4244  0.4814
 8066TIP3    H145613   3.429   5.913  11.831  1.5239 -1.5741  1.4937
 8066TIP3    H245614   3.330   5.817  11.768 -0.0106  0.6969  0.3346
 8067TIP3   OH245615   0.754   5.392   4.161 -0.1707  0.0121 -0.0595
 8067TIP3    H145616   0.690   5.360   4.224 -0.3254 -2.3905 -1.3020
 8067TIP3    H245617   0.838   5.381   4.205 -0.3768 -0.0424  0.3275
 8068TIP3   OH245618   5.163   3.733   2.568 -0.4901 -0.4144 -0.1997
 8068TIP3    H145619   5.194   3.785   2.642 -1.1875 -0.1207 -0.1013
 8068TIP3    H245620   5.228   3.747   2.499 -0.3247  0.0685  0.0500
 8069TIP3   OH245621   4.696   0.945   2.547  0.3963  0.0115  0.9076
 8069TIP3    H145622   4.610   0.919   2.578  0.7400 -0.7301  1.2726
 8069TIP3    H245623   4.733   0.996   2.619  0.8118 -0.8868  1.3517
 8070TIP3   OH245624   6.625   6.371  12.443  0.2594 -0.0098  0.2236
 8070TIP3    H145625   6.567   6.331  12.508 -0.3898  1.0153  0.3035
 8070TIP3    H245626   6.646   6.457  12.479  0.2268  0.4101 -0.7284
 8071TIP3   OH245627   1.908   0.114   3.283  0.5266 -0.2418 -0.3943
 8071TIP3    H145628   1.909   0.146   3.373  1.0240 -1.3597  0.0101
 8071TIP3    H245629   1.928   0.191   3.230  2.3117  0.0150  0.5823
 8072TIP3   OH245630   5.624   5.932   5.801 -0.2699 -0.6761 -0.3041
 8072TIP3    H145631   5.711   5.905   5.829  0.0139  0.1908 -0.3224
 8072TIP3    H245632   5.573   5.938   5.882  0.0350  0.0164 -0.1568
 8073TIP3   OH245633   0.736   0.546   2.232  0.0627 -0.5322 -0.1102
 8073TIP3    H145634   0.787   0.627   2.226  1.0392 -1.1844 -0.9447
 8073TIP3    H245635   0.734   0.512   2.142  0.4123 -1.8727  0.3615
 8074TIP3   OH245636   2.715   0.337   5.825 -0.2299 -0.4128 -0.2959
 8074TIP3    H145637   2.677   0.303   5.906 -0.6180 -0.1941 -0.3869
 8074TIP3    H245638   2.708   0.432   5.833 -1.8718 -0.4042 -1.3453
 8075TIP3   OH245639   3.091   1.688   1.736  0.6475  0.2281  0.0238
 8075TIP3    H145640   3.150   1.762   1.748  0.9746  0.1048 -0.7565
 8075TIP3    H245641   3.010   1.715   1.778  1.0645  0.6376  0.5912
 8076TIP3   OH245642   5.469   1.588  11.986  0.3351  0.0270 -0.0567
 8076TIP3    H145643   5.439   1.542  11.908 -0.7756 -0.6160  0.7121
 8076TIP3    H245644   5.547   1.636  11.958  1.2385 -1.9034 -1.0122
 8077TIP3   OH245645   1.488   5.545  15.268  0.0954 -0.0509  0.0787
 8077TIP3    H145646   1.452   5.575  15.352  3.4052 -1.8233  2.3241
 8077TIP3    H245647   1.444   5.461  15.252 -0.0196 -0.0638  0.4516
 8078TIP3   OH245648   3.941   0.637  11.518  0.2648  0.2686 -0.2554
 8078TIP3    H145649   3.877   0.702  11.545 -0.3233  0.5587 -2.2111
 8078TIP3    H245650   4.023   0.686  11.512  0.5960  0.0177  1.7014
 8079TIP3   OH245651   4.732   1.818   0.189  0.1585 -0.5524 -0.0307
 8079TIP3    H145652   4.786   1.875   0.135  1.6359 -1.0870  0.8135
 8079TIP3    H245653   4.681   1.767   0.126  1.0752 -0.4408 -0.8922
 8080TIP3   OH245654   3.934   0.929   2.511 -0.0108 -0.7052 -0.1831
 8080TIP3    H145655   3.875   0.978   2.568  1.3730  0.3385  0.4105
 8080TIP3    H245656   3.930   0.975   2.427  0.6325 -0.0773  0.1228
 8081TIP3   OH245657   6.307   0.758  16.598  0.3708  0.1897  0.4188
 8081TIP3    H145658   6.337   0.696  16.531  1.7517  0.3548  0.8472
 8081TIP3    H245659   6.238   0.711  16.644 -1.3287  0.4405 -1.7274
 8082TIP3   OH245660   1.899   0.755   2.402 -0.3270  0.2294  0.0379
 8082TIP3    H145661   1.966   0.694   2.371  1.2162  2.0412 -0.4021
 8082TIP3    H245662   1.833   0.756   2.333 -0.6946 -1.3471  0.3275
 8083TIP3   OH245663   5.099   1.848  13.817 -0.5835  0.1674 -0.4897
 8083TIP3    H145664   5.022   1.793  13.803 -0.6370  0.2619 -0.5685
 8083TIP3    H245665   5.171   1.786  13.827 -0.7629  0.0566  0.1833
 8084TIP3   OH245666   6.613   4.857   0.509 -0.2475  0.3953 -0.2372
 8084TIP3    H145667   6.564   4.921   0.457  1.0920  0.9593 -0.8447
 8084TIP3    H245668   6.690   4.837   0.456  0.3161 -0.2710  0.8092
 8085TIP3   OH245669   2.069   4.662  14.377 -0.2023  0.6724  0.2751
 8085TIP3    H145670   2.054   4.596  14.310  0.3814 -1.6653  2.3186
 8085TIP3    H245671   1.997   4.725  14.366 -1.3592 -0.8151 -1.0985
 8086TIP3   OH245672   5.153   1.693   2.591 -0.2367  0.1483 -0.3667
 8086TIP3    H145673   5.154   1.778   2.548  1.2254 -1.0826 -3.0362
 8086TIP3    H245674   5.245   1.667   2.595 -0.6145 -1.1404  0.7579
 8087TIP3   OH245675   1.686   6.485  10.889  0.4454 -0.1160  0.0231
 8087TIP3    H145676   1.645   6.399  10.875  1.6464 -0.6337 -0.4626
 8087TIP3    H245677   1.614   6.547  10.883 -0.3420 -1.0322 -0.3195
 8088TIP3   OH245678   6.145   2.206  10.466 -0.4810 -0.1580  0.2312
 8088TIP3    H145679   6.101   2.150  10.402  1.5911 -1.7707  0.1360
 8088TIP3    H245680   6.195   2.146  10.521  1.9530  1.5492  0.0511
 8089TIP3   OH245681   5.660   4.694  13.166  0.2443  0.1136  0.5063
 8089TIP3    H145682   5.698   4.771  13.123 -0.3233 -0.5799 -1.3268
 8089TIP3    H245683   5.589   4.667  13.107  2.1068 -3.4342 -0.3814
 8090TIP3   OH245684   3.765   6.123  15.557 -0.1980 -0.2881  0.1328
 8090TIP3    H145685   3.829   6.108  15.625  1.5008  1.3802 -1.0025
 8090TIP3    H245686   3.705   6.188  15.593 -0.3635 -0.7276  0.6525
 8091TIP3   OH245687   2.970   1.776   4.536  0.0320 -0.1663 -0.1756
 8091TIP3    H145688   2.938   1.712   4.473 -0.4490 -0.1249  0.0288
 8091TIP3    H245689   2.898   1.839   4.545 -0.1930 -0.5720  0.9799
 8092TIP3   OH245690   6.633   4.422  11.531  0.1830 -0.0292  0.3904
 8092TIP3    H145691   6.584   4.491  11.486 -2.7044 -1.5453  0.9074
 8092TIP3    H245692   6.672   4.371  11.460 -1.7698 -0.6261 -0.3179
 8093TIP3   OH245693   3.880   6.264  11.360 -0.2000  0.1648  0.1465
 8093TIP3    H145694   3.853   6.188  11.310  0.8240 -0.0641 -0.0876
 8093TIP3    H245695   3.877   6.235  11.451 -0.0928 -0.0663  0.0768
 8094TIP3   OH245696   0.477   5.567  16.363 -0.0891 -0.0519  0.2657
 8094TIP3    H145697   0.512   5.499  16.305 -1.9584 -1.5343  0.7572
 8094TIP3    H245698   0.524   5.555  16.445  0.7325  0.3424 -0.1347
 8095TIP3   OH245699   4.218   5.840   5.008  0.2418  0.0271  0.0738
 8095TIP3    H145700   4.231   5.874   5.097 -3.2898  1.4794  0.2045
 8095TIP3    H245701   4.296   5.868   4.960  1.6788  0.2548  2.4244
 8096TIP3   OH245702   6.349   6.035  14.183 -0.2832 -0.0563 -0.1736
 8096TIP3    H145703   6.304   6.025  14.267  1.1146  1.2034  0.7714
 8096TIP3    H245704   6.332   6.126  14.157  1.7020  0.4642  0.2377
 8097TIP3   OH245705   2.178   2.408   3.316  0.4725  0.5368 -0.2392
 8097TIP3    H145706   2.193   2.316   3.339  2.4054  0.7930 -0.2916
 8097TIP3    H245707   2.140   2.447   3.394  1.5687  0.1241  0.5166
 8098TIP3   OH245708   2.881   4.757   0.167 -0.1420 -0.2596  0.8403
 8098TIP3    H145709   2.847   4.838   0.204 -1.1831 -0.6060  0.6717
 8098TIP3    H245710   2.943   4.785   0.100 -1.7167  0.4410 -0.3754
 8099TIP3   OH245711   1.927   2.193  11.769  0.3653  0.1135 -0.4223
 8099TIP3    H145712   1.987   2.244  11.715  0.5296  0.1806 -0.1817
 8099TIP3    H245713   1.850   2.180  11.715 -0.6192  2.5126  0.2519
 8100TIP3   OH245714   4.044   1.394   2.409  0.2536 -0.0620 -0.0950
 8100TIP3    H145715   3.953   1.425   2.413  0.5401  0.8285 -0.2053
 8100TIP3    H245716   4.058   1.372   2.317  0.2617  0.1600 -0.1477
 8101TIP3   OH245717   4.202   3.369  10.859  0.3246  0.3884  0.3563
 8101TIP3    H145718   4.218   3.295  10.801  0.4542 -0.0486  0.9363
 8101TIP3    H245719   4.169   3.330  10.940  0.8606  0.9194  0.8459
 8102TIP3   OH245720   6.161   4.167   5.512  0.2093  0.2121 -0.0693
 8102TIP3    H145721   6.137   4.230   5.445  2.4223 -1.2923 -2.4540
 8102TIP3    H245722   6.139   4.082   5.474  0.7603 -0.6636  1.4610
 8103TIP3   OH245723   1.646   1.008  15.564  0.6421  0.2270  0.7858
 8103TIP3    H145724   1.619   0.978  15.651 -2.9052  1.2288  0.1940
 8103TIP3    H245725   1.623   1.101  15.563  0.8072  0.2877 -1.1173
 8104TIP3   OH245726   0.247   5.139  15.021  0.2891  0.8235 -0.3627
 8104TIP3    H145727   0.321   5.193  15.049  1.0904 -0.2779 -0.2849
 8104TIP3    H245728   0.227   5.083  15.096  0.2002  0.2389 -0.8132
 8105TIP3   OH245729   4.919   3.972   3.240 -0.4367  0.3128 -0.0946
 8105TIP3    H145730   4.848   3.960   3.177 -0.9825 -0.1776  0.6059
 8105TIP3    H245731   4.911   3.898   3.299  0.0791  0.7672  0.5506
 8106TIP3   OH245732   5.804   0.236  16.063 -0.1789 -0.0521 -0.0929
 8106TIP3    H145733   5.875   0.298  16.083  2.1416 -2.1076 -1.4408
 8106TIP3    H245734   5.762   0.220  16.148  0.3827  1.8637  0.6020
 8107TIP3   OH245735   0.598   3.101  16.269  0.2258 -0.3414  0.2536
 8107TIP3    H145736   0.614   3.011  16.298 -0.5808  0.0745  2.1626
 8107TIP3    H245737   0.519   3.128  16.317  0.5728  1.4412 -0.1032
 8108TIP3   OH245738   3.902   0.870  15.262  0.3508 -0.0106 -0.0236
 8108TIP3    H145739   3.964   0.836  15.326 -0.1221 -0.1029  0.3989
 8108TIP3    H245740   3.935   0.841  15.177  0.1071 -1.2830  0.3046
 8109TIP3   OH245741   1.668   4.954   5.016  0.1623  0.0222 -0.0496
 8109TIP3    H145742   1.712   4.872   4.996  1.0064  0.5731 -0.5478
 8109TIP3    H245743   1.577   4.940   4.990 -0.0638 -1.2548  1.3341
 8110TIP3   OH245744   3.729   3.053   4.570 -0.6591 -0.0379  0.2308
 8110TIP3    H145745   3.762   2.968   4.598  0.2111  0.5516  1.0409
 8110TIP3    H245746   3.772   3.069   4.485  1.2293  0.7225  1.2741
 8111TIP3   OH245747   0.345   6.642   2.730 -0.2833 -0.8734 -0.0074
 8111TIP3    H145748   0.360   6.733   2.701 -0.9688  0.5909  3.7088
 8111TIP3    H245749   0.265   6.616   2.685  0.0384  0.2665 -1.3054
 8112TIP3   OH245750   1.111   6.399   3.855 -0.2841 -0.5269  0.2629
 8112TIP3    H145751   1.072   6.459   3.917 -0.8927 -0.9159  0.2592
 8112TIP3    H245752   1.206   6.406   3.870 -0.4709 -1.8306  2.3800
 8113TIP3   OH245753   3.745   1.659  13.200 -0.5090  0.3157  0.2155
 8113TIP3    H145754   3.762   1.566  13.190 -0.7838  0.1801  0.9647
 8113TIP3    H245755   3.831   1.698  13.217 -0.5475  0.0188  1.1584
 8114TIP3   OH245756   3.659   2.881   2.735 -0.0004 -0.1859  0.0931
 8114TIP3    H145757   3.708   2.800   2.724  0.6513  0.1167  0.6993
 8114TIP3    H245758   3.615   2.894   2.651 -2.6388 -2.7660  0.8933
 8115TIP3   OH245759   3.668   6.446   1.314  0.2069  0.4678  0.0588
 8115TIP3    H145760   3.606   6.520   1.308 -0.3762 -0.1143 -1.5693
 8115TIP3    H245761   3.652   6.395   1.235  1.9993 -0.3408  0.1800
 8116TIP3   OH245762   5.042   1.346  16.283 -0.2341  0.1327 -0.5754
 8116TIP3    H145763   5.097   1.268  16.282 -1.0185 -0.5756  2.2602
 8116TIP3    H245764   4.962   1.320  16.236  0.6866  0.2764 -2.2862
 8117TIP3   OH245765   1.457   4.426  13.227 -0.2975 -0.4035  0.3655
 8117TIP3    H145766   1.495   4.459  13.146 -1.4866 -1.2105 -0.5601
 8117TIP3    H245767   1.422   4.504  13.270  3.6021  0.6646  2.0645
 8118TIP3   OH245768   5.821   5.054  11.361  0.2452  0.4064  0.4379
 8118TIP3    H145769   5.763   5.095  11.296  0.9246 -0.6912 -0.9165
 8118TIP3    H245770   5.908   5.089  11.339  0.0706  3.0044  3.2061
 8119TIP3   OH245771   2.371   0.322  13.610 -0.3839 -0.1928  0.1629
 8119TIP3    H145772   2.340   0.374  13.536 -0.0408  1.2238  0.9813
 8119TIP3    H245773   2.435   0.378  13.654  1.8420 -2.2117 -0.2762
 8120TIP3   OH245774   4.713   1.305  16.707  0.4605 -0.4209  1.0674
 8120TIP3    H145775   4.622   1.330  16.719  0.1033 -0.3347 -1.3500
 8120TIP3    H245776   4.710   1.211  16.689  0.5331 -0.0066 -1.3885
 8121TIP3   OH245777   3.538   4.987   6.614 -0.0550 -0.2436 -0.6144
 8121TIP3    H145778   3.530   4.938   6.532  1.1637 -0.2096 -0.7741
 8121TIP3    H245779   3.619   4.954   6.653  0.7187  1.5362 -0.6600
 8122TIP3   OH245780   3.829   2.160  12.320 -0.3541  0.3204 -0.0091
 8122TIP3    H145781   3.870   2.172  12.234 -1.1527  2.1386 -0.1736
 8122TIP3    H245782   3.834   2.246  12.362  0.8762 -0.7310  2.2010
 8123TIP3   OH245783   6.580   1.767   0.863  0.3212  0.1433 -0.7559
 8123TIP3    H145784   6.649   1.767   0.797  0.0516 -1.0068 -1.0681
 8123TIP3    H245785   6.615   1.714   0.934  0.2690  0.6571 -0.3434
 8124TIP3   OH245786   4.841   1.971   1.140 -0.1727  0.8155 -0.4116
 8124TIP3    H145787   4.901   2.040   1.172  0.7263  0.1556 -0.6321
 8124TIP3    H245788   4.835   1.986   1.046  0.7165  0.0928 -0.6004
 8125TIP3   OH245789   3.999   4.026   0.305 -0.3330  0.6683 -0.3359
 8125TIP3    H145790   3.982   4.003   0.214 -1.6788 -1.5800  0.4091
 8125TIP3    H245791   4.057   3.957   0.337 -1.8000  0.0513  1.1203
 8126TIP3   OH245792   4.702   3.326  16.951  0.7782 -0.0112 -0.2956
 8126TIP3    H145793   4.688   3.234  16.928  2.2141 -0.0652 -1.0543
 8126TIP3    H245794   4.615   3.357  16.977 -0.0122 -1.2187 -1.3426
 8127TIP3   OH245795   2.713   6.724  14.445 -0.6385  0.4902 -0.4167
 8127TIP3    H145796   2.693   6.811  14.479  0.1196 -0.0507  1.5556
 8127TIP3    H245797   2.688   6.664  14.516  0.1500 -0.7912 -1.1756
 8128TIP3   OH245798   4.848   1.703   4.585  0.0623  0.3979 -0.7294
 8128TIP3    H145799   4.835   1.608   4.590  0.5641  0.3279 -0.7151
 8128TIP3    H245800   4.897   1.724   4.664 -0.6371  0.7751 -0.3869
 8129TIP3   OH245801   2.476   3.451  14.002  0.0597  0.1772 -0.2740
 8129TIP3    H145802   2.423   3.530  14.011  0.8293  0.6178  0.6145
 8129TIP3    H245803   2.519   3.460  13.917  1.6712  1.7299  0.6203
 8130TIP3   OH245804   6.659   0.335  13.717  0.1857 -0.4141  0.7491
 8130TIP3    H145805   6.640   0.308  13.627  0.1419  1.0576  0.2774
 8130TIP3    H245806   6.589   0.297  13.769 -1.0556  0.4887 -0.1891
 8131TIP3   OH245807   5.631   1.651   0.081 -0.0093 -0.2526  0.2704
 8131TIP3    H145808   5.709   1.648   0.025 -1.0919  0.5555 -1.3747
 8131TIP3    H245809   5.567   1.702   0.031 -0.5585  1.9197  2.9210
 8132TIP3   OH245810   6.034   5.912   6.487 -0.6992  0.1996 -0.4716
 8132TIP3    H145811   5.941   5.902   6.506 -0.7552  0.1567 -0.7699
 8132TIP3    H245812   6.052   6.004   6.506 -0.3465 -0.2393  1.5486
 8133TIP3   OH245813   0.850   6.415   6.461 -0.4714 -0.8000 -0.0238
 8133TIP3    H145814   0.873   6.331   6.421  0.4717 -0.1552 -0.8877
 8133TIP3    H245815   0.913   6.425   6.532 -1.6327 -1.5690  1.1471
 8134TIP3   OH245816   4.493   5.908   2.371 -0.2689  0.1403 -0.2544
 8134TIP3    H145817   4.494   5.828   2.423 -1.1522 -0.7446 -1.5129
 8134TIP3    H245818   4.400   5.927   2.359 -0.0843  1.9113  0.7881
 8135TIP3   OH245819   5.694   5.327   2.716 -0.1438  0.5989 -0.5633
 8135TIP3    H145820   5.784   5.342   2.687 -0.2096  0.9463 -0.6034
 8135TIP3    H245821   5.697   5.342   2.811  0.0639 -0.4979 -0.3825
 8136TIP3   OH245822   1.811   2.248   3.461 -0.2905  0.2114  0.6760
 8136TIP3    H145823   1.808   2.183   3.391 -2.7637  0.0095  0.8919
 8136TIP3    H245824   1.875   2.214   3.523  1.2274 -0.0870 -0.9770
 8137TIP3   OH245825   3.810   2.012   6.126 -0.3915 -0.0868  0.0002
 8137TIP3    H145826   3.741   2.074   6.151 -0.6174 -0.5401  0.5121
 8137TIP3    H245827   3.810   2.014   6.030 -1.5004 -0.4929 -0.0184
 8138TIP3   OH245828   0.889   4.180  16.296  0.1038  0.4952 -0.2109
 8138TIP3    H145829   0.951   4.171  16.368  0.6610  2.0225 -0.4675
 8138TIP3    H245830   0.891   4.095  16.252  0.1336 -0.2913  1.2447
 8139TIP3   OH245831   3.995   3.557   3.326 -0.2581  0.1984 -0.0979
 8139TIP3    H145832   4.026   3.497   3.258  0.6605  0.9372 -0.3446
 8139TIP3    H245833   3.985   3.641   3.281 -1.9523  0.1685  0.1387
 8140TIP3   OH245834   6.348   1.290  13.436 -0.4838 -0.3004  0.1783
 8140TIP3    H145835   6.425   1.233  13.439  0.6311  1.1866  0.3762
 8140TIP3    H245836   6.279   1.233  13.401  1.4952 -0.8035 -3.4353
 8141TIP3   OH245837   0.651   3.126  14.100  0.4713 -0.2263 -0.4612
 8141TIP3    H145838   0.698   3.161  14.024 -0.4602  0.0828 -0.9076
 8141TIP3    H245839   0.630   3.036  14.076 -0.6149  0.1475 -0.9546
 8142TIP3   OH245840   3.413   3.909   1.430  0.6511 -0.8203  0.5076
 8142TIP3    H145841   3.334   3.959   1.414  1.1244  0.4694  1.9273
 8142TIP3    H245842   3.428   3.860   1.349 -0.4512  0.4919 -0.5331
 8143TIP3   OH245843   6.098   1.126  13.105 -0.6129 -0.3283 -0.1050
 8143TIP3    H145844   6.083   1.198  13.044  2.0233 -0.0258 -0.5464
 8143TIP3    H245845   6.038   1.142  13.178 -2.9670 -0.0115 -2.0232
 8144TIP3   OH245846   6.240   0.343   1.816 -0.1145 -0.1950 -0.2675
 8144TIP3    H145847   6.180   0.413   1.788  0.1510  1.6335  3.1422
 8144TIP3    H245848   6.190   0.263   1.802 -3.1706  1.1762  1.5447
 8145TIP3   OH245849   3.438   5.966  14.681 -0.0404 -0.0026  0.3320
 8145TIP3    H145850   3.353   6.005  14.660  0.5799  0.2592 -1.9102
 8145TIP3    H245851   3.456   5.994  14.771 -1.5056  1.4207  0.2273
 8146TIP3   OH245852   6.618   0.999  16.222 -0.7877 -0.0247 -0.0642
 8146TIP3    H145853   6.541   0.955  16.187 -0.4188 -0.9855  0.3054
 8146TIP3    H245854   6.619   0.977  16.315  0.6246 -1.1022 -0.3039
 8147TIP3   OH245855   2.267   3.616  13.446 -0.8212 -0.3222 -0.1544
 8147TIP3    H145856   2.190   3.560  13.461 -0.2215 -1.0791  0.1567
 8147TIP3    H245857   2.273   3.621  13.350 -1.2769 -0.2340 -0.1812
 8148TIP3   OH245858   3.394   4.191   5.130  0.2299 -0.2189 -0.2756
 8148TIP3    H145859   3.364   4.196   5.221 -0.5838 -2.5515 -0.3439
 8148TIP3    H245860   3.339   4.255   5.084  0.3600  0.6880  0.7768
 8149TIP3   OH245861   1.650   3.787   4.023  0.8540 -0.0624  0.9529
 8149TIP3    H145862   1.723   3.772   3.964 -0.1559 -2.6241  0.1912
 8149TIP3    H245863   1.647   3.882   4.035  2.1758  0.4001 -1.7169
 8150TIP3   OH245864   5.700   4.731  16.836 -0.6365  0.1381  0.0098
 8150TIP3    H145865   5.683   4.825  16.832  1.0437  0.4843  0.0448
 8150TIP3    H245866   5.701   4.710  16.929 -0.2812  0.2533  0.0355
 8151TIP3   OH245867   0.218   5.323  12.869  0.4153  0.0223 -0.5645
 8151TIP3    H145868   0.165   5.247  12.844  0.5420 -0.4898  0.6649
 8151TIP3    H245869   0.159   5.398  12.855 -0.8801 -0.5762  1.2858
 8152TIP3   OH245870   0.016   6.135   1.611  0.2259  0.2293  0.0122
 8152TIP3    H145871   0.039   6.160   1.700  1.0854 -1.1478  0.1917
 8152TIP3    H245872  -0.028   6.213   1.576  1.7652  1.5812  0.9144
 8153TIP3   OH245873   1.320   2.590   1.399  0.2666 -0.1027  0.5308
 8153TIP3    H145874   1.354   2.509   1.361  0.5985  0.6105 -0.7773
 8153TIP3    H245875   1.368   2.600   1.482 -0.9953 -2.0684  1.5636
 8154TIP3   OH245876   4.667   2.116   1.325  0.2261  0.0596  0.2947
 8154TIP3    H145877   4.742   2.064   1.296 -0.4665 -1.1114  0.5308
 8154TIP3    H245878   4.705   2.190   1.372  1.2403 -0.4859  0.3529
 8155TIP3   OH245879   2.040   6.320  11.239 -0.4358  0.0710 -0.5161
 8155TIP3    H145880   2.044   6.324  11.143 -0.9769 -2.2797 -0.7034
 8155TIP3    H245881   2.131   6.321  11.267 -0.2273 -0.4361 -1.1510
 8156TIP3   OH245882   1.910   0.595   0.855  0.0668 -0.3801 -0.4973
 8156TIP3    H145883   1.815   0.582   0.855  0.1706 -1.4774  1.0010
 8156TIP3    H245884   1.923   0.685   0.826 -1.5159  0.2039  0.4862
 8157TIP3   OH245885   6.020   2.732   5.477  0.4404  0.2585  0.5034
 8157TIP3    H145886   5.953   2.797   5.454 -0.5602 -0.0613  2.3156
 8157TIP3    H245887   5.984   2.687   5.554  1.9873 -1.1116  0.4731
 8158TIP3   OH245888   6.614   0.906  13.710 -0.4558  0.0023  0.6035
 8158TIP3    H145889   6.638   0.819  13.677 -0.9583 -0.2483  0.8915
 8158TIP3    H245890   6.550   0.938  13.647 -0.1183  0.2529  0.3851
 8159TIP3   OH245891   4.963   0.800   2.450  0.0910 -0.2754 -0.1249
 8159TIP3    H145892   4.949   0.836   2.362  3.2092  1.9023  0.1073
 8159TIP3    H245893   4.891   0.834   2.502 -0.9410 -0.3018 -1.4966
 8160TIP3   OH245894   4.462   4.063  14.746 -0.0376  0.2556  0.0630
 8160TIP3    H145895   4.532   4.102  14.799 -0.6642  2.6068 -0.6974
 8160TIP3    H245896   4.507   3.998  14.692  1.2929  0.6067  0.6865
 8161TIP3   OH245897   3.726   0.498  10.750 -0.0177  0.3916 -0.0860
 8161TIP3    H145898   3.767   0.427  10.800 -1.2394 -0.9843 -0.9327
 8161TIP3    H245899   3.736   0.471  10.659 -0.1939  1.5045 -0.4467
 8162TIP3   OH245900   5.618   4.264  16.108 -0.5679 -0.1575  0.6537
 8162TIP3    H145901   5.655   4.179  16.131 -0.9391 -0.8013 -1.0025
 8162TIP3    H245902   5.567   4.290  16.185 -0.5417 -1.4851  1.1423
 8163TIP3   OH245903   1.590   2.048  12.496  0.1256  0.5677  0.0847
 8163TIP3    H145904   1.587   2.089  12.409 -1.3478  0.7015  0.1636
 8163TIP3    H245905   1.511   1.994  12.499  1.2243 -1.0793  0.5886
 8164TIP3   OH245906   5.473   2.884  13.065  0.0934 -0.4010 -0.1878
 8164TIP3    H145907   5.550   2.913  13.114 -0.2736 -0.3907  0.4067
 8164TIP3    H245908   5.436   2.813  13.119  1.8242 -3.1444 -2.3406
 8165TIP3   OH245909   0.250   1.839  12.503  0.0901  0.2527 -0.0814
 8165TIP3    H145910   0.212   1.918  12.541 -1.1948 -0.4912  0.2317
 8165TIP3    H245911   0.323   1.871  12.450  0.5103  1.5027  1.1913
 8166TIP3   OH245912   5.695   6.114   1.035  0.2256 -0.0839 -0.2046
 8166TIP3    H145913   5.705   6.115   1.130 -1.2944 -1.5658  0.0154
 8166TIP3    H245914   5.600   6.115   1.021  0.4158 -0.4110 -1.6888
 8167TIP3   OH245915   4.080   2.532  16.134  0.1940  0.5989 -0.2706
 8167TIP3    H145916   4.075   2.464  16.067 -0.5083  1.1494 -0.7912
 8167TIP3    H245917   4.110   2.609  16.087 -1.1256  1.2108 -0.1387
 8168TIP3   OH245918   1.434   0.983  12.827  0.0452  0.2286  0.1099
 8168TIP3    H145919   1.442   0.889  12.839 -0.7343  0.1697  0.2411
 8168TIP3    H245920   1.406   0.993  12.736  2.0852  0.4569 -0.5317
 8169TIP3   OH245921   2.644   6.535   1.768 -0.7618 -0.3877  0.1568
 8169TIP3    H145922   2.561   6.511   1.727 -1.2991  1.8695 -0.2069
 8169TIP3    H245923   2.636   6.629   1.785  0.6446 -0.6359  2.6562
 8170TIP3   OH245924   5.919   5.412  12.344  0.0353 -0.0435  0.1652
 8170TIP3    H145925   5.875   5.329  12.324 -0.2056  0.6901 -2.8402
 8170TIP3    H245926   5.982   5.424  12.273  2.7185  0.6624  2.4632
 8171TIP3   OH245927   4.642   1.338   2.433 -0.4421  0.0960  0.0660
 8171TIP3    H145928   4.726   1.302   2.462 -0.4954  0.6688  0.9567
 8171TIP3    H245929   4.583   1.262   2.431 -0.4963  0.0547  1.7147
 8172TIP3   OH245930   3.178   6.764   3.507  0.5522  0.4998  0.0650
 8172TIP3    H145931   3.260   6.721   3.528  1.2294  1.8980  0.3717
 8172TIP3    H245932   3.179   6.845   3.558 -1.1724  0.3851  0.3391
 8173TIP3   OH245933   6.164   0.312   4.469 -0.1471  0.6007 -0.2853
 8173TIP3    H145934   6.157   0.347   4.557  0.1040  0.8822 -0.3748
 8173TIP3    H245935   6.074   0.292   4.443  0.0023 -2.8255  1.3653
 8174TIP3   OH245936   5.495   4.391  13.555 -0.5669 -0.5258 -0.7050
 8174TIP3    H145937   5.444   4.448  13.613  0.4963  1.6446 -1.7873
 8174TIP3    H245938   5.433   4.323  13.528 -1.7072 -0.2960  1.1386
 8175TIP3   OH245939   3.044   2.601   0.400 -0.7564 -0.3793 -0.8915
 8175TIP3    H145940   3.001   2.516   0.411 -1.2753 -0.5796 -3.6159
 8175TIP3    H245941   2.979   2.654   0.354  0.6029  0.4973 -1.8699
 8176TIP3   OH245942   6.694   0.850   1.489 -0.5819 -0.6179 -0.0453
 8176TIP3    H145943   6.768   0.791   1.476 -0.5432 -0.0779 -2.8576
 8176TIP3    H245944   6.642   0.841   1.409 -3.0748 -0.2710  1.4395
 8177TIP3   OH245945   3.768   0.596   3.579 -0.0824 -0.4988  0.2578
 8177TIP3    H145946   3.718   0.655   3.635 -0.5782 -2.6107  2.1755
 8177TIP3    H245947   3.857   0.598   3.614  0.5217  0.8982 -1.2220
 8178TIP3   OH245948   3.350   0.701  14.888  0.4500  0.1833  0.4660
 8178TIP3    H145949   3.400   0.622  14.910  0.8879 -0.2717 -1.9244
 8178TIP3    H245950   3.415   0.771  14.890  1.0930 -0.2583 -1.6747
 8179TIP3   OH245951   5.762   5.805   3.037 -0.3621 -0.3122 -0.1813
 8179TIP3    H145952   5.687   5.781   3.092  1.4937  0.2698  2.9041
 8179TIP3    H245953   5.783   5.894   3.064 -0.1867  0.6126 -3.0476
 8180TIP3   OH245954   3.970   4.763  13.901 -0.3525 -0.3356 -0.4441
 8180TIP3    H145955   3.961   4.672  13.931  0.6278 -0.5537 -0.7765
 8180TIP3    H245956   3.995   4.811  13.979  1.7650 -0.8288 -0.7656
 8181TIP3   OH245957   4.193   2.405  11.600  0.2347  0.0807  0.0098
 8181TIP3    H145958   4.252   2.369  11.534  2.8228  1.3818  1.4930
 8181TIP3    H245959   4.210   2.353  11.679 -0.5471  0.5361  0.4941
 8182TIP3   OH245960   4.290   1.289  12.576  0.5367 -0.0090  0.3164
 8182TIP3    H145961   4.275   1.204  12.617  1.0655  0.9705  2.7471
 8182TIP3    H245962   4.204   1.331  12.575  0.8011  0.7141  2.4108
 8183TIP3   OH245963   2.919   5.214  13.180 -0.2827  0.1645  0.3947
 8183TIP3    H145964   2.906   5.269  13.102 -0.6316  0.5846  0.7454
 8183TIP3    H245965   2.869   5.134  13.160 -1.5409  0.8266  0.7477
 8184TIP3   OH245966   1.086   2.092   4.667 -0.3075  0.4434  1.1121
 8184TIP3    H145967   1.061   2.041   4.590 -0.9466  0.4075  1.3395
 8184TIP3    H245968   1.088   2.183   4.637 -2.2264  0.6385  1.4317
 8185TIP3   OH245969   4.624   4.518  15.890  0.3532  0.0705 -0.0610
 8185TIP3    H145970   4.676   4.540  15.813  1.4925 -0.8030  0.4304
 8185TIP3    H245971   4.613   4.602  15.935  0.9249  0.3530 -0.4209
 8186TIP3   OH245972   1.377   2.199   2.734 -0.0987 -0.4306 -0.1522
 8186TIP3    H145973   1.463   2.181   2.696  0.0137  0.1077 -0.1692
 8186TIP3    H245974   1.320   2.214   2.658  0.7116  3.3712 -0.2157
 8187TIP3   OH245975   4.290   5.051   3.165 -0.2694 -0.0786 -0.0127
 8187TIP3    H145976   4.214   5.017   3.212 -1.4332  1.3026 -0.8117
 8187TIP3    H245977   4.277   5.146   3.162  1.9456  0.3125  0.5655
 8188TIP3   OH245978   3.942   4.093  14.190  0.0812 -0.3235 -0.3456
 8188TIP3    H145979   4.003   4.131  14.254 -0.3042  0.3668 -0.3750
 8188TIP3    H245980   3.992   4.089  14.108  0.0525  0.3769 -0.4064
 8189TIP3   OH245981   6.266   0.112  15.099 -0.4716 -0.0734  0.2682
 8189TIP3    H145982   6.211   0.139  15.026 -0.1181  0.9728  0.3763
 8189TIP3    H245983   6.216   0.135  15.177 -0.4475 -0.3301  0.3604
 8190TIP3   OH245984   6.617   4.535  16.969 -0.0878 -0.2250 -0.7236
 8190TIP3    H145985   6.542   4.502  16.920 -0.9982 -1.5362  1.4077
 8190TIP3    H245986   6.676   4.459  16.975 -0.0567 -0.1258  0.2926
 8191TIP3   OH245987   5.515   0.382  14.723  0.2021  0.3693 -0.5627
 8191TIP3    H145988   5.607   0.366  14.703 -0.2081 -2.7537 -0.5414
 8191TIP3    H245989   5.514   0.403  14.816  0.9228  0.7586 -0.6379
 8192TIP3   OH245990   2.372   4.185   3.239  0.4700  0.1083  0.2784
 8192TIP3    H145991   2.289   4.234   3.239 -0.0652 -0.7783 -0.0035
 8192TIP3    H245992   2.400   4.187   3.147  0.6000  0.1528  0.3204
 8193TIP3   OH245993   4.672   5.299   1.104 -0.4045  0.5631 -0.6158
 8193TIP3    H145994   4.740   5.292   1.037  1.0166 -1.3255  0.8589
 8193TIP3    H245995   4.690   5.382   1.147  0.8064  0.2699 -0.4951
 8194TIP3   OH245996   0.706   1.905  14.105 -0.1945 -0.2749 -0.1620
 8194TIP3    H145997   0.725   1.985  14.056 -1.5692 -0.7909 -1.6260
 8194TIP3    H245998   0.759   1.838  14.062 -0.8757 -0.5938 -0.5234
 8195TIP3   OH245999   4.033   3.110   3.262  0.4976  0.3038 -0.0136
 8195TIP3    H146000   3.996   3.152   3.340 -0.8220 -0.1337 -0.3814
 8195TIP3    H246001   4.107   3.060   3.295  0.5067  0.8446  0.8257
 8196TIP3   OH246002   1.605   1.799   3.355  0.1507  0.1192  1.0822
 8196TIP3    H146003   1.571   1.882   3.387 -0.5248 -0.1760  1.1523
 8196TIP3    H246004   1.615   1.812   3.260 -1.2977 -0.1592  0.8700
 8197TIP3   OH246005   6.391   1.930   2.034 -0.1661  0.5551  0.2697
 8197TIP3    H146006   6.407   1.961   1.945 -0.2692 -0.0638  0.0287
 8197TIP3    H246007   6.379   1.835   2.024  0.2077  0.4293  0.9933
 8198TIP3   OH246008   5.139   2.071   2.868 -0.0669  0.2846  0.1327
 8198TIP3    H146009   5.145   2.112   2.954 -0.9236 -0.2974  0.4837
 8198TIP3    H246010   5.191   2.127   2.811  3.2163 -0.9881  1.6348
 8199TIP3   OH246011   5.694   2.042  16.954  0.1052 -0.4411  0.3820
 8199TIP3    H146012   5.695   2.109  17.023  0.4530 -0.2806  0.2212
 8199TIP3    H246013   5.786   2.022  16.939  0.0611 -0.0919 -0.4086
 8200TIP3   OH246014   5.280   0.047   1.653  0.1402  0.1615 -0.8536
 8200TIP3    H146015   5.204   0.053   1.710 -0.3112 -0.7145 -1.3416
 8200TIP3    H246016   5.264   0.111   1.584 -0.0463  0.1370 -0.8324
 8201TIP3   OH246017   3.172   1.296   6.225  0.1230 -0.3817 -0.4986
 8201TIP3    H146018   3.214   1.222   6.270 -3.2659 -2.4341 -0.3477
 8201TIP3    H246019   3.128   1.344   6.295 -2.2379 -1.5538 -1.0483
 8202TIP3   OH246020   5.213   0.248   3.315 -0.5082 -0.0407  0.3199
 8202TIP3    H146021   5.268   0.226   3.390 -0.5245  0.0337  0.3537
 8202TIP3    H246022   5.176   0.334   3.336  0.6998  0.6928 -0.4500
 8203TIP3   OH246023   2.272   4.308  13.450  0.6247 -0.4839 -0.3820
 8203TIP3    H146024   2.349   4.332  13.398  0.0423 -0.8947 -1.4869
 8203TIP3    H246025   2.269   4.212  13.445  1.0785 -0.5967  1.2166
 8204TIP3   OH246026   3.748   4.522   3.074  0.3202  0.2113  1.2269
 8204TIP3    H146027   3.772   4.442   3.121 -0.5345  1.0941  3.2855
 8204TIP3    H246028   3.694   4.492   3.000 -1.1061 -1.0802  2.7143
 8205TIP3   OH246029   5.845   3.608   4.022  0.4997 -0.3589  0.0759
 8205TIP3    H146030   5.831   3.560   3.940  1.1141 -0.6564  0.1489
 8205TIP3    H246031   5.913   3.672   4.001 -1.2601  1.4898 -0.4382
 8206TIP3   OH246032   2.632   4.356   0.137  0.0690  0.1556  0.8437
 8206TIP3    H146033   2.662   4.432   0.088  2.3061 -0.7551  0.6730
 8206TIP3    H246034   2.539   4.350   0.119  0.1721  1.8940 -0.4438
 8207TIP3   OH246035   0.740   0.224   0.305  0.5707 -0.5070  0.9291
 8207TIP3    H146036   0.802   0.150   0.306  1.2298  0.0387  1.6816
 8207TIP3    H246037   0.667   0.193   0.251  2.4359 -0.3934 -1.8976
 8208TIP3   OH246038   0.029   0.957   6.068 -1.0422 -0.1116 -0.3959
 8208TIP3    H146039   0.112   0.967   6.115 -2.4891  1.5448  2.0347
 8208TIP3    H246040   0.026   0.864   6.044  0.8678 -0.5134  0.7046
 8209TIP3   OH246041   6.299   1.497  14.475 -0.3351 -0.6793  0.5013
 8209TIP3    H146042   6.261   1.556  14.540  0.3672  0.9499 -0.4895
 8209TIP3    H246043   6.255   1.414  14.489 -2.7952  0.5661  0.6979
 8210TIP3   OH246044   6.316   3.597  12.038  0.7011  0.2929 -0.3886
 8210TIP3    H146045   6.366   3.571  11.960  1.2440  1.4452 -0.4539
 8210TIP3    H246046   6.227   3.567  12.021  1.4512 -2.3193 -0.0172
 8211TIP3   OH246047   3.142   1.119   5.171  0.1371  0.0982 -0.4610
 8211TIP3    H146048   3.080   1.186   5.200 -1.4056 -0.6539 -1.8563
 8211TIP3    H246049   3.133   1.118   5.076  1.6200 -0.7121 -0.6169
 8212TIP3   OH246050   1.088   4.981  14.622  0.3219  0.4196  0.4407
 8212TIP3    H146051   1.182   4.966  14.626  0.4344  1.3004  1.5041
 8212TIP3    H246052   1.051   4.919  14.685  0.2597  0.6149  0.5954
 8213TIP3   OH246053   4.628   6.362   3.988  0.6571 -0.3033 -0.3687
 8213TIP3    H146054   4.625   6.450   3.950  0.4291 -0.3664 -0.5048
 8213TIP3    H246055   4.648   6.305   3.914  0.3380 -0.4135 -0.3741
 8214TIP3   OH246056   1.851   3.273   2.800 -0.1127 -0.3532 -0.5032
 8214TIP3    H146057   1.893   3.197   2.842 -0.9631 -0.5146  0.0824
 8214TIP3    H246058   1.767   3.240   2.769 -1.2406  0.7034  1.2374
 8215TIP3   OH246059   5.492   5.724  15.276 -0.4023  0.3054 -0.0191
 8215TIP3    H146060   5.514   5.776  15.199 -0.2778  0.5113  0.1555
 8215TIP3    H246061   5.415   5.768  15.313  2.1381  2.9404  2.5464
 8216TIP3   OH246062   4.468   1.698   5.776  0.3328 -0.6899 -0.6051
 8216TIP3    H146063   4.396   1.642   5.807  0.0622  0.5709  1.1868
 8216TIP3    H246064   4.545   1.641   5.777  0.0941 -1.0227  1.2980
 8217TIP3   OH246065   4.688   1.302  13.875  0.2762  0.5630  0.0070
 8217TIP3    H146066   4.651   1.366  13.936  2.4862  2.7223 -0.7284
 8217TIP3    H246067   4.737   1.241  13.930  2.0462  2.3374  0.5164
 8218TIP3   OH246068   5.347   4.657  13.580 -0.7209  0.2605 -0.2925
 8218TIP3    H146069   5.369   4.728  13.520  1.0975 -0.0484 -0.0531
 8218TIP3    H246070   5.319   4.701  13.660 -0.9961  0.7008 -0.6334
 8219TIP3   OH246071   4.332   5.606   1.631 -0.2324  0.3062 -0.2333
 8219TIP3    H146072   4.399   5.539   1.645 -0.5082 -0.6631 -3.0334
 8219TIP3    H246073   4.249   5.560   1.641 -0.4836  0.9428  0.7584
 8220TIP3   OH246074   0.536   6.155   5.349 -0.2976 -0.5012  0.1271
 8220TIP3    H146075   0.454   6.135   5.394 -0.5640  1.2241  0.5025
 8220TIP3    H246076   0.579   6.221   5.405  0.6748 -0.3389 -0.7670
 8221TIP3   OH246077   2.781   0.200  13.532  0.4350 -0.4508 -0.1972
 8221TIP3    H146078   2.715   0.135  13.507 -0.8741 -0.1088  2.0438
 8221TIP3    H246079   2.807   0.173  13.620 -0.0901  1.9740  0.7678
 8222TIP3   OH246080   3.265   0.004   5.955  0.0317 -0.6421  0.1466
 8222TIP3    H146081   3.188   0.002   5.899 -0.6177 -2.3728  1.0285
 8222TIP3    H246082   3.261  -0.078   6.005  3.0297 -1.3474 -0.5696
 8223TIP3   OH246083   0.479   2.218   3.171 -0.1912  0.9846  0.6954
 8223TIP3    H146084   0.478   2.151   3.239  0.3753  0.7816  0.5093
 8223TIP3    H246085   0.474   2.301   3.219  0.0627  0.8368  0.9781
 8224TIP3   OH246086   4.187   5.944   0.728 -0.0887 -0.2407  0.4370
 8224TIP3    H146087   4.174   5.959   0.822  2.1291  2.0995  0.4621
 8224TIP3    H246088   4.217   6.028   0.694 -0.6815 -1.0763 -2.3822
 8225TIP3   OH246089   4.588   6.400  11.508 -0.3037  0.5045 -0.0102
 8225TIP3    H146090   4.504   6.355  11.503 -0.8361  1.5261 -0.6053
 8225TIP3    H246091   4.601   6.438  11.421  1.2538 -0.4399 -0.2387
 8226TIP3   OH246092   0.321   1.644  15.234 -0.4393  0.2996  0.5780
 8226TIP3    H146093   0.284   1.614  15.150  0.8722  0.5432 -0.1237
 8226TIP3    H246094   0.263   1.715  15.262 -0.1517  1.1403 -0.8330
 8227TIP3   OH246095   4.155   0.087   2.174  0.3030 -0.3072  0.3528
 8227TIP3    H146096   4.158   0.012   2.114  2.0569 -0.4768  0.5973
 8227TIP3    H246097   4.246   0.117   2.179 -0.4180  2.1990 -0.1783
 8228TIP3   OH246098   0.877   0.753  13.866 -0.1480  0.3692 -0.1179
 8228TIP3    H146099   0.903   0.671  13.907 -1.3957  0.1432  0.2652
 8228TIP3    H246100   0.782   0.745  13.853 -0.2532  1.6295 -0.3201
 8229TIP3   OH246101   5.989   3.871  13.222 -0.0341  0.0180  0.0664
 8229TIP3    H146102   6.005   3.914  13.138 -0.3678  0.3474  0.1656
 8229TIP3    H246103   6.033   3.927  13.286 -0.3369  0.1348  0.1795
 8230TIP3   OH246104   5.011   3.121  17.022  0.2955 -0.0413 -0.0722
 8230TIP3    H146105   5.070   3.127  17.097 -1.3515  1.6407  1.1696
 8230TIP3    H246106   5.068   3.133  16.946  2.0991 -2.3002  0.7903
 8231TIP3   OH246107   6.658   6.497  12.082 -0.2706 -0.0686  0.1335
 8231TIP3    H146108   6.640   6.537  11.996 -3.0235 -0.7940  0.2666
 8231TIP3    H246109   6.618   6.558  12.145  1.6061  0.3868  0.9608
 8232TIP3   OH246110   1.415   2.860  11.777  0.4427 -0.0895  0.2351
 8232TIP3    H146111   1.345   2.800  11.804 -0.4067  1.2685  1.2006
 8232TIP3    H246112   1.377   2.910  11.704  1.1123 -0.6528 -0.5141
 8233TIP3   OH246113   2.757   2.731   5.761 -0.4086  0.1871 -0.4822
 8233TIP3    H146114   2.805   2.787   5.700  2.3486 -1.3640  0.1050
 8233TIP3    H246115   2.741   2.788   5.837  2.4374  0.2736  0.1534
 8234TIP3   OH246116   0.868   6.364  16.341  0.1241 -0.0542  0.3717
 8234TIP3    H146117   0.847   6.404  16.257  2.3273 -1.1813 -0.8298
 8234TIP3    H246118   0.903   6.435  16.394  0.2696  0.3819 -0.2978
 8235TIP3   OH246119   4.840   5.298  15.474  0.0552  0.2884  0.2739
 8235TIP3    H146120   4.914   5.246  15.506  1.3047  2.1665  0.6381
 8235TIP3    H246121   4.873   5.340  15.394  0.0720  2.5435  1.3919
 8236TIP3   OH246122   4.441   1.421   2.923 -0.9503  0.1682  0.2279
 8236TIP3    H146123   4.480   1.354   2.867 -1.2503  0.5771 -0.4697
 8236TIP3    H246124   4.505   1.493   2.923 -0.2759 -0.3891  1.5715
 8237TIP3   OH246125   1.490   1.080   3.682  0.4833  0.1243 -0.1063
 8237TIP3    H146126   1.515   0.988   3.688  0.0919  0.0559  0.5352
 8237TIP3    H246127   1.445   1.088   3.598  0.3416 -0.3140 -0.0700
 8238TIP3   OH246128   5.709   2.825  15.710 -0.2111 -0.1289  0.4045
 8238TIP3    H146129   5.778   2.760  15.727 -1.3878 -1.0669  1.9011
 8238TIP3    H246130   5.650   2.781  15.649  0.4267  0.6550 -0.8355
 8239TIP3   OH246131   1.243   2.920  14.948 -0.0487  0.0327  0.4598
 8239TIP3    H146132   1.193   2.995  14.916 -1.4286 -1.0871 -0.1263
 8239TIP3    H246133   1.313   2.909  14.884 -0.7568 -0.1072 -0.3066
 8240TIP3   OH246134   6.627   1.587   0.420 -0.3300 -0.6830 -0.4412
 8240TIP3    H146135   6.572   1.514   0.390 -0.5538  0.0755 -1.9782
 8240TIP3    H246136   6.570   1.638   0.477 -0.0100 -1.9635  1.0960
 8241TIP3   OH246137   0.507   4.882  14.136 -0.0785 -0.2770  0.0226
 8241TIP3    H146138   0.590   4.897  14.089  0.9121  1.3149  2.1267
 8241TIP3    H246139   0.534   4.846  14.221 -1.4056  1.4052  1.2284
 8242TIP3   OH246140   3.426   2.813  16.515 -0.3025  0.1576 -0.6357
 8242TIP3    H146141   3.449   2.724  16.542 -0.2689  0.0511 -1.0083
 8242TIP3    H246142   3.402   2.804  16.423  2.0647  0.9488 -1.3938
 8243TIP3   OH246143   2.820   5.775  15.893  0.3628 -0.2769 -0.4147
 8243TIP3    H146144   2.735   5.735  15.913 -1.6269  2.5954 -2.2659
 8243TIP3    H246145   2.841   5.744  15.805  0.0856  0.6467 -0.8259
 8244TIP3   OH246146   5.232   1.682  15.558 -0.7846 -0.3931 -0.2527
 8244TIP3    H146147   5.271   1.612  15.609 -1.1916  0.8388  1.8937
 8244TIP3    H246148   5.140   1.657  15.549 -0.7041 -0.6292 -0.4355
 8245TIP3   OH246149   0.775   4.418  14.925  0.1656 -0.2194 -0.1845
 8245TIP3    H146150   0.786   4.416  14.830 -1.5768  0.7157 -0.4450
 8245TIP3    H246151   0.714   4.346  14.943  3.0315 -2.6552  0.7148
 8246TIP3   OH246152   4.468   3.591   5.938 -0.1654  0.1379 -0.2015
 8246TIP3    H146153   4.510   3.641   5.868 -0.6697  0.9496  0.0643
 8246TIP3    H246154   4.415   3.655   5.985  1.4942  0.0202  2.0149
 8247TIP3   OH246155   3.518   6.228  13.905 -0.3784  0.4352  0.1112
 8247TIP3    H146156   3.504   6.133  13.900  1.7042  0.0341  1.1217
 8247TIP3    H246157   3.496   6.251  13.995  1.1576  0.5138  0.4863
 8248TIP3   OH246158   0.677   3.556   3.246 -0.0967 -0.2010 -0.1733
 8248TIP3    H146159   0.757   3.588   3.288 -0.1119  0.8384 -0.9205
 8248TIP3    H246160   0.608   3.614   3.277 -0.0826  0.7090 -1.7236
 8249TIP3   OH246161   5.632   4.009  12.139 -0.7905  0.0458 -0.2002
 8249TIP3    H146162   5.547   3.969  12.122 -0.8242  0.2643 -0.5595
 8249TIP3    H246163   5.675   4.011  12.054  0.8113 -2.8056  0.4458
 8250TIP3   OH246164   6.163   4.185   0.386  0.3264 -0.7560  0.2274
 8250TIP3    H146165   6.159   4.112   0.447  1.2516 -1.6286 -0.7144
 8250TIP3    H246166   6.163   4.144   0.299  0.6613  0.3684 -0.3218
 8251TIP3   OH246167   2.840   4.906  10.847  0.3863  0.0747 -0.4014
 8251TIP3    H146168   2.836   4.812  10.863  1.4763 -0.1340 -1.2542
 8251TIP3    H246169   2.790   4.918  10.766  0.9911  0.1074 -0.7693
 8252TIP3   OH246170   0.803   3.274   0.096 -0.2492 -0.0172 -0.2491
 8252TIP3    H146171   0.729   3.214   0.107 -1.9224  1.9076 -0.5117
 8252TIP3    H246172   0.803   3.327   0.176  0.5606  0.3190 -0.4601
 8253TIP3   OH246173   4.543   0.928  17.165  0.0948 -0.1339  0.1969
 8253TIP3    H146174   4.545   0.899  17.256  2.9754 -1.8010 -0.2783
 8253TIP3    H246175   4.534   1.023  17.171 -1.1259 -0.3056  2.1337
 8254TIP3   OH246176   3.875   5.771  14.935 -0.3836 -0.2774  0.1243
 8254TIP3    H146177   3.965   5.743  14.918 -0.1897  0.1415  0.4414
 8254TIP3    H246178   3.842   5.799  14.849 -0.2200 -0.4592  0.0034
 8255TIP3   OH246179   4.650   0.493   4.731 -0.3862  0.1569  0.1938
 8255TIP3    H146180   4.688   0.499   4.643 -2.1955 -1.9166 -0.8259
 8255TIP3    H246181   4.726   0.484   4.789  0.8187  0.3304 -1.2895
 8256TIP3   OH246182   1.323   4.729   4.090  0.2168 -0.0634  0.7120
 8256TIP3    H146183   1.312   4.678   4.170 -0.1713  1.5311  1.7180
 8256TIP3    H246184   1.389   4.795   4.112 -0.0543  0.5420 -0.2032
 8257TIP3   OH246185   1.710   6.108   6.426  0.2968  0.2709 -0.3085
 8257TIP3    H146186   1.682   6.155   6.504 -1.2761  0.4080 -0.9333
 8257TIP3    H246187   1.746   6.026   6.460 -1.3329 -0.1418  0.5257
 8258TIP3   OH246188   1.511   2.262   4.615  0.2092  0.1367 -0.2927
 8258TIP3    H146189   1.551   2.252   4.529 -0.6615  0.3335 -0.7335
 8258TIP3    H246190   1.525   2.178   4.658  1.1324  0.2144 -0.4041
 8259TIP3   OH246191   3.907   3.064   4.316 -0.5687 -0.0545  0.3960
 8259TIP3    H146192   3.878   2.974   4.305 -1.3662  0.2297  0.0758
 8259TIP3    H246193   4.001   3.058   4.334 -0.4282 -0.9023 -0.5482
 8260TIP3   OH246194   5.430   3.219   3.585  0.0930  0.1170 -0.2532
 8260TIP3    H146195   5.516   3.250   3.556  1.2973 -1.5045  1.3359
 8260TIP3    H246196   5.393   3.293   3.633  1.8395 -0.0026  1.4011
 8261TIP3   OH246197   0.387   0.015  13.667  0.6125 -0.1855  0.0773
 8261TIP3    H146198   0.318  -0.032  13.716  1.6380 -1.3406  0.4670
 8261TIP3    H246199   0.396   0.099  13.713  0.5211 -0.6508  0.9695
 8262TIP3   OH246200   5.663   5.324   3.045 -0.2050  0.1123  0.3982
 8262TIP3    H146201   5.589   5.275   3.081 -1.2092  0.4895 -1.0653
 8262TIP3    H246202   5.708   5.261   2.989 -1.2890  0.6905 -1.1994
 8263TIP3   OH246203   3.339   3.619  11.497 -0.3193 -0.1054  0.1608
 8263TIP3    H146204   3.337   3.533  11.456 -1.0948 -0.7407  1.4777
 8263TIP3    H246205   3.247   3.641  11.512 -0.1058  0.7255  0.3396
 8264TIP3   OH246206   3.396   3.904   3.526  0.4114 -0.1618 -0.0738
 8264TIP3    H146207   3.317   3.925   3.478 -0.4601  0.5109  1.5788
 8264TIP3    H246208   3.394   3.808   3.536  1.1849 -0.4647 -2.2363
 8265TIP3   OH246209   1.861   2.196  12.264  0.6014  0.0075 -0.3914
 8265TIP3    H146210   1.876   2.240  12.181  0.9098  1.4447  0.3985
 8265TIP3    H246211   1.766   2.199  12.276  0.7012  1.6739  0.2584
 8266TIP3   OH246212   3.975   3.115   2.169  0.8658  0.5618  0.3691
 8266TIP3    H146213   3.941   3.064   2.243  1.1631 -1.9764 -1.1400
 8266TIP3    H246214   3.910   3.185   2.157 -1.1147 -1.1064  0.7876
 8267TIP3   OH246215   6.455   4.737   4.310 -0.6609  0.9823  0.2914
 8267TIP3    H146216   6.445   4.649   4.273  1.4749  0.5663  0.5886
 8267TIP3    H246217   6.520   4.780   4.254 -1.9250  2.5317 -0.0599
 8268TIP3   OH246218   5.895   5.369   6.305  0.4665  0.1939 -0.3573
 8268TIP3    H146219   5.825   5.420   6.346  1.1822  1.2407 -0.4006
 8268TIP3    H246220   5.869   5.278   6.319 -2.7013  0.4455 -3.4518
 8269TIP3   OH246221   5.437   4.626  16.135 -0.0911  0.1638  0.2303
 8269TIP3    H146222   5.522   4.605  16.097 -0.8862 -0.4019 -1.3144
 8269TIP3    H246223   5.378   4.559  16.102 -1.6904  2.0002 -0.8797
 8270TIP3   OH246224   0.122   5.464   5.043 -0.4613  0.2593 -0.2764
 8270TIP3    H146225   0.044   5.442   4.992  0.0551 -0.0654 -0.9317
 8270TIP3    H246226   0.154   5.546   5.004 -0.1874  0.1238 -0.3355
 8271TIP3   OH246227   3.399   4.109  12.342 -0.2015  0.4985  0.2278
 8271TIP3    H146228   3.312   4.091  12.379 -0.6515 -0.7931 -1.3326
 8271TIP3    H246229   3.422   4.029  12.295  2.1860  0.5242  1.1859
 8272TIP3   OH246230   6.342   5.971  10.469  0.1727  0.1007 -0.4192
 8272TIP3    H146231   6.430   6.009  10.472 -0.3050  1.1789  0.4841
 8272TIP3    H246232   6.299   6.002  10.549  0.3190 -3.8616  1.3974
 8273TIP3   OH246233   4.112   1.895   2.682  0.2208  0.3162  0.0017
 8273TIP3    H146234   4.127   1.955   2.609 -1.4648  1.0287  0.1831
 8273TIP3    H246235   4.070   1.819   2.642 -0.8613  0.7792  0.2195
 8274TIP3   OH246236   0.794   6.246  15.454  0.0699  0.6344 -0.1743
 8274TIP3    H146237   0.743   6.324  15.478  1.5065  1.0933  1.6432
 8274TIP3    H246238   0.769   6.180  15.518 -0.8106 -0.2968 -1.4394
 8275TIP3   OH246239   4.111   0.769   2.610  0.1195 -0.3081 -0.1290
 8275TIP3    H146240   4.181   0.776   2.545  0.0423 -1.1783 -0.3216
 8275TIP3    H246241   4.037   0.816   2.571  0.5277  0.4557 -0.0074
 8276TIP3   OH246242   6.264   1.157  16.828 -0.2209  0.3463 -0.1936
 8276TIP3    H146243   6.185   1.211  16.831 -0.5463 -0.0407 -1.2227
 8276TIP3    H246244   6.283   1.148  16.734  2.2069  2.1107  0.0357
 8277TIP3   OH246245   2.645   6.266   6.079  0.5593  0.5177 -0.5151
 8277TIP3    H146246   2.648   6.357   6.106  1.2722  1.0148 -2.1174
 8277TIP3    H246247   2.557   6.255   6.041  0.5308  0.5808 -0.4665
 8278TIP3   OH246248   1.490   1.415   5.654 -0.1839  0.3035 -0.2336
 8278TIP3    H146249   1.576   1.412   5.696  0.4448  0.8188 -1.4198
 8278TIP3    H246250   1.481   1.505   5.623 -1.5572  0.4992  0.6331
 8279TIP3   OH246251   6.639   6.515   3.546 -0.1585 -0.7575  0.3402
 8279TIP3    H146252   6.548   6.499   3.567 -0.4674 -3.1350 -2.2260
 8279TIP3    H246253   6.670   6.575   3.615 -3.5027 -0.0987  1.4389
 8280TIP3   OH246254   4.490   0.051   1.601 -0.0250 -0.1831  0.7980
 8280TIP3    H146255   4.448  -0.032   1.624 -1.1882 -0.0058 -0.5877
 8280TIP3    H246256   4.582   0.029   1.589 -0.0038 -0.9238  2.1240
 8281TIP3   OH246257   2.202   0.164  16.633  0.3795 -0.6720 -0.3243
 8281TIP3    H146258   2.202   0.129  16.544  0.2380 -1.2773 -0.0876
 8281TIP3    H246259   2.110   0.187  16.649 -0.1316 -3.0171  0.5990
 8282TIP3   OH246260   3.116   5.218   3.878 -0.2370  0.0301  0.0991
 8282TIP3    H146261   3.080   5.270   3.950 -1.6213 -0.4273 -0.2305
 8282TIP3    H246262   3.040   5.197   3.823 -0.2458 -4.2203  1.3941
 8283TIP3   OH246263   1.154   0.512   2.855  0.3322 -0.5797 -0.0886
 8283TIP3    H146264   1.058   0.508   2.850  0.1575  1.0644  1.3392
 8283TIP3    H246265   1.180   0.543   2.768 -0.6325  1.3518  0.2649
 8284TIP3   OH246266   0.525   1.701  16.060 -0.4521  0.6228  0.3837
 8284TIP3    H146267   0.600   1.698  16.001  0.5458  0.8141  1.5947
 8284TIP3    H246268   0.513   1.611  16.088  1.6867  0.9956  2.9594
 8285TIP3   OH246269   4.989   6.161  11.328  0.4175  0.2800  0.7050
 8285TIP3    H146270   4.931   6.236  11.319 -0.5873 -0.6186 -0.8673
 8285TIP3    H246271   5.076   6.198  11.345  0.0872  1.8372 -0.7776
 8286TIP3   OH246272   6.264   0.459  16.238  0.0712  0.1099 -0.1116
 8286TIP3    H146273   6.238   0.540  16.194  1.8844  0.8910  0.1540
 8286TIP3    H246274   6.188   0.434  16.290 -0.1740  2.2621  0.6454
 8287TIP3   OH246275   4.646   4.850   2.381 -0.4221  0.4145  0.1298
 8287TIP3    H146276   4.703   4.885   2.449  0.4492 -1.2724  0.3264
 8287TIP3    H246277   4.606   4.927   2.341 -0.3536  1.4835  2.0159
 8288TIP3   OH246278   6.603   6.508  14.180  0.6868  0.6109 -0.3049
 8288TIP3    H146279   6.561   6.442  14.124  1.0644  0.6193 -0.5991
 8288TIP3    H246280   6.571   6.592  14.146  1.5845  0.6556 -1.0657
 8289TIP3   OH246281   3.193   0.175   4.599 -0.4971  0.1179  0.3895
 8289TIP3    H146282   3.183   0.091   4.645 -0.8743 -0.2583 -0.3566
 8289TIP3    H246283   3.208   0.150   4.508  1.9217  0.7984  0.5384
 8290TIP3   OH246284   3.756   5.935  15.357 -0.1880  0.6243  0.0585
 8290TIP3    H146285   3.740   5.988  15.435 -0.8737 -1.4786  1.4216
 8290TIP3    H246286   3.848   5.911  15.364 -0.5837 -0.7336  1.0490
 8291TIP3   OH246287   4.744   5.424  13.856  0.1376  0.4110 -0.0470
 8291TIP3    H146288   4.756   5.355  13.790 -3.8653 -0.1179 -0.4603
 8291TIP3    H246289   4.743   5.378  13.939  0.5682  0.4474 -0.0167
 8292TIP3   OH246290   3.162   2.838  14.438 -0.2019  0.8163  0.5843
 8292TIP3    H146291   3.087   2.896  14.431 -0.7679  0.4659  2.8974
 8292TIP3    H246292   3.187   2.819  14.348 -2.2755  1.7132 -0.2256
 8293TIP3   OH246293   0.834   0.291   5.875  0.4674  0.0474 -0.3541
 8293TIP3    H146294   0.771   0.221   5.896  1.7832 -0.8395  0.7736
 8293TIP3    H246295   0.783   0.372   5.884 -0.3181 -0.5929  1.4891
 8294TIP3   OH246296   1.311   1.533   2.452  0.1819  0.2193 -0.5244
 8294TIP3    H146297   1.324   1.593   2.526 -0.6285 -0.9424  0.6171
 8294TIP3    H246298   1.383   1.469   2.460  0.1441  0.1422 -0.7949
 8295TIP3   OH246299   4.153   1.228  13.258 -0.1288  0.4385  0.9246
 8295TIP3    H146300   4.141   1.220  13.164  0.7941 -0.5896  0.8834
 8295TIP3    H246301   4.066   1.211  13.295 -0.1337 -0.9054  0.3402
 8296TIP3   OH246302   6.046   5.048   4.434  0.6748 -0.2865  0.5906
 8296TIP3    H146303   6.130   5.024   4.395  0.0002 -1.5135 -0.1904
 8296TIP3    H246304   6.030   4.981   4.500  0.9333  0.7391  1.7454
 8297TIP3   OH246305   5.600   5.665   1.748 -0.1442  0.0788  0.0505
 8297TIP3    H146306   5.558   5.737   1.701 -0.4476 -0.2480 -0.1800
 8297TIP3    H246307   5.663   5.629   1.686 -1.0652 -0.8264 -0.3789
 8298TIP3   OH246308   5.245   6.542   2.680 -0.3274  0.2889 -0.1228
 8298TIP3    H146309   5.158   6.514   2.708 -0.4413 -1.7775 -2.1927
 8298TIP3    H246310   5.230   6.617   2.624 -0.9692 -0.8138 -1.4849
 8299TIP3   OH246311   2.122   2.361  11.676 -0.3826 -0.3732 -0.0171
 8299TIP3    H146312   2.211   2.336  11.700  0.1595 -1.2209 -2.6422
 8299TIP3    H246313   2.130   2.451  11.644 -0.5188 -0.3888 -0.0958
 8300TIP3   OH246314   0.485   5.380  11.777 -0.2561 -0.7673 -0.3398
 8300TIP3    H146315   0.463   5.364  11.685 -2.1041  0.6249 -0.2000
 8300TIP3    H246316   0.448   5.304  11.823 -3.1541  0.4720 -0.3674
 8301TIP3   OH246317   2.552   2.375   4.770 -0.0473 -0.0249 -0.7111
 8301TIP3    H146318   2.601   2.439   4.718 -1.9249  2.5414  0.4544
 8301TIP3    H246319   2.618   2.314   4.801  1.8309  1.1710 -2.1183
 8302TIP3   OH246320   5.913   5.408   2.535 -0.3346  0.7424  0.5730
 8302TIP3    H146321   5.992   5.356   2.521 -0.8702  0.0567  0.0541
 8302TIP3    H246322   5.863   5.398   2.454 -0.4360  2.1035  0.4413
 8303TIP3   OH246323   5.496   1.003  16.099 -0.5136  0.8993 -0.3549
 8303TIP3    H146324   5.540   0.977  16.018  0.0790 -0.5051  0.3882
 8303TIP3    H246325   5.404   0.983  16.084 -0.3729  0.4311 -0.6135
 8304TIP3   OH246326   6.608   5.360  14.833 -0.0473  0.5393 -0.1921
 8304TIP3    H146327   6.684   5.325  14.881 -0.4544 -1.1234 -0.6990
 8304TIP3    H246328   6.641   5.377  14.745  0.0389  1.0424 -0.0672
 8305TIP3   OH246329   6.613   4.194   4.913  0.3214 -0.0907 -0.5900
 8305TIP3    H146330   6.647   4.217   4.826  1.2136 -0.1769 -0.2741
 8305TIP3    H246331   6.646   4.263   4.971  1.8528 -1.3528  0.1141
 8306TIP3   OH246332   1.581   3.345  11.278 -0.5433 -0.2761 -0.4181
 8306TIP3    H146333   1.569   3.345  11.373 -0.6238  0.1087 -0.4240
 8306TIP3    H246334   1.579   3.438  11.254  0.1162 -0.3352 -0.7159
 8307TIP3   OH246335   6.156   1.333  12.862  0.1235  0.5602 -0.0271
 8307TIP3    H146336   6.134   1.321  12.770  1.3671  0.9802 -0.4042
 8307TIP3    H246337   6.251   1.321  12.865 -0.1694 -2.1015  1.6469
 8308TIP3   OH246338   2.036   4.196  16.783 -0.2858  0.5799 -0.3900
 8308TIP3    H146339   1.950   4.235  16.795 -0.2798  1.3151 -2.3174
 8308TIP3    H246340   2.041   4.176  16.689  1.6415  0.5735 -0.3415
 8309TIP3   OH246341   0.747   3.967  14.610 -0.3337  0.4889  0.6726
 8309TIP3    H146342   0.833   4.005  14.629 -0.4843  0.5781  1.1885
 8309TIP3    H246343   0.747   3.884  14.657 -0.7857  0.8030  1.2346
 8310TIP3   OH246344   4.045   1.021  15.715 -0.1028  0.6484 -0.2844
 8310TIP3    H146345   4.139   0.999  15.713 -0.5115 -2.2811  2.8958
 8310TIP3    H246346   4.005   0.960  15.652 -0.0452  0.7231 -0.3941
 8311TIP3   OH246347   2.674   4.615  14.152 -0.2456  0.2915 -0.3612
 8311TIP3    H146348   2.589   4.579  14.176  1.0608 -1.7286  1.7016
 8311TIP3    H246349   2.668   4.632  14.058 -3.3589  1.6896 -0.0409
 8312TIP3   OH246350   3.008   4.898   4.924 -0.0208  0.6145  0.2299
 8312TIP3    H146351   3.008   4.918   4.831 -1.1175  0.8582  0.2705
 8312TIP3    H246352   3.036   4.807   4.929  0.9730  0.8778 -0.2552
 8313TIP3   OH246353   6.245   5.819  16.599  0.1673 -0.1570 -0.2409
 8313TIP3    H146354   6.295   5.880  16.545  1.7987 -1.3706 -0.1698
 8313TIP3    H246355   6.285   5.825  16.686 -1.0179  0.1817  0.2939
 8314TIP3   OH246356   6.727   0.788  15.338  0.3420  0.0268 -0.7909
 8314TIP3    H146357   6.660   0.745  15.285  0.3285  0.1670 -0.8884
 8314TIP3    H246358   6.680   0.858  15.383  0.0980 -0.8153  0.3213
 8315TIP3   OH246359   2.766   4.523   1.803 -0.0715 -0.0427 -0.0320
 8315TIP3    H146360   2.797   4.434   1.784 -1.6852 -0.2487 -1.9256
 8315TIP3    H246361   2.844   4.578   1.790  0.8963 -1.1120  0.9447
 8316TIP3   OH246362   3.069   4.099  16.337  0.1564  0.2720  0.5614
 8316TIP3    H146363   3.150   4.134  16.300 -0.1170  0.5300  0.2046
 8316TIP3    H246364   3.091   4.080  16.428  0.3877  1.1102  0.6905
 8317TIP3   OH246365   0.761   4.046  15.896 -0.1821  0.1994 -0.1135
 8317TIP3    H146366   0.851   4.020  15.916  0.5117  1.3575 -1.5545
 8317TIP3    H246367   0.725   3.972  15.847 -0.3954 -0.7162  1.3751
 8318TIP3   OH246368   3.662   0.980  11.005 -0.3072 -0.3726  0.1800
 8318TIP3    H146369   3.745   1.021  10.980 -0.7912  0.9122  0.6070
 8318TIP3    H246370   3.669   0.890  10.974  1.5907 -0.5330  0.9414
 8319TIP3   OH246371   4.865   1.919  14.501  0.2027 -0.2588 -0.2703
 8319TIP3    H146372   4.864   1.828  14.530 -0.2923 -0.0091  0.5334
 8319TIP3    H246373   4.773   1.946  14.502  0.4183  0.4854  0.2749
 8320TIP3   OH246374   5.120   4.218  13.472  0.1413  0.0139 -0.1783
 8320TIP3    H146375   5.203   4.186  13.507  1.6014  2.5913 -1.0088
 8320TIP3    H246376   5.066   4.234  13.550  0.8560 -0.5518  0.4532
 8321TIP3   OH246377   1.461   2.714  16.617  0.3519  0.5594 -0.0262
 8321TIP3    H146378   1.476   2.679  16.529  3.0539  0.6657  0.3116
 8321TIP3    H246379   1.444   2.637  16.671  0.4760  0.3362 -0.3026
 8322TIP3   OH246380   1.254   1.903   4.175 -0.6607  0.2081 -0.2750
 8322TIP3    H146381   1.309   1.834   4.211 -0.3500 -0.0702 -1.2307
 8322TIP3    H246382   1.295   1.985   4.204 -0.1416 -0.0042 -0.3995
 8323TIP3   OH246383   4.351   5.949   1.945 -0.3980 -0.3844 -0.0610
 8323TIP3    H146384   4.301   5.949   1.864 -0.3785 -1.5023 -0.0758
 8323TIP3    H246385   4.388   5.861   1.952  2.7456  0.7447 -0.7631
 8324TIP3   OH246386   0.208   3.060  11.998  0.3970  0.1485  0.2475
 8324TIP3    H146387   0.150   3.082  11.925  0.1371 -0.5133  0.2495
 8324TIP3    H246388   0.269   3.133  12.002 -0.1573  0.6450 -0.0421
 8325TIP3   OH246389   4.697   4.621   5.753 -0.0911  0.0733 -0.3194
 8325TIP3    H146390   4.753   4.544   5.739 -0.8147 -0.4796 -0.2115
 8325TIP3    H246391   4.608   4.587   5.750 -0.4306  0.9482 -0.4770
 8326TIP3   OH246392   0.422   0.470  16.483 -0.4173  0.2745  0.3884
 8326TIP3    H146393   0.460   0.412  16.417 -0.5405  0.1830  0.3965
 8326TIP3    H246394   0.366   0.412  16.536  0.0811  0.2442  0.8926
 8327TIP3   OH246395   3.345   1.460   2.014  0.0948  0.1324 -0.2352
 8327TIP3    H146396   3.299   1.468   2.097 -1.3776  1.0812 -1.0904
 8327TIP3    H246397   3.425   1.412   2.035 -2.2789 -3.7793  0.9386
 8328TIP3   OH246398   5.439   5.150  13.148 -0.3366 -0.8149 -0.8086
 8328TIP3    H146399   5.476   5.125  13.232  0.8629 -1.2747 -1.4489
 8328TIP3    H246400   5.350   5.180  13.168  0.2467 -0.0540  0.7221
 8329TIP3   OH246401   2.271   5.706  12.009 -0.1964 -0.3449 -0.2459
 8329TIP3    H146402   2.330   5.770  11.969  1.3738 -1.6473 -0.1395
 8329TIP3    H246403   2.185   5.725  11.971  0.7637  0.0373 -2.4025
 8330TIP3   OH246404   0.895   1.176   0.073  0.2243  0.4809  0.5855
 8330TIP3    H146405   0.830   1.230   0.028 -1.1551  0.3100  2.2613
 8330TIP3    H246406   0.870   1.086   0.052  1.4457  0.4164 -0.7506
 8331TIP3   OH246407   6.640   6.749  11.212 -0.7523 -0.2295 -0.4772
 8331TIP3    H146408   6.583   6.699  11.155 -0.4555 -2.0106  0.7159
 8331TIP3    H246409   6.706   6.687  11.242  0.2264  1.1121  0.3030
 8332TIP3   OH246410   1.887   5.810   0.978  0.0406  0.3745  0.3353
 8332TIP3    H146411   1.864   5.766   1.060 -1.1041 -0.9871 -0.6505
 8332TIP3    H246412   1.839   5.892   0.980  0.3487  0.5534  1.1805
 8333TIP3   OH246413   0.548   4.106  17.170 -0.7043 -0.1061  0.1369
 8333TIP3    H146414   0.593   4.160  17.105 -1.1452  0.8946  0.6376
 8333TIP3    H246415   0.617   4.050  17.207 -0.7005 -1.7866 -2.2074
 8334TIP3   OH246416   2.700   0.559   1.526 -0.2314 -0.3760  0.2432
 8334TIP3    H146417   2.612   0.585   1.553 -0.4374 -1.3579  0.5435
 8334TIP3    H246418   2.696   0.554   1.431  0.1526  1.8585  0.0500
 8335TIP3   OH246419   2.118   0.435   2.381  0.1290 -0.5621  0.2989
 8335TIP3    H146420   2.165   0.473   2.455 -0.4730 -1.7089  1.3048
 8335TIP3    H246421   2.119   0.503   2.314 -0.0772  0.8589  1.6841
 8336TIP3   OH246422   6.664   2.652   4.090  0.1429 -0.0111  0.2312
 8336TIP3    H146423   6.571   2.671   4.078  0.4148  0.5380 -1.2378
 8336TIP3    H246424   6.689   2.605   4.011  1.1459 -0.0588  0.5639
 8337TIP3   OH246425   2.321   0.290   5.293  0.6414  0.3362 -0.0747
 8337TIP3    H146426   2.378   0.315   5.221  0.6076 -1.8188 -0.9292
 8337TIP3    H246427   2.381   0.258   5.361  0.5753  0.7281  0.1741
 8338TIP3   OH246428   5.323   0.703  14.059 -0.5237  0.3082  0.4717
 8338TIP3    H146429   5.289   0.622  14.022 -0.9547  0.4563  0.5453
 8338TIP3    H246430   5.410   0.679  14.092  0.5961  0.5260 -2.0557
 8339TIP3   OH246431   5.612   5.014  14.999  0.0194 -0.0626 -0.1907
 8339TIP3    H146432   5.629   5.107  15.012 -0.8938  0.0474  0.2815
 8339TIP3    H246433   5.632   4.998  14.907  0.5384  0.5166 -0.1831
 8340TIP3   OH246434   4.416   6.292  11.831  0.1268  0.4062 -0.0392
 8340TIP3    H146435   4.464   6.367  11.797  0.1900  0.5891  0.4524
 8340TIP3    H246436   4.409   6.308  11.925 -2.4539  1.3043 -0.2851
 8341TIP3   OH246437   4.555   5.701   5.377  0.1926  0.0157  0.2298
 8341TIP3    H146438   4.566   5.781   5.326 -0.7815 -0.4607 -0.7731
 8341TIP3    H246439   4.636   5.691   5.426  0.4316  1.4574  0.1397
 8342TIP3   OH246440   4.752   3.952   4.549 -0.6133 -0.6279 -0.1613
 8342TIP3    H146441   4.680   3.892   4.569  0.2899 -1.4541  0.6968
 8342TIP3    H246442   4.746   3.965   4.454 -1.5548 -1.1222 -0.1803
 8343TIP3   OH246443   2.338   6.708  16.655  0.1634 -0.2574 -0.0364
 8343TIP3    H146444   2.398   6.704  16.729 -1.2069 -1.8348  1.0498
 8343TIP3    H246445   2.293   6.792  16.665  1.0786  0.2447 -0.0013
 8344TIP3   OH246446   0.223   4.145   3.060  0.3608 -0.4272  0.3949
 8344TIP3    H146447   0.134   4.139   3.093  1.1394 -0.2159  2.6783
 8344TIP3    H246448   0.271   4.192   3.128  1.7548  1.4684 -1.7679
 8345TIP3   OH246449   1.783   3.161   5.703  0.0033 -0.1008 -0.1841
 8345TIP3    H146450   1.698   3.174   5.661 -1.6230 -0.1141  2.8629
 8345TIP3    H246451   1.815   3.078   5.667 -1.1073  0.0504 -1.6034
 8346TIP3   OH246452   4.245   5.199  16.541 -0.0060 -0.1995  0.5742
 8346TIP3    H146453   4.290   5.198  16.626  0.9034  2.2244  0.1986
 8346TIP3    H246454   4.315   5.218  16.478 -0.5942 -2.3384 -0.8174
 8347TIP3   OH246455   3.218   1.952  12.882  0.0418  0.3107  0.0182
 8347TIP3    H146456   3.314   1.957  12.885  0.1143 -1.0543  0.5310
 8347TIP3    H246457   3.188   2.038  12.911  1.0963 -0.1166  2.5915
 8348TIP3   OH246458   3.593   2.740  14.979 -0.3612 -0.0482 -0.4250
 8348TIP3    H146459   3.626   2.805  15.041 -2.5514 -1.6599  2.7113
 8348TIP3    H246460   3.499   2.759  14.973 -1.3252 -3.3128  1.4396
 8349TIP3   OH246461   6.530   0.748  13.122 -0.6927 -0.2309 -0.2370
 8349TIP3    H146462   6.486   0.690  13.184 -1.2218 -2.3416 -2.4347
 8349TIP3    H246463   6.537   0.696  13.042  0.1767  2.2689 -1.8876
 8350TIP3   OH246464   3.085   6.376  12.638 -0.2715  0.1018  0.2529
 8350TIP3    H146465   3.148   6.383  12.710  0.5358 -0.1683 -0.4024
 8350TIP3    H246466   3.042   6.461  12.635  0.0217  0.2728  0.7522
 8351TIP3   OH246467   3.352   2.302   5.380 -0.1041 -0.1782 -0.2189
 8351TIP3    H146468   3.445   2.292   5.357 -0.1089 -1.3109  0.2192
 8351TIP3    H246469   3.337   2.238   5.448 -0.5587  1.8389  1.6925
 8352TIP3   OH246470   2.405   6.199   4.651 -0.0415  0.7056  0.0264
 8352TIP3    H146471   2.446   6.229   4.569  0.0418  0.9445  0.1539
 8352TIP3    H246472   2.341   6.133   4.623  1.8701 -1.2275 -0.0091
 8353TIP3   OH246473   1.554   6.537   0.721  0.3255 -0.3542 -0.3682
 8353TIP3    H146474   1.548   6.464   0.659 -2.0007  1.2859 -2.2816
 8353TIP3    H246475   1.473   6.530   0.773 -0.4831  1.3884 -1.3148
 8354TIP3   OH246476   2.297   5.528  11.800 -0.2447 -0.1102  0.1016
 8354TIP3    H146477   2.265   5.618  11.792 -1.0906 -0.1428  2.3816
 8354TIP3    H246478   2.347   5.526  11.882  0.0936 -1.6229 -0.0941
 8355TIP3   OH246479   0.152   2.601  13.885  0.3772 -0.2280  0.0410
 8355TIP3    H146480   0.140   2.527  13.945  1.3792 -0.7302 -0.3607
 8355TIP3    H246481   0.240   2.634  13.905 -0.0060  0.7774  0.1177
 8356TIP3   OH246482   0.734   0.632   4.524  0.8136 -0.4725 -0.2179
 8356TIP3    H146483   0.761   0.630   4.616 -1.6174 -2.0248  0.5439
 8356TIP3    H246484   0.714   0.724   4.507  2.9470  0.1417  0.2043
 8357TIP3   OH246485   2.598   4.997   1.739 -0.3420 -0.0050  0.0062
 8357TIP3    H146486   2.581   4.906   1.765 -2.1810 -0.1363 -1.4324
 8357TIP3    H246487   2.674   4.991   1.681  0.3297 -0.4320  0.9050
 8358TIP3   OH246488   1.924   1.449   0.027 -0.1267 -0.4808 -0.2468
 8358TIP3    H146489   1.902   1.416  -0.061  1.3851 -0.0294 -0.8336
 8358TIP3    H246490   2.006   1.404   0.049 -1.4278 -2.0162  1.7790
 8359TIP3   OH246491   0.927   1.529  15.216 -0.5834  0.4224  0.7275
 8359TIP3    H146492   0.937   1.444  15.260  0.5141  1.4297  2.5276
 8359TIP3    H246493   0.832   1.538  15.203 -0.7099 -1.1613  0.2414
 8360TIP3   OH246494   4.255   1.565   4.719  0.2025  0.5142 -0.1045
 8360TIP3    H146495   4.177   1.515   4.695  0.9335  0.0865 -1.7876
 8360TIP3    H246496   4.269   1.547   4.812 -1.6574  0.5779  0.2184
 8361TIP3   OH246497   3.929   5.661   2.018 -0.2280  0.2364  0.6288
 8361TIP3    H146498   3.836   5.660   2.040 -0.4036 -0.0364 -0.1080
 8361TIP3    H246499   3.941   5.741   1.966 -0.0894  0.1831  0.5768
 8362TIP3   OH246500   5.738   2.928   3.263 -0.9055  0.0553 -0.0954
 8362TIP3    H146501   5.753   3.014   3.223 -0.4509 -0.4444 -1.0360
 8362TIP3    H246502   5.798   2.926   3.338 -1.5504  0.8905  0.4564
 8363TIP3   OH246503   6.733   2.854  14.205  0.4256  0.5456 -0.1988
 8363TIP3    H146504   6.727   2.902  14.287 -0.8552 -0.4683  0.3336
 8363TIP3    H246505   6.769   2.768  14.229 -0.8602 -0.1112 -0.5107
 8364TIP3   OH246506   6.026   3.399   6.607  0.1715  0.0481 -0.2146
 8364TIP3    H146507   5.954   3.349   6.645  0.6153 -0.5616 -0.1611
 8364TIP3    H246508   5.984   3.467   6.555 -0.4403 -0.1132  0.0692
 8365TIP3   OH246509   0.232   0.427  10.444  0.4099 -0.4067  0.2054
 8365TIP3    H146510   0.276   0.405  10.526  0.8996  0.9493  0.3309
 8365TIP3    H246511   0.298   0.472  10.391  0.1455 -1.4046 -1.0151
 8366TIP3   OH246512   6.119   4.424   0.235  0.1132  0.6460 -0.4099
 8366TIP3    H146513   6.080   4.342   0.264  1.1876  0.4296  0.4972
 8366TIP3    H246514   6.213   4.410   0.242  0.3154  2.0126 -0.0570
 8367TIP3   OH246515   4.437   5.299   4.117  0.2698 -0.3615  0.2232
 8367TIP3    H146516   4.460   5.364   4.183  1.9385 -0.6624 -0.0149
 8367TIP3    H246517   4.493   5.319   4.043 -0.6702 -0.8135 -0.6308
 8368TIP3   OH246518   6.769   3.622  14.856 -0.5780  0.2839 -0.4880
 8368TIP3    H146519   6.690   3.623  14.910 -1.1681  0.5394 -1.3460
 8368TIP3    H246520   6.772   3.533  14.821  1.6958 -1.0611  2.6450
 8369TIP3   OH246521   2.165   1.118  12.928 -0.3925  0.0774  0.9948
 8369TIP3    H146522   2.189   1.078  13.012 -0.7772  0.1070  1.1230
 8369TIP3    H246523   2.072   1.137  12.937 -0.6582 -0.7667  0.2223
 8370TIP3   OH246524   6.022   5.118  13.333  0.5338 -0.3258 -0.4715
 8370TIP3    H146525   6.035   5.212  13.342 -1.1545  0.0139 -1.1622
 8370TIP3    H246526   5.975   5.093  13.412  1.2505 -0.6632 -0.1441
 8371TIP3   OH246527   5.466   1.813   2.412 -0.2213 -0.1923  0.4896
 8371TIP3    H146528   5.523   1.736   2.404  1.2031  0.7457  1.0801
 8371TIP3    H246529   5.430   1.825   2.325 -0.4616 -1.5152  0.3837
 8372TIP3   OH246530   3.813   2.923  13.784  0.0500 -0.6668 -1.1120
 8372TIP3    H146531   3.839   2.999  13.836  0.3258 -1.4140 -0.1295
 8372TIP3    H246532   3.729   2.949  13.745 -0.5659 -0.3689  0.3485
 8373TIP3   OH246533   6.380   6.467  10.839  0.3179  0.1239 -0.2394
 8373TIP3    H146534   6.327   6.414  10.897  1.9349 -1.2944  0.0188
 8373TIP3    H246535   6.386   6.552  10.883 -2.5717  0.7439 -0.8269
 8374TIP3   OH246536   3.130   3.880   2.808 -0.1722 -0.9654 -0.0702
 8374TIP3    H146537   3.159   3.966   2.838  1.2536 -2.0478  1.9150
 8374TIP3    H246538   3.035   3.885   2.808 -0.1223  0.3313  0.9336
 8375TIP3   OH246539   2.108   0.396  11.826 -0.2848 -0.1790  0.3223
 8375TIP3    H146540   2.164   0.463  11.863 -0.6413  0.2797  0.0483
 8375TIP3    H246541   2.025   0.404  11.874 -1.0234  0.9484 -1.0702
 8376TIP3   OH246542   4.960   0.401  11.742  0.0535  0.1015  0.3739
 8376TIP3    H146543   4.914   0.484  11.760  0.4671  0.1797  1.1151
 8376TIP3    H246544   5.005   0.381  11.824 -1.4505 -1.7788  0.8077
 8377TIP3   OH246545   0.125   0.270  14.960 -0.2591 -0.3071  0.8021
 8377TIP3    H146546   0.110   0.192  14.908  0.8465  0.1998 -0.3320
 8377TIP3    H246547   0.219   0.268  14.980 -0.8248 -1.1922  4.0024
 8378TIP3   OH246548   0.355   2.172  16.210  0.2353 -0.2461  0.0883
 8378TIP3    H146549   0.266   2.203  16.189  0.3057  0.7502  1.1356
 8378TIP3    H246550   0.361   2.180  16.305  1.8602  0.8816 -0.0721
 8379TIP3   OH246551   1.884   4.682   3.998 -0.4430  0.7703  0.9324
 8379TIP3    H146552   1.915   4.641   4.079 -1.4193 -0.0092  0.9208
 8379TIP3    H246553   1.839   4.612   3.951 -3.5779  2.1637  1.6419
 8380TIP3   OH246554   4.922   0.772  13.975 -0.1275  0.3646 -0.1216
 8380TIP3    H146555   4.988   0.815  14.030  1.4446 -0.0287 -1.6277
 8380TIP3    H246556   4.932   0.679  13.995 -1.3673  0.4026  0.8105
 8381TIP3   OH246557   0.010   4.405   1.360 -0.5547 -0.2863 -0.1506
 8381TIP3    H146558   0.007   4.330   1.420 -2.0102  0.5119  0.8399
 8381TIP3    H246559  -0.050   4.381   1.290  0.5535 -0.8849 -0.9339
 8382TIP3   OH246560   0.882   4.881   3.462 -0.1229  0.0689  0.8124
 8382TIP3    H146561   0.798   4.852   3.426 -0.0361  0.4482  0.2821
 8382TIP3    H246562   0.933   4.800   3.474 -0.1609 -0.0719  0.0788
 8383TIP3   OH246563   5.126   0.730   1.102  0.1945 -0.1509  0.4772
 8383TIP3    H146564   5.203   0.703   1.151 -1.0287 -1.5439  1.7315
 8383TIP3    H246565   5.053   0.723   1.164 -0.6474  4.1231  0.3175
 8384TIP3   OH246566   2.588   3.778  14.027  0.0724  0.5331  0.3922
 8384TIP3    H146567   2.553   3.733  13.951  1.5933 -0.6883  0.3725
 8384TIP3    H246568   2.513   3.826  14.064 -0.7711  0.8208 -1.6060
 8385TIP3   OH246569   6.393   5.639   1.617 -0.3315  0.0864  0.0441
 8385TIP3    H146570   6.414   5.732   1.628  1.8078 -0.2902 -0.4243
 8385TIP3    H246571   6.378   5.607   1.706 -0.3067  0.7172  0.2764
 8386TIP3   OH246572   0.399   3.143   6.048  0.9223  0.6203 -0.3975
 8386TIP3    H146573   0.364   3.124   6.135 -0.6119 -0.6770 -1.2493
 8386TIP3    H246574   0.327   3.189   6.003  0.2231 -2.0007 -2.1597
 8387TIP3   OH246575   4.707   2.992  14.232 -1.0455 -0.1818  0.0178
 8387TIP3    H146576   4.695   2.952  14.318  1.8219 -0.5185  0.3613
 8387TIP3    H246577   4.618   2.997  14.195 -2.0789 -2.2569  1.9790
 8388TIP3   OH246578   2.426   5.807   1.895  0.2118 -0.3407  0.2420
 8388TIP3    H146579   2.510   5.855   1.894 -0.0638  0.1600 -0.8010
 8388TIP3    H246580   2.369   5.860   1.950 -0.0807  0.5747 -0.8784
 8389TIP3   OH246581   6.057   0.315  12.010 -0.5116  0.2683 -0.0816
 8389TIP3    H146582   6.024   0.371  12.080  1.1933 -1.0805  1.9011
 8389TIP3    H246583   6.022   0.355  11.930 -3.4140  1.2798  1.5302
 8390TIP3   OH246584   5.819   4.860  15.094 -0.4962  0.2185  0.0650
 8390TIP3    H146585   5.739   4.900  15.061  0.5410  0.5687 -2.2009
 8390TIP3    H246586   5.883   4.873  15.024  1.8210  0.7477  2.1559
 8391TIP3   OH246587   3.274   6.492   5.383  0.0704 -0.2778 -0.1178
 8391TIP3    H146588   3.345   6.556   5.382  0.5774 -0.8357 -1.3683
 8391TIP3    H246589   3.205   6.532   5.329 -0.4304  0.1039  0.7930
 8392TIP3   OH246590   1.750   5.134   2.841  0.1651 -0.0363 -0.0488
 8392TIP3    H146591   1.792   5.107   2.923 -0.8229 -0.1246  0.4346
 8392TIP3    H246592   1.742   5.229   2.849 -0.4735 -0.1099  0.2230
 8393TIP3   OH246593   1.031   0.574  14.285  0.4081 -0.1298 -0.8243
 8393TIP3    H146594   1.077   0.543  14.363 -0.2093 -0.2679 -0.5090
 8393TIP3    H246595   1.100   0.610  14.229  1.1261 -1.9016 -1.1287
 8394TIP3   OH246596   2.074   1.818  17.066  0.6074  0.7984 -0.1110
 8394TIP3    H146597   2.073   1.750  17.134  0.3656  0.5229 -0.3826
 8394TIP3    H246598   2.098   1.898  17.112  4.1917 -0.0162 -0.3157
 8395TIP3   OH246599   3.064   3.792  14.656  0.4427  0.5227  0.3973
 8395TIP3    H146600   3.073   3.813  14.563 -0.0247  0.1387  0.2613
 8395TIP3    H246601   2.972   3.766  14.666  0.1225  1.8603  1.2279
 8396TIP3   OH246602   0.867   3.232   2.895 -0.0949  0.2793 -0.4055
 8396TIP3    H146603   0.939   3.277   2.851  0.6405 -0.1505  0.3262
 8396TIP3    H246604   0.910   3.174   2.958 -1.1056  0.7135  0.7271
 8397TIP3   OH246605   4.239   2.402  14.807  0.1948 -0.0905 -0.1799
 8397TIP3    H146606   4.159   2.437  14.846  0.6328 -1.0060  1.6744
 8397TIP3    H246607   4.211   2.364  14.724 -1.1791  0.1535  0.1506
 8398TIP3   OH246608   2.965   6.259  16.784  0.0154 -0.0370  0.3663
 8398TIP3    H146609   2.880   6.246  16.742 -0.6698 -0.9953  1.9225
 8398TIP3    H246610   3.029   6.236  16.717 -1.0180 -1.4365 -0.1965
 8399TIP3   OH246611   0.026   3.458   4.552  0.6700 -0.2117  0.4206
 8399TIP3    H146612  -0.016   3.539   4.583  1.9577  0.6051  0.0814
 8399TIP3    H246613   0.100   3.488   4.500  1.3610 -1.6227  0.5571
 8400TIP3   OH246614   3.512   4.943   5.333  0.0191  0.4385 -0.0940
 8400TIP3    H146615   3.521   4.920   5.426 -0.4143  0.0287 -0.1497
 8400TIP3    H246616   3.593   4.911   5.293 -0.6669 -1.2792 -0.2143
 8401TIP3   OH246617   6.269   0.931   3.888 -0.3439 -0.4352  0.9771
 8401TIP3    H146618   6.293   0.848   3.846 -0.0313  0.5629 -0.9377
 8401TIP3    H246619   6.294   0.919   3.980  0.2085 -2.2517  0.6406
 8402TIP3   OH246620   1.489   0.145  16.512  0.7470  0.1294 -0.1119
 8402TIP3    H146621   1.412   0.198  16.533  1.0101 -0.5725  3.2127
 8402TIP3    H246622   1.557   0.208  16.491  0.0229  0.8986 -0.1877
 8403TIP3   OH246623   2.735   1.477  15.212  0.3102  0.1582  0.4556
 8403TIP3    H146624   2.642   1.465  15.193  0.5920 -0.5399 -0.5225
 8403TIP3    H246625   2.747   1.439  15.299 -0.1191 -0.6548  0.1629
 8404TIP3   OH246626   0.613   0.163   2.578  0.4256  0.1443 -0.9005
 8404TIP3    H146627   0.613   0.071   2.607  1.0224  0.2841 -0.4503
 8404TIP3    H246628   0.539   0.168   2.518 -0.0521 -0.4622 -0.3860
 8405TIP3   OH246629   5.110   3.344  15.022  0.2998  0.1828 -0.5358
 8405TIP3    H146630   5.189   3.396  15.039  0.4750 -0.1693 -0.2782
 8405TIP3    H246631   5.126   3.260  15.065 -1.0689  0.8042  1.2823
 8406TIP3   OH246632   6.052   1.847  10.943  0.0420  0.3371  0.1723
 8406TIP3    H146633   6.074   1.892  10.862 -2.0816 -0.2960 -0.8363
 8406TIP3    H246634   5.960   1.822  10.933 -0.1545 -0.2276  2.5711
 8407TIP3   OH246635   6.289   5.754  11.324 -0.3064 -0.0595 -0.1363
 8407TIP3    H146636   6.320   5.800  11.402 -0.6683  1.1690 -0.6820
 8407TIP3    H246637   6.365   5.749  11.266  0.2540 -1.9500  0.6954
 8408TIP3   OH246638   3.489   3.346  10.820 -0.6768  0.3449  0.2314
 8408TIP3    H146639   3.425   3.414  10.798 -1.9423 -0.8123  0.2044
 8408TIP3    H246640   3.441   3.264  10.811  0.7542 -0.5553  0.4835
 8409TIP3   OH246641   6.591   2.877   6.139  0.0970 -0.0490 -1.0613
 8409TIP3    H146642   6.618   2.863   6.229  0.4063  1.3254 -0.9230
 8409TIP3    H246643   6.662   2.840   6.086 -0.3108 -1.3039 -0.7840
 8410TIP3   OH246644   5.634   2.615  14.909 -0.3600 -0.3113 -0.4601
 8410TIP3    H146645   5.594   2.676  14.970 -1.3428  2.0478 -3.2316
 8410TIP3    H246646   5.634   2.661  14.825  1.8245 -2.9437 -2.0789
 8411TIP3   OH246647   3.205   2.585  11.512  0.0251 -0.1234  0.0840
 8411TIP3    H146648   3.290   2.569  11.552  0.3061 -2.1165 -1.1706
 8411TIP3    H246649   3.195   2.681  11.513  1.5996  0.0628  1.5577
 8412TIP3   OH246650   2.142   5.813  15.993 -0.3305 -0.2205  0.2744
 8412TIP3    H146651   2.221   5.831  15.942 -0.1116  0.5019  0.8497
 8412TIP3    H246652   2.072   5.809  15.928 -0.3493  2.4487  0.0334
 8413TIP3   OH246653   1.063   4.623  15.236 -0.1159  0.2524  0.2178
 8413TIP3    H146654   1.046   4.698  15.178  1.4008  0.4676  0.0091
 8413TIP3    H246655   0.980   4.575  15.238 -1.9735  3.1823  2.2524
 8414TIP3   OH246656   2.463   6.342  14.616  0.2961  0.3330  0.0244
 8414TIP3    H146657   2.516   6.419  14.639 -0.2386  1.0902 -1.1833
 8414TIP3    H246658   2.374   6.377  14.606 -0.3277 -0.7985  1.3513
 8415TIP3   OH246659   6.144   1.865  14.407 -0.1979  0.1888  0.3452
 8415TIP3    H146660   6.189   1.947  14.383  1.4627 -0.7134  0.2133
 8415TIP3    H246661   6.094   1.887  14.485 -0.7272  1.6162 -0.3591
 8416TIP3   OH246662   3.823   4.107   0.489 -0.1196 -0.2352 -0.1157
 8416TIP3    H146663   3.870   4.077   0.412 -1.3847  0.6490 -1.2721
 8416TIP3    H246664   3.806   4.028   0.540  3.7540 -0.4786  1.1043
 8417TIP3   OH246665   3.226   2.070   2.278 -0.0939 -0.1996 -0.7038
 8417TIP3    H146666   3.237   1.975   2.281 -0.1379 -0.2298 -1.2384
 8417TIP3    H246667   3.219   2.097   2.369 -0.8911 -0.8111 -0.5672
 8418TIP3   OH246668   1.543   2.427  17.020  0.3675  0.4987 -0.3646
 8418TIP3    H146669   1.523   2.400  17.110  2.5767 -0.1771 -0.0249
 8418TIP3    H246670   1.637   2.446  17.021  0.8810 -1.3678 -2.9687
 8419TIP3   OH246671   2.225   4.329  17.081  0.1590  0.1645  0.1691
 8419TIP3    H146672   2.146   4.375  17.054  0.1650 -0.2611 -0.5878
 8419TIP3    H246673   2.248   4.273  17.007  2.0941  1.4537 -0.2991
 8420TIP3   OH246674   5.189   3.477  16.126 -0.0356 -0.1211  0.5278
 8420TIP3    H146675   5.279   3.511  16.127  0.1109 -0.3272 -1.3202
 8420TIP3    H246676   5.134   3.555  16.130  0.2471  0.0929  0.2969
 8421TIP3   OH246677   1.696   6.265  15.170  0.5140 -0.2609  0.2790
 8421TIP3    H146678   1.608   6.233  15.192  0.9969 -0.3397  2.3618
 8421TIP3    H246679   1.685   6.359  15.157  0.3466  0.0886  2.4619
 8422TIP3   OH246680   3.432   2.668  15.439  0.6913 -0.3100 -0.0994
 8422TIP3    H146681   3.351   2.699  15.399  0.3632 -0.1187  0.6953
 8422TIP3    H246682   3.403   2.605  15.505  1.2087 -0.4139  0.0322
 8423TIP3   OH246683   4.024   0.513  12.181 -0.3602 -0.3121 -0.4334
 8423TIP3    H146684   3.966   0.563  12.123  1.0398 -0.0084 -1.6293
 8423TIP3    H246685   4.047   0.575  12.250 -0.2988  0.0410 -0.7626
 8424TIP3   OH246686   6.700   2.718  13.956 -0.1309  0.2671 -0.4275
 8424TIP3    H146687   6.702   2.778  14.031 -1.3871  1.9229 -1.6203
 8424TIP3    H246688   6.787   2.680  13.954  0.8518  2.3007  0.2507
 8425TIP3   OH246689   4.565   4.299   4.445 -0.2678 -0.1188  0.2880
 8425TIP3    H146690   4.548   4.324   4.354 -0.4385 -1.3781 -0.0418
 8425TIP3    H246691   4.529   4.211   4.453  2.4903 -1.3357  0.6658
 8426TIP3   OH246692   5.540   1.991   2.958  0.3146 -0.2363  0.4973
 8426TIP3    H146693   5.469   1.929   2.945 -0.6779  1.1029 -0.8275
 8426TIP3    H246694   5.602   1.971   2.888  0.4770 -0.3789  0.6818
 8427TIP3   OH246695   5.426   2.112  14.783 -0.4117  0.4925 -0.1456
 8427TIP3    H146696   5.402   2.075  14.868  0.3158 -0.4022 -0.3083
 8427TIP3    H246697   5.451   2.202  14.803  1.5675 -0.2304  0.9308
 8428TIP3   OH246698   4.276   1.231   4.680 -1.0910  0.2917  0.0367
 8428TIP3    H146699   4.243   1.141   4.684 -1.3301  0.3759 -0.0441
 8428TIP3    H246700   4.284   1.257   4.772  0.9428 -0.5248  0.1294
 8429TIP3   OH246701   1.705   5.126   2.567  0.5021  0.1981  0.3527
 8429TIP3    H146702   1.759   5.068   2.514  0.0690 -1.6662  1.8655
 8429TIP3    H246703   1.733   5.110   2.657 -1.5509  0.2618  1.0466
 8430TIP3   OH246704   6.535   6.345   3.956 -0.2827 -0.1594  0.0389
 8430TIP3    H146705   6.457   6.391   3.988 -0.5507  2.5366 -3.7842
 8430TIP3    H246706   6.600   6.355   4.025 -2.2970  0.4120  1.9541
 8431TIP3   OH246707   3.864   5.111   3.273 -0.3172  0.0463  0.1873
 8431TIP3    H146708   3.932   5.163   3.316 -1.1280 -0.3623  2.1097
 8431TIP3    H246709   3.903   5.083   3.191  1.8602 -0.1743  1.2230
 8432TIP3   OH246710   4.992   6.053   0.051 -0.5109  0.8189 -0.0061
 8432TIP3    H146711   4.931   6.047  -0.023 -0.5690 -0.0117  0.0938
 8432TIP3    H246712   5.013   6.146   0.058 -0.1461  0.8669 -1.3587
 8433TIP3   OH246713   1.702   5.616  13.271 -0.3647 -0.0902  0.7286
 8433TIP3    H146714   1.709   5.668  13.191 -0.8141  0.8098  1.2645
 8433TIP3    H246715   1.610   5.623  13.297 -0.2160 -0.3439  1.3482
 8434TIP3   OH246716   6.135   1.865  10.621  0.1167  0.4415 -0.2124
 8434TIP3    H146717   6.178   1.934  10.671  1.0672 -0.1067 -0.2460
 8434TIP3    H246718   6.190   1.853  10.544 -1.0577  0.9213 -1.1603
 8435TIP3   OH246719   5.688   1.308   4.351  0.2941  0.1489  0.2372
 8435TIP3    H146720   5.727   1.272   4.431 -0.6347 -1.9248 -0.1752
 8435TIP3    H246721   5.757   1.300   4.285  0.8313  1.2333  0.6379
 8436TIP3   OH246722   1.735   5.926  13.585  0.7015  0.0331 -0.3405
 8436TIP3    H146723   1.815   5.873  13.578  0.9407  0.5236 -1.6199
 8436TIP3    H246724   1.767   6.016  13.590  0.2456  0.1862 -0.1573
 8437TIP3   OH246725   5.288   3.192  16.614 -0.4670 -0.1869 -0.1978
 8437TIP3    H146726   5.222   3.210  16.681 -0.1881  1.8869 -0.4327
 8437TIP3    H246727   5.240   3.199  16.531 -0.2141  0.1247 -0.3182
 8438TIP3   OH246728   0.183   2.694  11.747  0.2848  0.4048  0.2226
 8438TIP3    H146729   0.218   2.757  11.810 -0.0880 -1.6460  2.6453
 8438TIP3    H246730   0.248   2.691  11.677  1.6533  1.4729  1.3992
 8439TIP3   OH246731   2.169   6.198   2.513 -0.3328  0.3506  0.3390
 8439TIP3    H146732   2.098   6.147   2.473  0.8708 -0.9548 -0.2399
 8439TIP3    H246733   2.147   6.200   2.607 -0.7381 -0.7092  0.2830
 8440TIP3   OH246734   5.949   2.119  15.563  0.2018 -0.0846  0.5488
 8440TIP3    H146735   5.892   2.101  15.638 -1.0630  3.5545  0.6699
 8440TIP3    H246736   5.933   2.212  15.543 -0.3878 -1.0394 -4.9498
 8441TIP3   OH246737   0.583   3.952  12.697  0.6816  0.0555 -0.3400
 8441TIP3    H146738   0.497   3.961  12.738  1.3471 -3.6820  2.4289
 8441TIP3    H246739   0.564   3.920  12.609 -0.7318  2.2890 -0.9154
 8442TIP3   OH246740   2.992   1.275  12.041  0.3786  0.1825 -0.4000
 8442TIP3    H146741   3.059   1.214  12.072  1.8903  2.3912  0.9428
 8442TIP3    H246742   3.042   1.345  11.998 -1.1116  1.4763 -0.1207
 8443TIP3   OH246743   0.675   6.042  15.276  0.0554 -0.1780 -0.2156
 8443TIP3    H146744   0.767   6.066  15.270 -0.1625  0.8614  0.4347
 8443TIP3    H246745   0.636   6.109  15.331 -0.8901 -1.1852  0.3867
 8444TIP3   OH246746   4.854   4.848   1.832  0.6194  0.1358  0.2427
 8444TIP3    H146747   4.798   4.793   1.886 -0.3171 -1.1690 -1.9398
 8444TIP3    H246748   4.827   4.937   1.853 -1.5869 -0.4278 -0.0132
 8445TIP3   OH246749   3.039   5.167   2.289  0.3245 -0.7899 -0.1590
 8445TIP3    H146750   3.020   5.147   2.380  0.5372 -1.7780 -0.3216
 8445TIP3    H246751   3.103   5.101   2.262 -0.8983 -1.5306 -1.4612
 8446TIP3   OH246752   6.247   1.776   0.090 -0.5831 -0.1089 -0.0208
 8446TIP3    H146753   6.169   1.831   0.085  0.0242  0.7318 -0.5165
 8446TIP3    H246754   6.233   1.721   0.167 -1.6064  0.1107 -0.0430
 8447TIP3   OH246755   6.624   5.376   5.400  0.2159  0.2188  0.2176
 8447TIP3    H146756   6.675   5.346   5.475  1.6544  2.0584  0.0222
 8447TIP3    H246757   6.555   5.430   5.439  1.5874  2.0522  0.2310
 8448TIP3   OH246758   1.961   6.365  16.347 -0.5068 -0.0027 -0.3607
 8448TIP3    H146759   2.016   6.439  16.322  1.1770 -0.5138  1.5373
 8448TIP3    H246760   1.924   6.389  16.432  1.3086 -1.8459  1.0548
 8449TIP3   OH246761   0.428   6.260   4.191  0.2711  0.1067 -0.2125
 8449TIP3    H146762   0.460   6.172   4.209  0.0736  0.3942  1.7529
 8449TIP3    H246763   0.377   6.252   4.110  0.0454 -1.6360  0.0818
 8450TIP3   OH246764   0.130   6.219  14.877 -0.2250  0.3228 -0.1040
 8450TIP3    H146765   0.112   6.137  14.833  0.8083 -0.0200  0.0823
 8450TIP3    H246766   0.133   6.196  14.970 -0.5205  0.6895  0.0008
 8451TIP3   OH246767   3.557   5.305   1.060 -0.1397  0.2914  0.1623
 8451TIP3    H146768   3.549   5.373   0.993 -0.2551  0.9194  0.8034
 8451TIP3    H246769   3.469   5.297   1.096 -1.0471 -2.7664 -2.3228
 8452TIP3   OH246770   5.306   3.699   5.958  0.2235  0.2058 -0.2996
 8452TIP3    H146771   5.315   3.779   6.010 -0.6142 -1.3080  2.3652
 8452TIP3    H246772   5.393   3.685   5.921  0.6157  1.8589 -0.1065
 8453TIP3   OH246773   2.575   5.488  10.704 -0.4060  0.1887 -0.1800
 8453TIP3    H146774   2.515   5.538  10.649 -1.0766  0.0870  0.4557
 8453TIP3    H246775   2.594   5.546  10.778  0.7309  0.4481 -0.6456
 8454TIP3   OH246776   3.971   6.407   3.417 -0.5523  0.4047 -0.1035
 8454TIP3    H146777   4.012   6.490   3.392 -0.1670 -0.1900 -1.5667
 8454TIP3    H246778   3.888   6.432   3.456 -0.1705  1.4996  0.0495
 8455TIP3   OH246779   1.884   5.848   5.038  0.2059  0.7514 -0.0745
 8455TIP3    H146780   1.913   5.863   5.128 -2.1523 -0.6271  1.0159
 8455TIP3    H246781   1.838   5.928   5.014  1.3124  1.3425 -0.3179
 8456TIP3   OH246782   6.064   0.313   0.060 -0.1227 -0.0149  0.2826
 8456TIP3    H146783   6.041   0.304   0.152  0.8578 -0.1043  0.5292
 8456TIP3    H246784   6.154   0.348   0.061 -0.5744  1.2406 -0.6405
 8457TIP3   OH246785   6.577   5.703  13.397 -0.0437  0.4184 -0.5556
 8457TIP3    H146786   6.636   5.738  13.464 -2.0525  0.1102  1.5244
 8457TIP3    H246787   6.537   5.780  13.357 -0.9205  0.6101  0.6428
 8458TIP3   OH246788   0.995   5.190  11.855 -0.3504 -0.4821 -0.3806
 8458TIP3    H146789   0.924   5.201  11.919 -0.1090 -0.0600 -0.1832
 8458TIP3    H246790   1.069   5.237  11.893  0.2149 -1.4100 -0.3058
 8459TIP3   OH246791   5.011   1.987   6.190  0.2788 -0.1992 -0.9907
 8459TIP3    H146792   5.019   1.901   6.231  0.9507 -0.0812 -0.8596
 8459TIP3    H246793   5.009   2.048   6.264 -3.4053 -0.2441 -0.8676
 8460TIP3   OH246794   3.662   1.320   4.885 -0.1602  0.5844 -0.1231
 8460TIP3    H146795   3.715   1.398   4.904  0.9881 -0.4424  1.0630
 8460TIP3    H246796   3.576   1.355   4.862  0.7030  2.2566 -1.0102
 8461TIP3   OH246797   6.526   3.942  17.094  0.0867  0.3210  0.1661
 8461TIP3    H146798   6.517   4.030  17.130 -0.7927 -0.5506  2.2789
 8461TIP3    H246799   6.616   3.916  17.114  2.7303  2.8138 -5.9459
 8462TIP3   OH246800   1.169   0.819  16.795 -0.4031  0.2477 -0.0046
 8462TIP3    H146801   1.253   0.776  16.783 -0.9519 -0.4761 -1.5634
 8462TIP3    H246802   1.153   0.863  16.711 -1.3935  0.7215  0.4161
 8463TIP3   OH246803   1.305   3.813  14.097  0.1789  0.4476 -0.0516
 8463TIP3    H146804   1.280   3.769  14.178 -1.3517  1.8338  0.2635
 8463TIP3    H246805   1.236   3.791  14.035  1.1542 -0.3091 -0.9182
 8464TIP3   OH246806   5.562   6.159   2.815 -0.0623  0.3413  0.3677
 8464TIP3    H146807   5.524   6.243   2.791 -1.1150 -0.1919  0.1132
 8464TIP3    H246808   5.503   6.124   2.882  0.4470 -0.1310  0.5791
 8465TIP3   OH246809   2.686   2.476  12.871 -0.4055 -0.0819 -0.1190
 8465TIP3    H146810   2.709   2.569  12.871 -3.3819  0.7661  1.1901
 8465TIP3    H246811   2.769   2.430  12.858  0.8133  2.7492 -4.4936
 8466TIP3   OH246812   1.008   6.525  16.540 -0.1943  0.1596 -0.2585
 8466TIP3    H146813   1.062   6.540  16.463  0.4933 -0.3080  0.1197
 8466TIP3    H246814   1.071   6.507  16.610 -0.8082  0.4931  0.3905
 8467TIP3   OH246815   6.326   6.305  14.359 -0.5265  0.5412  0.8056
 8467TIP3    H146816   6.419   6.283  14.350 -0.3106  1.3536  0.9892
 8467TIP3    H246817   6.319   6.394  14.325 -1.3388  0.2935  0.3067
 8468TIP3   OH246818   3.587   3.410  13.575  0.3278  0.0421 -0.0093
 8468TIP3    H146819   3.504   3.365  13.559  0.3410 -0.2684  0.7486
 8468TIP3    H246820   3.562   3.502  13.585  0.3258  0.2862 -1.7845
 8469TIP3   OH246821   4.929   1.263  11.991 -0.2814 -0.0969 -0.2212
 8469TIP3    H146822   4.961   1.282  12.080 -0.2480 -2.5630  0.3623
 8469TIP3    H246823   4.864   1.331  11.974  3.0271  3.4071 -0.3100
 8470TIP3   OH246824   0.660   1.506  16.529 -0.1706  0.6541  0.0028
 8470TIP3    H146825   0.603   1.430  16.531  1.5667 -0.7255  0.0585
 8470TIP3    H246826   0.744   1.473  16.562  0.5518  2.6745  0.3095
 8471TIP3   OH246827   2.242   6.709  11.292 -0.1387  0.0421  0.8914
 8471TIP3    H146828   2.283   6.747  11.215  1.0814 -2.5354  0.1367
 8471TIP3    H246829   2.156   6.678  11.261  0.2788 -0.8330  0.5625
 8472TIP3   OH246830   4.789   2.774   6.042  0.1262  0.2918 -0.2387
 8472TIP3    H146831   4.765   2.833   5.970  0.6901  0.3159 -0.4102
 8472TIP3    H246832   4.763   2.821   6.121  1.6253  1.2906 -0.3114
 8473TIP3   OH246833   0.026   3.350   3.061  0.3206  0.2305  0.2302
 8473TIP3    H146834   0.012   3.267   3.105  0.2443  0.4838  0.6920
 8473TIP3    H246835   0.083   3.329   2.987  0.3749 -0.2151  0.3967
 8474TIP3   OH246836   0.847   3.664  14.338 -0.0482 -0.1315 -0.0260
 8474TIP3    H146837   0.811   3.676  14.251 -0.8049 -0.8655  0.1791
 8474TIP3    H246838   0.920   3.727  14.343 -0.9241  0.9681 -0.6480
 8475TIP3   OH246839   1.126   3.629  13.335 -0.4391  0.2286 -0.0266
 8475TIP3    H146840   1.169   3.714  13.319  0.7547 -0.5923 -1.4985
 8475TIP3    H246841   1.196   3.573  13.367 -1.2074 -0.2463  0.8517
 8476TIP3   OH246842   0.098   0.670   6.011  0.3624  0.2648 -0.1702
 8476TIP3    H146843   0.035   0.664   6.083 -0.0385  1.7322 -0.3637
 8476TIP3    H246844   0.060   0.617   5.942 -0.0841  0.2012  0.1173
 8477TIP3   OH246845   4.449   6.449   3.290 -0.4873 -0.0474  0.3054
 8477TIP3    H146846   4.506   6.472   3.217 -2.0846  0.1424 -0.9573
 8477TIP3    H246847   4.497   6.476   3.368  0.5519  1.3803 -0.7779
 8478TIP3   OH246848   6.581   1.967  11.470 -0.4956 -0.2310  0.5436
 8478TIP3    H146849   6.660   1.920  11.496 -0.2607 -0.1447  0.0060
 8478TIP3    H246850   6.613   2.047  11.427 -0.8868  0.6761  1.8493
 8479TIP3   OH246851   2.860   0.082   6.145 -0.6474 -0.8047 -0.0108
 8479TIP3    H146852   2.881   0.009   6.203  1.2572 -0.9867 -0.8652
 8479TIP3    H246853   2.770   0.064   6.116 -0.6867 -2.0796  0.8394
 8480TIP3   OH246854   6.715   5.774   5.062 -0.3185  0.4037  0.0884
 8480TIP3    H146855   6.635   5.728   5.035 -0.0414  0.0320 -0.1189
 8480TIP3    H246856   6.745   5.726   5.140  0.2606 -0.1017 -0.4384
 8481TIP3   OH246857   0.074   2.320  13.515  0.1801 -0.5323  0.3796
 8481TIP3    H146858   0.136   2.316  13.442  0.0319  0.9642  0.1471
 8481TIP3    H246859  -0.012   2.310  13.475  0.1195 -0.0699  0.3957
 8482TIP3   OH246860   1.472   0.012  14.480 -0.2898  0.4182 -0.1375
 8482TIP3    H146861   1.508  -0.065  14.523 -1.3446  0.2703  0.5086
 8482TIP3    H246862   1.544   0.076  14.480  0.4781 -0.4263 -0.3661
 8483TIP3   OH246863   2.069   2.929  11.759  0.5491  0.3175  0.8416
 8483TIP3    H146864   2.001   2.968  11.814 -0.2909 -0.6513  0.5267
 8483TIP3    H246865   2.094   2.998  11.699 -2.3337 -0.1149 -1.0471
 8484TIP3   OH246866   3.993   5.067  13.834  0.4646 -0.4663  0.3638
 8484TIP3    H146867   4.067   5.049  13.776 -0.2255 -0.2454 -0.5981
 8484TIP3    H246868   4.003   5.004  13.906  2.6290  0.7865  1.2499
 8485TIP3   OH246869   6.139   6.542  17.183 -0.1475  0.3101 -0.1900
 8485TIP3    H146870   6.233   6.531  17.194 -0.2982 -0.7777  0.1384
 8485TIP3    H246871   6.130   6.617  17.124  0.9467 -0.1962 -1.0323
 8486TIP3   OH246872   1.678   6.200   4.763  0.7402  0.2191 -0.5174
 8486TIP3    H146873   1.736   6.261   4.717  1.2375  0.4448  0.3772
 8486TIP3    H246874   1.672   6.236   4.852 -1.5904  0.7667 -0.8276
 8487TIP3   OH246875   3.548   5.956  13.177 -0.2413 -0.2853  0.6355
 8487TIP3    H146876   3.476   6.012  13.207  1.0311  2.0275 -0.2803
 8487TIP3    H246877   3.548   5.967  13.082  0.7682 -0.9348  0.5448
 8488TIP3   OH246878   4.127   3.265  12.717  0.2842  0.1973 -0.4676
 8488TIP3    H146879   4.088   3.206  12.783 -1.0053  1.7944  0.2884
 8488TIP3    H246880   4.079   3.245  12.637  0.2248 -0.1621 -0.3461
 8489TIP3   OH246881   0.504   1.573   4.571 -0.0737 -0.4130  0.0241
 8489TIP3    H146882   0.473   1.648   4.521 -0.6351  0.4133  1.5367
 8489TIP3    H246883   0.562   1.527   4.511 -2.7541 -1.0247 -2.3189
 8490TIP3   OH246884   6.716   1.824   2.356 -0.0340 -0.5257 -0.1521
 8490TIP3    H146885   6.651   1.825   2.426  0.9748 -0.8175  0.8399
 8490TIP3    H246886   6.690   1.751   2.300 -0.6950 -0.4826  0.0935
 8491TIP3   OH246887   6.241   5.452  11.862 -0.1530 -0.0866  0.2530
 8491TIP3    H146888   6.293   5.488  11.790 -0.7260 -2.1056 -1.2541
 8491TIP3    H246889   6.261   5.359  11.862 -0.6910 -0.2564  2.3232
 8492TIP3   OH246890   0.624   0.755  10.973  0.2415 -0.0814  0.1196
 8492TIP3    H146891   0.591   0.814  11.041 -0.1698  1.1183 -1.1029
 8492TIP3    H246892   0.684   0.808  10.921  1.3627 -1.2680  0.1284
 8493TIP3   OH246893   3.983   0.347  11.577 -0.3169 -0.1161 -0.0952
 8493TIP3    H146894   3.893   0.315  11.586  0.0667 -1.1000  0.4150
 8493TIP3    H246895   3.974   0.441  11.564 -1.3495  0.1724  2.1917
 8494TIP3   OH246896   3.951   2.899   5.944  0.9278  0.1253  0.1221
 8494TIP3    H146897   3.952   2.995   5.937  2.6636  0.2886  1.7281
 8494TIP3    H246898   4.042   2.876   5.960  0.6912 -1.9099 -1.1789
 8495TIP3   OH246899   1.166   3.236  11.815  0.3763  0.3390  1.0456
 8495TIP3    H146900   1.135   3.304  11.755  0.6563 -2.7459 -3.0478
 8495TIP3    H246901   1.091   3.217  11.871 -0.6459  1.9925  0.3102
 8496TIP3   OH246902   6.526   4.955   1.465  0.0977 -0.3684  0.4250
 8496TIP3    H146903   6.590   4.967   1.535 -0.2865 -1.6733  1.0289
 8496TIP3    H246904   6.442   4.953   1.510 -0.0466 -2.8574  0.1608
 8497TIP3   OH246905   1.354   1.026   4.097  0.2468 -0.0454  0.4505
 8497TIP3    H146906   1.336   1.020   4.003  0.6943 -1.4223  0.4381
 8497TIP3    H246907   1.378   1.118   4.111 -1.2517  0.5370 -0.5087
 8498TIP3   OH246908   4.420   0.619   5.866  0.1124 -0.4311 -0.0753
 8498TIP3    H146909   4.456   0.703   5.838  1.4702 -1.5074 -1.7623
 8498TIP3    H246910   4.355   0.597   5.799  1.4503 -1.7664 -1.0129
 8499TIP3   OH246911   3.375   3.938   2.374 -0.1517  0.2199  0.0707
 8499TIP3    H146912   3.348   3.985   2.454 -1.1053 -2.4107  1.4221
 8499TIP3    H246913   3.448   3.989   2.339 -0.4399  2.0838  1.9907
 8500TIP3   OH246914   4.956   4.890  15.936  0.3149 -0.3381  0.4171
 8500TIP3    H146915   4.961   4.983  15.955 -1.7240 -0.5397  2.3735
 8500TIP3    H246916   4.973   4.883  15.842  1.3852  1.8781  0.4106
 8501TIP3   OH246917   5.027   3.265  16.710  0.2702  0.5647  0.2367
 8501TIP3    H146918   4.955   3.267  16.648 -0.2725 -1.2575  0.7358
 8501TIP3    H246919   5.015   3.183  16.758  2.1443  0.6561  0.9630
 8502TIP3   OH246920   1.590   1.179   2.179  0.6492  0.2188 -0.2089
 8502TIP3    H146921   1.561   1.270   2.183 -0.6418 -0.1919  0.4476
 8502TIP3    H246922   1.581   1.146   2.268  0.8782 -0.6087 -0.4780
 8503TIP3   OH246923   3.810   0.361   1.508 -0.3072 -0.1166 -0.2670
 8503TIP3    H146924   3.768   0.368   1.594  0.1356 -0.0667 -0.0506
 8503TIP3    H246925   3.893   0.317   1.526 -0.3468 -0.3806 -0.7166
 8504TIP3   OH246926   4.542   5.963  14.958  0.3253  0.0028 -0.3962
 8504TIP3    H146927   4.492   6.022  14.902  0.8623  2.4500  1.5040
 8504TIP3    H246928   4.599   6.021  15.009  0.7056 -2.1564  1.8399
 8505TIP3   OH246929   2.449   0.031  13.272  0.3598 -0.4647  0.1604
 8505TIP3    H146930   2.514   0.083  13.226  0.9187 -0.9471  0.3916
 8505TIP3    H246931   2.474   0.038  13.364  0.7131 -1.5045  0.1499
 8506TIP3   OH246932   0.430   2.818   1.920 -0.2540 -0.6746  0.4225
 8506TIP3    H146933   0.435   2.898   1.973 -2.3144  0.3264 -0.7774
 8506TIP3    H246934   0.358   2.768   1.959 -1.2572 -0.2975 -0.8829
 8507TIP3   OH246935   0.014   1.056  13.328  0.2592  0.5839  0.4253
 8507TIP3    H146936  -0.027   1.141  13.344  1.0706  1.2582 -0.8257
 8507TIP3    H246937  -0.056   1.001  13.294 -0.2983  0.7213  1.3446
 8508TIP3   OH246938   0.565   0.264   0.017 -0.1111  0.2677 -0.1045
 8508TIP3    H146939   0.634   0.267  -0.049 -1.0162  0.7668 -1.0615
 8508TIP3    H246940   0.527   0.352   0.016 -0.2147  0.2603  1.0293
 8509TIP3   OH246941   5.878   5.165   1.997 -0.5613  0.1321 -0.4163
 8509TIP3    H146942   5.811   5.114   2.042  0.1793 -0.8236 -0.3456
 8509TIP3    H246943   5.862   5.149   1.904  0.4850 -1.3692 -0.3695
 8510TIP3   OH246944   2.280   1.617  14.386  0.1122  0.2048 -0.3032
 8510TIP3    H146945   2.259   1.664  14.306 -0.5864 -0.7981 -0.7273
 8510TIP3    H246946   2.287   1.525  14.359  1.0879  0.0065  0.5619
 8511TIP3   OH246947   3.455   6.102  16.753 -0.1612  0.5036  0.7491
 8511TIP3    H146948   3.374   6.139  16.787 -0.1622  2.6556 -1.2989
 8511TIP3    H246949   3.444   6.104  16.657  2.1369  0.5199  0.4258
 8512TIP3   OH246950   0.052   6.554   0.641  0.0861 -0.7056 -0.0166
 8512TIP3    H146951   0.081   6.585   0.727  1.5019 -1.7219 -0.1068
 8512TIP3    H246952   0.081   6.463   0.637 -4.9837 -2.7035  0.7607
 8513TIP3   OH246953   4.522   1.525  14.856 -0.1362 -0.0157  0.2235
 8513TIP3    H146954   4.532   1.493  14.766 -1.0612 -1.4325  0.5915
 8513TIP3    H246955   4.440   1.486  14.886 -0.3517  1.2602  1.3579
 8514TIP3   OH246956   1.044   3.643   1.564  0.3985 -0.1161 -0.6636
 8514TIP3    H146957   0.958   3.603   1.571  0.5974 -0.4231  0.2341
 8514TIP3    H246958   1.088   3.619   1.646  0.3639  2.3043  0.1402
 8515TIP3   OH246959   4.549   5.461  16.616 -0.2507  0.3255  0.6356
 8515TIP3    H146960   4.531   5.550  16.646  0.0035  1.5960 -2.6358
 8515TIP3    H246961   4.643   5.451  16.625 -0.3859 -0.0380  1.9075
 8516TIP3   OH246962   4.429   5.559  12.057  0.2257 -0.6765 -0.1961
 8516TIP3    H146963   4.485   5.626  12.098 -0.5224 -0.6304  0.7842
 8516TIP3    H246964   4.451   5.563  11.964  1.0060  0.1551  0.0108
 8517TIP3   OH246965   5.329   2.555  15.249 -0.5857  0.0757 -0.1571
 8517TIP3    H146966   5.293   2.560  15.161 -1.6206 -1.3058  0.1464
 8517TIP3    H246967   5.255   2.529  15.304 -0.0552  1.2886  1.2024
 8518TIP3   OH246968   4.268   1.357  14.664  0.0460 -0.9370  0.1501
 8518TIP3    H146969   4.333   1.389  14.601  2.1793 -0.8016  2.2849
 8518TIP3    H246970   4.287   1.264  14.674 -0.8838 -1.1635 -0.0520
 8519TIP3   OH246971   5.757   4.342  13.768  0.0814 -0.2072 -0.4675
 8519TIP3    H146972   5.728   4.313  13.855  0.6964  3.6124  1.1846
 8519TIP3    H246973   5.676   4.365  13.723 -0.2472 -2.2690 -1.0537
 8520TIP3   OH246974   5.940   0.405  14.164 -0.0134 -0.5170 -0.0100
 8520TIP3    H146975   5.943   0.318  14.123 -0.5494 -0.9917  0.9200
 8520TIP3    H246976   5.954   0.466  14.092  0.0851 -1.3696 -0.7266
 8521TIP3   OH246977   1.167   4.744   1.787 -0.5813  0.1747  0.3537
 8521TIP3    H146978   1.126   4.698   1.714 -2.1294  0.4795  0.9976
 8521TIP3    H246979   1.110   4.727   1.862 -0.2864  1.7466  0.9900
 8522TIP3   OH246980   3.084   5.307   1.138  0.3080 -0.3919  0.3214
 8522TIP3    H146981   3.057   5.253   1.064 -1.6110 -2.2666  2.2233
 8522TIP3    H246982   3.005   5.356   1.162  1.4330  1.6845 -0.0093
 8523TIP3   OH246983   1.247   6.376  11.344  0.2982 -0.2072  0.4880
 8523TIP3    H146984   1.249   6.281  11.346  0.5934 -0.2112  0.1166
 8523TIP3    H246985   1.235   6.398  11.252  1.0900  0.1247  0.4597
 8524TIP3   OH246986   6.214   1.536  14.187 -0.5762 -0.1895  0.1616
 8524TIP3    H146987   6.229   1.531  14.282  1.6423  0.2421 -0.1143
 8524TIP3    H246988   6.229   1.447  14.156  1.2295  0.1374 -0.0444
 8525TIP3   OH246989   1.134   5.250  14.095  0.2171 -0.0569  0.0244
 8525TIP3    H146990   1.079   5.286  14.165 -1.7467 -1.9514 -0.3998
 8525TIP3    H246991   1.205   5.205  14.141 -0.1604  0.0654  0.7450
 8526TIP3   OH246992   5.517   4.993  16.477  0.0364  0.9305  0.4664
 8526TIP3    H146993   5.543   4.960  16.391 -1.5952  2.4792 -0.6968
 8526TIP3    H246994   5.480   4.917  16.521 -0.8102  0.4882 -0.9380
 8527TIP3   OH246995   3.652   1.306  14.408 -0.1755  0.4303 -0.0721
 8527TIP3    H146996   3.621   1.338  14.493 -0.6268 -0.3092  0.0519
 8527TIP3    H246997   3.598   1.229  14.391  0.5246  0.0534 -0.6117
 8528TIP3   OH246998   4.633   3.631  16.466  0.4504  0.0095 -0.3738
 8528TIP3    H146999   4.571   3.624  16.393 -0.3357  0.1777  0.2600
 8528TIP3    H247000   4.582   3.672  16.536  1.1130 -0.4171  0.3617
 8529TIP3   OH247001   3.377   5.685   3.481 -0.3607  0.1666 -0.1840
 8529TIP3    H147002   3.438   5.735   3.535  1.2820 -0.6184 -1.2244
 8529TIP3    H247003   3.297   5.737   3.480  0.5036  1.5674  0.6905
 8530TIP3   OH247004   6.707   0.408  12.331  0.5550  0.3673  0.1904
 8530TIP3    H147005   6.736   0.333  12.280  0.2141 -0.4217  1.1196
 8530TIP3    H247006   6.649   0.457  12.272  0.1150 -0.5586 -0.1559
 8531TIP3   OH247007   5.277   3.188   4.011  0.3706 -0.1978 -0.3931
 8531TIP3    H147008   5.196   3.138   4.023 -0.0097  0.6400  0.8640
 8531TIP3    H247009   5.318   3.151   3.933 -0.6505 -1.4115 -0.3807
 8532TIP3   OH247010   3.937   0.981  11.335 -0.3876 -0.9471 -0.6748
 8532TIP3    H147011   3.923   1.008  11.244  0.4924 -0.7254 -0.7511
 8532TIP3    H247012   4.023   0.940  11.335 -0.9179 -2.1095 -0.1842
 8533TIP3   OH247013   3.780   5.506   4.666 -0.0091 -0.0598  0.9703
 8533TIP3    H147014   3.693   5.526   4.630 -0.5083 -0.9164  1.6375
 8533TIP3    H247015   3.817   5.442   4.605  0.2638  0.5059  0.5421
 8534TIP3   OH247016   5.465   2.386  14.840 -0.0740  0.1653 -0.0864
 8534TIP3    H147017   5.537   2.431  14.885  2.2716 -3.7887  0.6019
 8534TIP3    H247018   5.485   2.395  14.747 -0.5092  1.6786 -0.0663
 8535TIP3   OH247019   2.905   3.881   4.354 -0.1965  0.5926 -0.2541
 8535TIP3    H147020   2.929   3.825   4.281  1.8492  1.7962 -0.5670
 8535TIP3    H247021   2.905   3.969   4.318 -2.8619  0.9342  0.3503
 8536TIP3   OH247022   4.947   5.542   1.035  0.2946 -0.0500 -0.0181
 8536TIP3    H147023   4.894   5.467   1.008 -2.1982  1.4029  0.4875
 8536TIP3    H247024   4.894   5.618   1.011  1.9883  1.4981  0.9403
 8537TIP3   OH247025   6.134   1.348   5.205  0.3238 -0.1141  0.3529
 8537TIP3    H147026   6.188   1.387   5.274  0.8183 -0.2069  0.0221
 8537TIP3    H247027   6.052   1.325   5.249  0.5150  0.1170  0.8389
 8538TIP3   OH247028   5.887   5.340   1.328 -0.1850 -0.2550  0.1297
 8538TIP3    H147029   5.970   5.312   1.366  0.1739 -1.4769 -1.4351
 8538TIP3    H247030   5.899   5.433   1.308  0.3137 -0.1008  1.1296
 8539TIP3   OH247031   0.250   2.036  16.693 -0.2474 -0.0158  0.9598
 8539TIP3    H147032   0.166   1.997  16.717  0.4053 -2.2091 -0.0955
 8539TIP3    H247033   0.269   2.002  16.605  2.3166 -0.6072  1.6468
 8540TIP3   OH247034   5.890   3.787   0.530  0.4849 -0.1707  0.3930
 8540TIP3    H147035   5.860   3.773   0.619  0.5090 -1.1304  0.2558
 8540TIP3    H247036   5.812   3.813   0.482  0.7585  1.9962  1.0164
 8541TIP3   OH247037   4.023   3.906   5.805  0.8412 -0.0190  0.5801
 8541TIP3    H147038   3.958   3.921   5.873  0.7401  0.7245  0.3354
 8541TIP3    H247039   4.000   3.968   5.735  1.7735  0.2297  0.4686
 8542TIP3   OH247040   2.779   5.338  14.909  0.5276 -0.4794  0.3433
 8542TIP3    H147041   2.823   5.340  14.825 -1.7025  0.1273 -0.9025
 8542TIP3    H247042   2.792   5.248  14.941  1.9711 -0.5163 -0.3062
 8543TIP3   OH247043   6.663   1.165   3.048 -0.6611  0.6025 -0.2203
 8543TIP3    H147044   6.674   1.217   3.128 -4.9423 -0.2440  1.1978
 8543TIP3    H247045   6.626   1.227   2.984  0.5114  0.7437 -0.7740
 8544TIP3   OH247046   0.295   2.649   1.203  0.2325 -0.2383 -0.3197
 8544TIP3    H147047   0.252   2.709   1.264 -0.2524  1.5006 -2.2673
 8544TIP3    H247048   0.388   2.671   1.209  0.5709 -1.8423  1.5703
 8545TIP3   OH247049   5.727   4.052   2.603 -0.0463 -0.4781  0.9337
 8545TIP3    H147050   5.667   4.126   2.610  0.1372 -0.0239 -1.5526
 8545TIP3    H247051   5.809   4.084   2.642 -0.7705 -0.4106  2.4786
 8546TIP3   OH247052   4.765   6.427  15.572  0.2472  0.0592  0.6630
 8546TIP3    H147053   4.752   6.346  15.622 -0.9029 -0.9395 -1.1708
 8546TIP3    H247054   4.676   6.459  15.554  0.6520  2.3436  2.1922
 8547TIP3   OH247055   5.412   4.277   6.147  0.0511 -0.1213 -0.5921
 8547TIP3    H147056   5.337   4.218   6.159 -0.3434  0.0793 -2.0200
 8547TIP3    H247057   5.429   4.276   6.053  0.6495  1.3109 -0.5181
 8548TIP3   OH247058   2.502   5.178   0.905  0.1066 -0.3389  0.1203
 8548TIP3    H147059   2.498   5.108   0.840  0.2079  1.2323 -1.6601
 8548TIP3    H247060   2.436   5.240   0.877  0.4510  0.5952  1.3000
 8549TIP3   OH247061   5.808   2.833   0.378 -0.3496 -0.6396  0.6149
 8549TIP3    H147062   5.841   2.898   0.315 -1.8807 -0.2377  0.2005
 8549TIP3    H247063   5.796   2.883   0.459  2.1845 -1.2743  1.5026
 8550TIP3   OH247064   4.368   4.035  10.462  0.0414  0.5500  0.3012
 8550TIP3    H147065   4.377   4.129  10.480  1.2582  0.5016  0.0195
 8550TIP3    H247066   4.306   4.005  10.528 -0.1480  1.5017  0.5807
 8551TIP3   OH247067   4.568   0.214   6.475 -0.2122 -0.2226  0.2389
 8551TIP3    H147068   4.573   0.213   6.570  0.5161  2.5767  0.3283
 8551TIP3    H247069   4.629   0.283   6.448 -1.8938  0.4893 -2.1069
 8552TIP3   OH247070   3.091   6.516   5.686  0.3352 -0.3924  0.0927
 8552TIP3    H147071   3.038   6.580   5.734  0.6784 -0.7489  0.9622
 8552TIP3    H247072   3.105   6.445   5.748  0.0257 -1.2905 -0.8346
 8553TIP3   OH247073   4.832   5.311  11.370  0.2367 -0.5614  0.2787
 8553TIP3    H147074   4.919   5.275  11.353  0.5456  1.2475 -2.8573
 8553TIP3    H247075   4.772   5.244  11.339  0.6698 -0.4086 -0.9639
 8554TIP3   OH247076   1.524   2.135  16.412 -0.7281  0.4235 -0.3306
 8554TIP3    H147077   1.477   2.204  16.460 -0.7504  0.5700 -0.5605
 8554TIP3    H247078   1.597   2.181  16.370 -0.1858  0.1440  0.2825
 8555TIP3   OH247079   4.265   6.029  11.299  0.5207 -0.2862 -0.0840
 8555TIP3    H147080   4.326   6.049  11.370  0.9560  0.6488 -0.6941
 8555TIP3    H247081   4.321   6.015  11.223 -0.0092  1.5680 -0.8904
 8556TIP3   OH247082   5.804   1.987  12.709  0.1537 -0.2797  0.6350
 8556TIP3    H147083   5.861   1.984  12.785  0.3773 -1.3994  0.4384
 8556TIP3    H247084   5.737   1.921  12.726 -2.3173  2.2640  1.7602
 8557TIP3   OH247085   4.852   4.072  11.697 -0.5205 -0.1024  0.1213
 8557TIP3    H147086   4.871   4.134  11.767  0.0038 -0.2696  0.1303
 8557TIP3    H247087   4.794   4.007  11.737 -0.8948  0.2535  0.1702
 8558TIP3   OH247088   1.920   1.127  15.344  0.2222 -0.3556  0.2031
 8558TIP3    H147089   1.844   1.183  15.329  0.9630  0.5270 -0.3731
 8558TIP3    H247090   1.893   1.067  15.413 -0.9234  0.0732  0.1439
 8559TIP3   OH247091   3.357   4.347   1.736 -0.0682  0.3050 -0.2213
 8559TIP3    H147092   3.298   4.277   1.764 -0.6313  0.9905  0.3717
 8559TIP3    H247093   3.393   4.317   1.653 -1.5334 -0.0090 -0.7857
 8560TIP3   OH247094   0.241   5.236  14.213  0.1286  0.1052  0.3304
 8560TIP3    H147095   0.232   5.327  14.243 -4.5562 -0.2530  0.6684
 8560TIP3    H247096   0.270   5.188  14.290 -0.1939  0.9047  0.9648
 8561TIP3   OH247097   1.128   4.174   0.518  0.5973 -0.2388 -0.1461
 8561TIP3    H147098   1.110   4.228   0.596  0.3291  0.9207 -0.9807
 8561TIP3    H247099   1.212   4.133   0.537 -0.2229 -1.2871  1.4417
 8562TIP3   OH247100   5.839   0.796   3.280 -0.4835 -0.1851 -0.3404
 8562TIP3    H147101   5.828   0.713   3.234  0.9383 -2.3141  2.7800
 8562TIP3    H247102   5.780   0.789   3.356  1.5754  0.4290  1.4146
 8563TIP3   OH247103   0.863   3.612   3.919  0.4322  0.6961 -0.4651
 8563TIP3    H147104   0.779   3.621   3.963  1.3856 -1.0987  1.9130
 8563TIP3    H247105   0.895   3.702   3.909 -0.9965  1.2952  0.0977
 8564TIP3   OH247106   5.356   5.160  13.919 -0.0280 -0.4266 -0.1336
 8564TIP3    H147107   5.447   5.168  13.946 -0.3227 -0.0880  0.7924
 8564TIP3    H247108   5.353   5.201  13.833  0.6731 -0.3474 -0.1270
 8565TIP3   OH247109   0.419   0.830   2.228 -0.1258  0.4384  0.0778
 8565TIP3    H147110   0.458   0.902   2.277  1.1998 -0.9314  1.1641
 8565TIP3    H247111   0.474   0.820   2.151  1.4006 -1.0530  1.2683
 8566TIP3   OH247112   5.959   1.258  16.658 -0.3124 -0.5109 -0.2809
 8566TIP3    H147113   5.957   1.287  16.750  1.3555 -0.2890 -0.2740
 8566TIP3    H247114   5.881   1.296  16.619 -0.0901  0.9290  0.6170
 8567TIP3   OH247115   0.369   2.067   1.477 -0.3653 -0.0143  0.0135
 8567TIP3    H147116   0.361   2.031   1.566 -1.4378  0.2659  0.0404
 8567TIP3    H247117   0.356   1.992   1.420 -2.3370  0.2348  0.0734
 8568TIP3   OH247118   5.536   0.373  14.998  0.1448  0.0179 -0.5440
 8568TIP3    H147119   5.573   0.295  14.957 -1.2363 -0.4236 -1.0072
 8568TIP3    H247120   5.579   0.378  15.083 -0.5557 -1.9291 -0.0234
 8569TIP3   OH247121   1.587   1.263   4.392 -0.2030  0.2615 -0.5904
 8569TIP3    H147122   1.497   1.240   4.412 -0.7448  2.5977  0.0039
 8569TIP3    H247123   1.637   1.235   4.468 -1.0843  2.2864  0.8486
 8570TIP3   OH247124   3.236   3.724  15.022 -0.3286  0.4351 -0.0321
 8570TIP3    H147125   3.152   3.715  14.976 -0.0094 -2.0825 -0.2559
 8570TIP3    H247126   3.301   3.731  14.952 -0.1954  0.8159  0.1261
 8571TIP3   OH247127   5.910   5.215  15.005 -0.0815 -0.5756  0.2426
 8571TIP3    H147128   5.915   5.157  14.929 -1.8825 -1.0751  0.4604
 8571TIP3    H247129   5.925   5.303  14.970  0.1273 -0.9119 -0.5154
 8572TIP3   OH247130   4.419   6.766  14.548 -0.2468 -0.4642  0.8385
 8572TIP3    H147131   4.362   6.838  14.521  1.2287  0.8040  0.8881
 8572TIP3    H247132   4.456   6.733  14.466 -1.0253 -1.2596  0.8068
 8573TIP3   OH247133   4.413   4.088   4.537  0.1282 -0.0874 -0.0158
 8573TIP3    H147134   4.379   4.011   4.492 -0.9275  0.3253  0.0341
 8573TIP3    H247135   4.398   4.071   4.630  2.4995 -1.0299  0.2549
 8574TIP3   OH247136   2.812   4.822   1.864  0.0753 -0.3733 -0.4350
 8574TIP3    H147137   2.891   4.844   1.815 -0.5325  1.6681 -0.5968
 8574TIP3    H247138   2.804   4.892   1.928 -0.4815 -1.6900  0.9978
 8575TIP3   OH247139   6.235   5.397  15.286  0.1137  0.2174 -0.5604
 8575TIP3    H147140   6.263   5.467  15.345 -0.0927  1.2577 -1.6333
 8575TIP3    H247141   6.220   5.442  15.202 -1.5847 -0.8372 -0.8742
 8576TIP3   OH247142   4.335   4.854   0.229 -0.0998 -0.5273  0.0759
 8576TIP3    H147143   4.282   4.874   0.306  0.1938  0.5513  0.0068
 8576TIP3    H247144   4.302   4.769   0.198 -1.1220 -0.3263  0.5944
 8577TIP3   OH247145   2.059   6.622   5.104 -0.0644 -0.1493 -0.0452
 8577TIP3    H147146   2.109   6.546   5.133  0.9620  0.0659 -1.1638
 8577TIP3    H247147   2.044   6.673   5.183  1.2974 -0.3515  0.3579
 8578TIP3   OH247148   3.728   6.083  11.234  0.3755 -0.3187 -0.3986
 8578TIP3    H147149   3.747   6.124  11.150 -1.0739  0.2835 -0.4700
 8578TIP3    H247150   3.633   6.072  11.234  0.4177 -0.8614  0.9171
 8579TIP3   OH247151   3.932   3.319   4.189  0.0052  0.2809 -0.0951
 8579TIP3    H147152   3.907   3.255   4.256 -2.3150  0.6897 -0.4646
 8579TIP3    H247153   3.982   3.270   4.125 -1.7685 -1.2387 -0.3975
 8580TIP3   OH247154   0.316   1.348   2.745 -0.4398 -0.2386 -0.0489
 8580TIP3    H147155   0.325   1.261   2.784  0.4287 -0.0823  0.1169
 8580TIP3    H247156   0.231   1.380   2.777 -0.0094 -0.3499  1.2504
 8581TIP3   OH247157   5.350   0.170   3.022  0.3046 -0.0113 -0.2645
 8581TIP3    H147158   5.281   0.207   3.077 -0.4138  2.3589 -2.5391
 8581TIP3    H247159   5.422   0.233   3.028  0.0652  0.5334 -2.1975
 8582TIP3   OH247160   5.624   2.061   0.328 -0.1295  0.2004 -0.7575
 8582TIP3    H147161   5.552   2.000   0.314 -1.3392  0.4227  3.2152
 8582TIP3    H247162   5.676   2.021   0.398  1.7131  1.5958 -1.2562
 8583TIP3   OH247163   1.296   0.785  12.571 -0.2497  0.5305  0.8058
 8583TIP3    H147164   1.363   0.740  12.520  1.0053 -0.5325  3.2432
 8583TIP3    H247165   1.228   0.719  12.584  0.1366  0.3031  1.7365
 8584TIP3   OH247166   1.821   3.996  13.285 -0.3038 -0.1844 -0.0402
 8584TIP3    H147167   1.753   3.983  13.351  0.3772 -0.2062  0.6765
 8584TIP3    H247168   1.820   4.090  13.268 -1.0066 -0.2784 -0.5962
 8585TIP3   OH247169   1.969   6.360  15.089  0.5481 -0.7856 -0.3534
 8585TIP3    H147170   2.060   6.376  15.067  0.8393  0.0680  1.2522
 8585TIP3    H247171   1.929   6.447  15.091 -0.1636 -1.0998 -0.4866
 8586TIP3   OH247172   0.597   5.605   0.797  0.1719  0.1871  0.3768
 8586TIP3    H147173   0.621   5.691   0.763 -2.4733  0.4345 -1.0607
 8586TIP3    H247174   0.659   5.545   0.756  0.7188  1.1584 -0.2628
 8587TIP3   OH247175   5.000   0.116  12.554  0.2311 -0.3238 -0.1677
 8587TIP3    H147176   4.964   0.034  12.586  0.0870 -1.0838 -2.1039
 8587TIP3    H247177   4.978   0.117  12.461  2.6394  0.5653 -0.8149
 8588TIP3   OH247178   0.093   4.003  12.832  0.1900 -0.5559 -0.1104
 8588TIP3    H147179   0.017   3.958  12.869 -0.2628  0.2952  0.0083
 8588TIP3    H247180   0.056   4.070  12.775  0.8438 -0.1158 -0.0310
 8589TIP3   OH247181   2.853   3.867  12.383  0.0941  0.0410  0.0752
 8589TIP3    H147182   2.763   3.865  12.350 -0.2039  0.8844  0.8096
 8589TIP3    H247183   2.867   3.779  12.418 -0.9587  0.3292  1.2738
 8590TIP3   OH247184   5.156   5.727   0.767 -0.1343 -0.0676 -0.0316
 8590TIP3    H147185   5.146   5.632   0.772  2.3455 -0.3540  0.8116
 8590TIP3    H247186   5.185   5.743   0.677  1.5094 -0.4001  0.4064
 8591TIP3   OH247187   2.036   5.172   4.898 -0.0926  0.9675 -0.1122
 8591TIP3    H147188   2.123   5.208   4.883  0.2838 -0.3578 -1.3258
 8591TIP3    H247189   2.044   5.079   4.875 -2.2600  1.1926 -2.2036
 8592TIP3   OH247190   3.576   3.151   2.633 -0.3049  0.5105 -0.1529
 8592TIP3    H147191   3.651   3.210   2.631 -0.0259  0.1311 -0.8892
 8592TIP3    H247192   3.549   3.151   2.725  2.2324 -1.4215  0.6930
 8593TIP3   OH247193   5.202   2.153   2.349 -0.2631  0.4641 -0.0198
 8593TIP3    H147194   5.148   2.101   2.409 -0.6765  0.2735 -0.5489
 8593TIP3    H247195   5.160   2.240   2.348 -1.9363 -0.2808 -2.1282
 8594TIP3   OH247196   2.813   6.431  15.847 -0.0496 -0.1069 -0.0664
 8594TIP3    H147197   2.896   6.385  15.841  0.0076 -0.0796  0.4455
 8594TIP3    H247198   2.804   6.477  15.763 -0.3021 -1.3726 -0.7504
 8595TIP3   OH247199   5.921   2.919   3.521 -0.4449  0.4206 -0.0404
 8595TIP3    H147200   5.965   2.991   3.476  1.9258  0.7356  2.5682
 8595TIP3    H247201   5.975   2.842   3.502  0.1619  0.4202  1.6127
 8596TIP3   OH247202   2.732   2.504  15.075  0.3133  0.3929 -0.3913
 8596TIP3    H147203   2.775   2.470  15.154  1.6660 -0.8337 -1.5938
 8596TIP3    H247204   2.802   2.549  15.028  0.5884 -2.2291 -2.7281
 8597TIP3   OH247205   1.837   0.930   3.308 -0.3807 -0.2692  0.4795
 8597TIP3    H147206   1.798   1.016   3.289  0.1550  0.4083  2.2419
 8597TIP3    H247207   1.902   0.918   3.238 -0.2146  0.9508  0.3951
 8598TIP3   OH247208   4.566   2.738   2.029 -0.1452 -0.2558  0.5386
 8598TIP3    H147209   4.575   2.647   2.058  0.0100  0.4226  2.8076
 8598TIP3    H247210   4.550   2.787   2.110 -0.9677  1.6473 -0.7246
 8599TIP3   OH247211   0.497   4.435  11.631  0.1573 -0.1633 -0.2916
 8599TIP3    H147212   0.485   4.430  11.536  0.3346  1.1773 -0.3985
 8599TIP3    H247213   0.550   4.514  11.645  1.3322 -1.1069  0.8262
 8600TIP3   OH247214   5.370   0.717   5.028 -0.1266 -0.0210 -0.3431
 8600TIP3    H147215   5.417   0.643   5.068 -3.2921 -2.3063 -0.5199
 8600TIP3    H247216   5.413   0.729   4.944  0.9790 -1.1519  0.0179
 8601TIP3   OH247217   4.644   2.114   4.280  0.1351  0.3557  0.1956
 8601TIP3    H147218   4.739   2.109   4.283  0.1720  0.9700  0.1970
 8601TIP3    H247219   4.617   2.042   4.222  0.4283 -1.4122  2.1421
 8602TIP3   OH247220   3.217   3.354  16.136  0.3663  0.5271 -0.6946
 8602TIP3    H147221   3.186   3.444  16.146  0.9148  0.5981  0.6394
 8602TIP3    H247222   3.151   3.312  16.081 -0.6097  1.3938 -0.2374
 8603TIP3   OH247223   3.358   0.343   4.213 -0.7480  0.0352 -0.0697
 8603TIP3    H147224   3.311   0.261   4.226 -0.9440  0.0243 -0.8059
 8603TIP3    H247225   3.413   0.328   4.137 -0.9517  0.6529 -0.3489
 8604TIP3   OH247226   5.832   0.685  13.086 -0.5849 -0.0827  0.0385
 8604TIP3    H147227   5.816   0.592  13.103 -2.9716 -0.0525 -1.5967
 8604TIP3    H247228   5.901   0.685  13.019 -1.0073 -0.7380 -0.4179
 8605TIP3   OH247229   2.983   0.289   6.005 -0.6350  0.1920 -0.2207
 8605TIP3    H147230   2.965   0.352   6.074 -1.5332 -1.0778  0.7463
 8605TIP3    H247231   2.923   0.217   6.021  0.7257 -1.1812 -0.9459
 8606TIP3   OH247232   0.572   5.583   2.909 -0.2322 -0.0656 -0.4242
 8606TIP3    H147233   0.558   5.677   2.904 -1.4116 -0.1588  0.4863
 8606TIP3    H247234   0.598   5.557   2.820  1.7127  1.3164 -0.3154
 8607TIP3   OH247235   0.883   2.197   5.607 -0.1499  0.3412 -0.5041
 8607TIP3    H147236   0.924   2.284   5.604 -0.9379  0.7019 -1.1963
 8607TIP3    H247237   0.789   2.214   5.602 -0.3830 -0.5074  0.5636
 8608TIP3   OH247238   0.952   5.554  11.963 -0.0583 -0.6224  0.4917
 8608TIP3    H147239   0.972   5.580  11.873 -0.3375  0.4561  0.7259
 8608TIP3    H247240   0.871   5.503  11.956  0.1784 -0.9521  0.0872
 8609TIP3   OH247241   4.801   5.413  16.433 -0.4391 -0.1665 -0.0869
 8609TIP3    H147242   4.799   5.410  16.337 -2.7964 -1.8555 -0.0784
 8609TIP3    H247243   4.785   5.323  16.460  0.8966  0.1575  1.9328
 8610TIP3   OH247244   0.094   1.479   0.381 -0.3445  0.0545  0.3436
 8610TIP3    H147245   0.023   1.536   0.410 -0.1051  1.2326 -1.2752
 8610TIP3    H247246   0.160   1.539   0.344 -0.5406 -1.2574 -2.3784
 8611TIP3   OH247247   2.018   6.524   1.988 -0.3410  0.1814  0.1653
 8611TIP3    H147248   2.055   6.612   1.995  0.7091 -0.3200  1.1915
 8611TIP3    H247249   2.026   6.487   2.075  0.5622 -1.4485 -0.5665
 8612TIP3   OH247250   2.394   5.834  17.151 -0.7645 -0.3122 -0.5571
 8612TIP3    H147251   2.351   5.880  17.079  2.9022  1.7439 -1.6586
 8612TIP3    H247252   2.416   5.902  17.214  1.4895 -1.0593 -0.4475
 8613TIP3   OH247253   2.716   4.827   4.135 -0.0811  0.2128 -0.2991
 8613TIP3    H147254   2.724   4.746   4.085  1.1231  1.2564 -1.9452
 8613TIP3    H247255   2.680   4.890   4.072  0.7665  1.3999  0.3576
 8614TIP3   OH247256   0.460   1.415  11.691 -0.8250  0.1715 -0.5971
 8614TIP3    H147257   0.488   1.328  11.721 -1.7400  0.2693  0.5873
 8614TIP3    H247258   0.506   1.427  11.608  0.2658 -0.9264 -0.1786
 8615TIP3   OH247259   5.048   0.391   5.441 -0.2332  0.0969 -0.3694
 8615TIP3    H147260   5.048   0.306   5.398  1.7944 -1.1835  1.8586
 8615TIP3    H247261   4.967   0.393   5.491 -0.2945 -0.5431 -0.4360
 8616TIP3   OH247262   6.717   4.939  14.704  0.2620  0.0207 -0.7547
 8616TIP3    H147263   6.693   4.865  14.760  1.0295 -0.0855 -0.5668
 8616TIP3    H247264   6.777   4.902  14.639 -1.6399 -0.1624 -2.5172
 8617TIP3   OH247265   1.744   0.685  14.346 -0.4543  0.3709 -0.5154
 8617TIP3    H147266   1.778   0.602  14.312 -0.2719  0.6761 -1.0883
 8617TIP3    H247267   1.717   0.664  14.436  0.8249 -0.0007 -0.1945
 8618TIP3   OH247268   0.936   0.423   3.370  0.2257 -0.0747  0.3281
 8618TIP3    H147269   0.974   0.385   3.291  0.2178  0.0481  0.2647
 8618TIP3    H247270   0.937   0.352   3.434 -0.7959 -0.5164 -0.1179
 8619TIP3   OH247271   1.732   4.581  17.036 -0.0514 -0.1924 -0.5628
 8619TIP3    H147272   1.699   4.670  17.026 -2.5050 -1.0281 -0.3800
 8619TIP3    H247273   1.732   4.545  16.948  0.2651 -0.2643 -0.5374
 8620TIP3   OH247274   1.681   1.586  17.100  0.3148 -0.2919  0.3810
 8620TIP3    H147275   1.714   1.508  17.056 -1.9014 -1.2935  0.3297
 8620TIP3    H247276   1.716   1.659  17.050  2.6898 -1.1953  0.6073
 8621TIP3   OH247277   2.203   3.396   3.931  0.0525 -0.1463  0.0746
 8621TIP3    H147278   2.139   3.337   3.891  0.0744 -0.9601  1.1947
 8621TIP3    H247279   2.176   3.483   3.904 -1.1507 -0.5232  0.0016
 8622TIP3   OH247280   0.431   3.586  10.911 -0.5478 -0.5471  0.8655
 8622TIP3    H147281   0.444   3.679  10.928  1.0123 -0.5148 -0.2662
 8622TIP3    H247282   0.339   3.578  10.887 -0.0219  1.3079 -2.3507
 8623TIP3   OH247283   2.139   2.385   1.007  0.0273 -0.2328  0.4203
 8623TIP3    H147284   2.138   2.335   0.926  1.1769 -0.7731  0.7084
 8623TIP3    H247285   2.047   2.403   1.026 -0.3358 -1.1891 -0.3397
 8624TIP3   OH247286   6.424   4.773  16.920 -0.2154 -0.3873  0.2281
 8624TIP3    H147287   6.333   4.793  16.940  0.0412 -0.1769  1.2243
 8624TIP3    H247288   6.451   4.712  16.989  0.1820 -1.0657 -0.4992
 8625TIP3   OH247289   2.785   5.664  12.075 -0.3217  0.0674  0.0606
 8625TIP3    H147290   2.774   5.759  12.087  1.4782  0.2903  0.2383
 8625TIP3    H247291   2.790   5.629  12.164  0.1725 -0.0193  0.0035
 8626TIP3   OH247292   0.838   3.714  13.154 -0.1998  0.1960  0.2051
 8626TIP3    H147293   0.838   3.793  13.100 -1.8995 -0.0753 -0.2322
 8626TIP3    H247294   0.926   3.678  13.142 -0.2690  0.5602 -1.8046
 8627TIP3   OH247295   3.535   2.592   3.659 -0.5018 -0.1788 -0.6791
 8627TIP3    H147296   3.545   2.497   3.664  0.3786 -0.0924 -0.5516
 8627TIP3    H247297   3.578   2.617   3.577  2.4103  0.4376  0.8659
 8628TIP3   OH247298   1.130   6.204  12.031  0.0798 -0.6690 -0.2538
 8628TIP3    H147299   1.079   6.123  12.036 -0.1535 -0.5030  0.0668
 8628TIP3    H247300   1.064   6.274  12.027  0.2083 -0.2345  2.9445
 8629TIP3   OH247301   4.216   6.127  10.754 -0.3718  0.0210  0.2131
 8629TIP3    H147302   4.179   6.144  10.840 -0.8148  0.5141 -0.0672
 8629TIP3    H247303   4.276   6.053  10.767 -0.1129  0.3680  1.0196
 8630TIP3   OH247304   5.198   6.609  13.171  0.1507 -0.0760  0.2007
 8630TIP3    H147305   5.122   6.655  13.205  0.4440  1.0798 -0.6297
 8630TIP3    H247306   5.173   6.581  13.083  1.0431  1.3584 -0.5522
 8631TIP3   OH247307   1.515   1.408  12.248 -0.2389  0.0989 -0.3760
 8631TIP3    H147308   1.422   1.392  12.265 -0.1744  0.4084  0.2801
 8631TIP3    H247309   1.557   1.324  12.266 -0.3546  0.0281 -0.4310
 8632TIP3   OH247310   1.445   0.405   3.946  0.3428 -0.5966  0.0006
 8632TIP3    H147311   1.365   0.444   3.981  0.1235  0.1419 -1.2789
 8632TIP3    H247312   1.451   0.437   3.856  1.8699 -0.9559 -0.0592
 8633TIP3   OH247313   4.608   1.326  13.356  0.3372  0.5679  0.0922
 8633TIP3    H147314   4.574   1.409  13.323  0.8526  0.8933  0.3698
 8633TIP3    H247315   4.618   1.340  13.451  1.7797  0.6913 -0.0463
 8634TIP3   OH247316   1.872   6.043  16.343  0.3438 -0.4598  0.2942
 8634TIP3    H147317   1.911   6.085  16.420 -0.8374  0.4217  0.4467
 8634TIP3    H247318   1.808   6.107  16.311 -1.9953 -2.3444  0.8962
 8635TIP3   OH247319   5.785   4.987   0.905 -0.1671 -0.4195 -0.3056
 8635TIP3    H147320   5.831   5.067   0.929 -1.3453 -0.2788  1.6063
 8635TIP3    H247321   5.729   5.013   0.832 -0.2843  0.4188  0.0737
 8636TIP3   OH247322   1.124   0.170  16.337  0.4419 -0.4719 -0.3815
 8636TIP3    H147323   1.085   0.181  16.251  0.2285 -1.2431 -0.3880
 8636TIP3    H247324   1.066   0.219  16.396 -1.7364 -3.1450 -0.0940
 8637TIP3   OH247325   6.660   3.738   0.122 -0.0602  0.0666 -0.2629
 8637TIP3    H147326   6.609   3.771   0.196 -0.6411  1.4075 -1.2252
 8637TIP3    H247327   6.745   3.717   0.159 -0.0117  1.6741  0.6061
 8638TIP3   OH247328   3.328   3.061   1.946 -0.3600  0.1557  0.1641
 8638TIP3    H147329   3.304   3.149   1.974  2.8203  1.0015  0.6431
 8638TIP3    H247330   3.301   3.056   1.855  0.3250  2.0646 -0.1874
 8639TIP3   OH247331   3.262   0.968   1.097 -0.3593  0.0261 -0.0570
 8639TIP3    H147332   3.212   0.988   1.176 -0.2323  1.5843 -0.3410
 8639TIP3    H247333   3.351   0.997   1.118 -0.0822 -0.5842 -0.3778
 8640TIP3   OH247334   0.838   5.180  13.330 -0.0562  0.1153  0.6393
 8640TIP3    H147335   0.771   5.235  13.371 -0.6670  0.2710 -0.5212
 8640TIP3    H247336   0.792   5.136  13.258  1.5590  2.0528 -1.7571
 8641TIP3   OH247337   0.738   1.651  17.108 -0.1770 -0.0257  1.0175
 8641TIP3    H147338   0.649   1.686  17.114 -0.2325 -0.0067  0.2019
 8641TIP3    H247339   0.756   1.648  17.014  1.9426  3.1090  1.1701
 8642TIP3   OH247340   1.276   5.529   4.455  0.4822  0.0376 -0.3217
 8642TIP3    H147341   1.219   5.553   4.382 -1.2528 -1.3306  0.5267
 8642TIP3    H247342   1.242   5.446   4.488  1.7366  0.1645  1.5163
 8643TIP3   OH247343   5.527   0.084   2.081  0.1182  0.2633 -0.7195
 8643TIP3    H147344   5.527   0.031   2.001  0.8025  0.0037 -0.5589
 8643TIP3    H247345   5.609   0.133   2.076  1.0560 -1.0610  0.6530
 8644TIP3   OH247346   1.619   5.081   5.269 -0.4831 -0.1581  0.2536
 8644TIP3    H147347   1.647   5.020   5.201 -0.5347 -0.6364  0.6519
 8644TIP3    H247348   1.697   5.134   5.288 -0.5840  0.2656 -0.4650
 8645TIP3   OH247349   2.959   0.812   5.508  0.0607  0.2629 -0.0755
 8645TIP3    H147350   2.896   0.863   5.457 -0.0196  2.8732  2.3457
 8645TIP3    H247351   2.910   0.735   5.537 -0.4434 -0.2841 -2.2636
 8646TIP3   OH247352   0.053   0.480   3.033 -0.4979  0.6046  0.5539
 8646TIP3    H147353   0.034   0.387   3.040 -1.7117  0.9151  1.5781
 8646TIP3    H247354   0.121   0.485   2.964  0.5795 -1.1270  1.4182
 8647TIP3   OH247355   1.039   0.460  12.177 -0.0449 -0.8472  0.4641
 8647TIP3    H147356   0.980   0.460  12.253 -0.3782 -1.5560  0.2141
 8647TIP3    H247357   1.119   0.419  12.210 -0.2036 -1.1929  0.4335
 8648TIP3   OH247358   3.569   2.687  12.166  0.4697 -0.0820  0.0618
 8648TIP3    H147359   3.551   2.647  12.081 -0.5128  0.9906 -0.2562
 8648TIP3    H247360   3.555   2.617  12.229 -0.1394 -0.5279 -0.5543
 8649TIP3   OH247361   1.262   3.282  15.249  0.0111 -0.0600 -0.1156
 8649TIP3    H147362   1.246   3.322  15.163 -2.6972 -0.9157 -0.0839
 8649TIP3    H247363   1.265   3.357  15.309 -0.7305  0.4057 -0.6323
 8650TIP3   OH247364   5.424   1.836   2.130 -0.1369  0.1318 -0.0357
 8650TIP3    H147365   5.403   1.929   2.122 -1.2193 -0.0572  0.3645
 8650TIP3    H247366   5.341   1.792   2.115 -0.0726 -0.6768  1.6720
 8651TIP3   OH247367   0.681   5.940  15.849 -0.0568  0.7512  0.1422
 8651TIP3    H147368   0.748   5.892  15.898  1.8294  1.9118 -1.1959
 8651TIP3    H247369   0.642   5.999  15.913  0.1585  0.0364  0.9505
 8652TIP3   OH247370   6.310   4.793   0.943 -0.3044 -0.2419 -0.6550
 8652TIP3    H147371   6.342   4.879   0.915 -1.3713  0.3156 -0.2119
 8652TIP3    H247372   6.338   4.733   0.873 -0.4297  0.6314 -1.4724
 8653TIP3   OH247373   2.437   0.811  13.643  0.1440 -0.3108 -0.2708
 8653TIP3    H147374   2.411   0.846  13.728  2.0736  0.0037  0.2450
 8653TIP3    H247375   2.422   0.884  13.581 -1.8816 -0.7546 -0.3685
 8654TIP3   OH247376   3.588   2.192   3.077  0.2371 -0.1943 -0.4570
 8654TIP3    H147377   3.569   2.174   2.985 -2.1486 -3.5804  0.5139
 8654TIP3    H247378   3.652   2.125   3.102  1.6843  1.3442  0.1885
 8655TIP3   OH247379   0.281   3.477   5.216 -0.1335  0.1029  0.4184
 8655TIP3    H147380   0.313   3.398   5.259 -0.9268  0.0589  0.9453
 8655TIP3    H247381   0.360   3.517   5.178  0.1906 -1.3028 -0.4795
 8656TIP3   OH247382   5.954   3.934   4.629 -0.1670 -0.1882  0.4630
 8656TIP3    H147383   5.880   3.877   4.609  0.3456 -0.0187 -2.3795
 8656TIP3    H247384   6.025   3.900   4.575  1.1141  1.1665  1.2231
 8657TIP3   OH247385   4.555   0.055   3.112  0.3777 -0.8144 -0.1600
 8657TIP3    H147386   4.592   0.090   3.031  0.5283  1.5468  0.8422
 8657TIP3    H247387   4.626   0.060   3.176  0.0825 -2.0706  0.3023
 8658TIP3   OH247388   0.030   6.443   4.036 -0.2386 -0.0087  0.3928
 8658TIP3    H147389   0.122   6.467   4.044 -0.5608  1.4312  0.0739
 8658TIP3    H247390  -0.008   6.465   4.121 -0.2086 -1.0525  0.6896
 8659TIP3   OH247391   6.668   6.770  13.675  0.1252 -0.0176 -0.4165
 8659TIP3    H147392   6.711   6.734  13.752  0.5728  0.3411 -0.4914
 8659TIP3    H247393   6.740   6.806  13.622 -0.0908 -0.9484 -1.3773
 8660TIP3   OH247394   1.827   3.335  14.090 -0.1811  0.2128 -0.1524
 8660TIP3    H147395   1.750   3.287  14.121 -0.0924 -0.0230 -0.2897
 8660TIP3    H247396   1.879   3.269  14.043  0.0300  0.4040 -0.1908
 8661TIP3   OH247397   3.994   2.412   3.087  0.6099 -0.4803  0.2852
 8661TIP3    H147398   3.992   2.406   2.992  1.1664 -1.4897  0.3194
 8661TIP3    H247399   4.085   2.437   3.107  0.4104  0.0574  0.5424
 8662TIP3   OH247400   5.193   6.240  14.280  0.0888 -0.3795  0.3735
 8662TIP3    H147401   5.145   6.157  14.272 -1.8110  0.7075 -0.0929
 8662TIP3    H247402   5.242   6.247  14.198  0.0757 -0.9251  0.3147
 8663TIP3   OH247403   1.108   4.918   3.892 -0.2864 -0.0951  0.7946
 8663TIP3    H147404   1.128   4.981   3.961 -1.2326 -1.1795  2.1221
 8663TIP3    H247405   1.189   4.869   3.880  0.5246  1.4464 -0.4014
 8664TIP3   OH247406   0.840   2.267   0.313  0.3098 -0.0182  1.0298
 8664TIP3    H147407   0.852   2.186   0.264 -0.7614 -0.6243  1.7296
 8664TIP3    H247408   0.774   2.246   0.379 -1.5209  1.9794 -0.0363
 8665TIP3   OH247409   2.662   1.390   4.115 -0.5422 -0.0343 -0.2510
 8665TIP3    H147410   2.638   1.369   4.025  1.5390 -2.2695 -0.3726
 8665TIP3    H247411   2.582   1.427   4.152 -2.2340 -1.3617 -2.3010
 8666TIP3   OH247412   4.992   5.691   2.502  0.5496  0.8459 -0.3586
 8666TIP3    H147413   5.073   5.648   2.526  1.3472  1.4491 -1.8340
 8666TIP3    H247414   4.988   5.684   2.407  0.0528  2.8196 -0.5421
 8667TIP3   OH247415   5.254   0.186   4.808 -0.3719 -0.6366  0.3080
 8667TIP3    H147416   5.225   0.267   4.851  0.2673 -0.5293  0.5485
 8667TIP3    H247417   5.189   0.121   4.834 -1.1245 -0.1143 -0.2229
 8668TIP3   OH247418   2.702   2.301  14.076  0.0048 -0.3305 -0.5938
 8668TIP3    H147419   2.698   2.205  14.084 -2.5579 -0.1814  1.1135
 8668TIP3    H247420   2.617   2.325  14.039 -0.1767  1.3593  0.7857
 8669TIP3   OH247421   2.956   4.944  13.742 -0.3814 -0.8116 -0.4139
 8669TIP3    H147422   2.976   4.965  13.650  0.2550 -1.8640 -0.5367
 8669TIP3    H247423   2.874   4.894  13.738 -0.8293 -0.0956 -0.3152
 8670TIP3   OH247424   2.444   0.610   4.559  0.0389  0.3159  0.3824
 8670TIP3    H147425   2.477   0.533   4.607 -1.3249  0.5100  1.7275
 8670TIP3    H247426   2.368   0.577   4.511 -0.9952  0.9040  1.5321
 8671TIP3   OH247427   2.793   6.042   1.715 -0.2539  0.1868  0.0869
 8671TIP3    H147428   2.875   6.092   1.711  1.4146 -2.3809  0.0564
 8671TIP3    H247429   2.810   5.975   1.781 -2.2798 -0.5392 -0.0849
 8672TIP3   OH247430   4.020   3.008   4.746  0.6068  0.1231  0.9081
 8672TIP3    H147431   4.019   2.939   4.680 -0.5101 -1.9811  2.9688
 8672TIP3    H247432   4.113   3.016   4.770  1.4150  2.6481 -2.4385
 8673TIP3   OH247433   2.293   0.733  12.649  0.5972  0.6486 -0.3950
 8673TIP3    H147434   2.256   0.755  12.735  0.5214 -1.1735  0.0835
 8673TIP3    H247435   2.380   0.699  12.668  0.7299  0.5856 -1.0916
 8674TIP3   OH247436   5.002   3.664   0.487 -0.3938  0.4739 -0.3776
 8674TIP3    H147437   5.072   3.707   0.437 -0.0023 -0.5710 -0.7514
 8674TIP3    H247438   4.930   3.727   0.485  0.3987  1.4069 -0.3070
 8675TIP3   OH247439   1.651   5.106   1.788 -0.0094  0.1495 -0.1467
 8675TIP3    H147440   1.637   5.077   1.698  2.2736 -1.1403 -0.1647
 8675TIP3    H247441   1.745   5.128   1.792 -0.2725  1.1495  1.6685
 8676TIP3   OH247442   1.045   3.810  12.786 -0.0925 -0.1977 -0.5471
 8676TIP3    H147443   1.093   3.780  12.709  2.3535 -0.2629  0.9136
 8676TIP3    H247444   0.988   3.880  12.753  1.5605  0.4108 -2.2633
 8677TIP3   OH247445   1.173   1.995  13.541  0.7762 -0.0676  0.3206
 8677TIP3    H147446   1.185   1.907  13.577 -0.8092  0.3129  1.8947
 8677TIP3    H247447   1.233   2.050  13.592  0.6553  0.0069  0.3837
 8678TIP3   OH247448   6.511   0.763   2.787  0.2151  0.7599 -0.1847
 8678TIP3    H147449   6.595   0.732   2.822  0.1747 -0.3477 -1.0301
 8678TIP3    H247450   6.533   0.846   2.744  0.6727  1.0081  0.5032
 8679TIP3   OH247451   3.446   2.281   1.582  0.1191 -0.7699  0.4366
 8679TIP3    H147452   3.511   2.218   1.549  0.9996 -1.3761  3.0889
 8679TIP3    H247453   3.440   2.262   1.676 -1.0170  1.8684  0.9797
 8680TIP3   OH247454   3.839   2.070   2.972  0.4515  0.3660 -0.5011
 8680TIP3    H147455   3.848   2.152   2.923 -1.1792  0.8817  0.0148
 8680TIP3    H247456   3.801   2.009   2.909  0.8365  0.2438 -0.6228
 8681TIP3   OH247457   4.861   4.092   2.009  0.1128 -0.0681 -0.2031
 8681TIP3    H147458   4.930   4.128   1.954  0.9386 -2.9751 -1.2915
 8681TIP3    H247459   4.888   4.112   2.098  2.1681 -0.7008 -0.6244
 8682TIP3   OH247460   0.048   0.389  13.922  0.8366 -0.1873 -0.5894
 8682TIP3    H147461   0.010   0.465  13.967  0.5840 -0.5256 -0.2359
 8682TIP3    H247462  -0.013   0.371  13.850  0.3657 -0.6852 -0.0660
 8683TIP3   OH247463   3.443   2.635   1.960  0.1357  0.0644  0.1302
 8683TIP3    H147464   3.395   2.588   2.028  1.0692 -0.9585  0.1150
 8683TIP3    H247465   3.375   2.684   1.912 -0.6281  0.1633  1.2775
 8684TIP3   OH247466   3.604   5.489  16.634 -0.0197 -0.4905  0.1826
 8684TIP3    H147467   3.672   5.497  16.567 -0.7122  0.2737 -0.4470
 8684TIP3    H247468   3.635   5.544  16.706  0.3543 -0.6934  0.1771
 8685TIP3   OH247469   0.997   6.423   0.903 -0.5292 -0.2679 -0.1724
 8685TIP3    H147470   1.020   6.488   0.970  0.6894  2.0321 -2.6062
 8685TIP3    H247471   0.908   6.397   0.924 -0.5104  1.0488  1.8004
 8686TIP3   OH247472   1.199   5.133   2.689  0.0742  0.3555 -0.0939
 8686TIP3    H147473   1.107   5.119   2.711  0.4737 -0.6771  1.0538
 8686TIP3    H247474   1.238   5.166   2.770  0.7192  0.7576 -0.5610
 8687TIP3   OH247475   4.733   3.564  11.342 -0.1566  0.4224 -0.3194
 8687TIP3    H147476   4.811   3.619  11.345  0.5777 -0.4671 -1.9321
 8687TIP3    H247477   4.660   3.626  11.349  0.5771  1.1046  3.6562
 8688TIP3   OH247478   0.749   0.005   4.621  0.2163  0.2627  0.1905
 8688TIP3    H147479   0.797  -0.044   4.687  0.7850  2.3118  1.3736
 8688TIP3    H247480   0.783   0.094   4.627 -1.1667  0.9630 -1.4726
 8689TIP3   OH247481   2.728   0.352   3.252  0.0830 -0.1228 -0.0381
 8689TIP3    H147482   2.642   0.325   3.222 -0.5007  2.0886 -0.5197
 8689TIP3    H247483   2.787   0.324   3.182 -0.6736  0.9826 -1.1618
 8690TIP3   OH247484   6.125   2.584   1.936 -0.1749  0.2251 -0.0922
 8690TIP3    H147485   6.216   2.613   1.948  0.1259  0.7079 -2.8862
 8690TIP3    H247486   6.125   2.540   1.851 -2.7262  1.0114 -0.5841
 8691TIP3   OH247487   6.716   4.296  12.400 -0.2346  0.1301 -0.3484
 8691TIP3    H147488   6.633   4.343  12.410 -1.5524 -2.1043  0.1032
 8691TIP3    H247489   6.699   4.232  12.330  1.5957  0.5648 -1.2475
 8692TIP3   OH247490   2.577   1.788  13.081 -0.1591 -0.2578  0.6296
 8692TIP3    H147491   2.517   1.861  13.067  1.2161  0.6365 -0.8850
 8692TIP3    H247492   2.648   1.825  13.133  0.4353 -0.5645  0.0500
 8693TIP3   OH247493   6.136   5.351   4.274  0.2602 -0.0748 -0.5633
 8693TIP3    H147494   6.123   5.384   4.362  0.9876 -0.2097 -0.3946
 8693TIP3    H247495   6.220   5.304   4.278 -0.5652 -1.6682 -0.8617
 8694TIP3   OH247496   5.491   4.618  14.711  0.0120 -0.4054  0.2993
 8694TIP3    H147497   5.465   4.679  14.780  0.7606  0.2560  0.0120
 8694TIP3    H247498   5.477   4.532  14.749  1.7528 -0.0705  1.8397
 8695TIP3   OH247499   1.397   1.432  13.085 -0.2926 -0.5248 -0.1664
 8695TIP3    H147500   1.404   1.346  13.045  1.8491  0.3313 -1.8211
 8695TIP3    H247501   1.423   1.419  13.176  0.9634 -1.4957 -0.6385
 8696TIP3   OH247502   2.263   1.446  16.566  0.2157  0.3299  0.4011
 8696TIP3    H147503   2.222   1.454  16.651 -0.4362  2.6360 -0.0602
 8696TIP3    H247504   2.194   1.412  16.509  0.1246  0.4273  0.4523
 8697TIP3   OH247505   0.244   3.193  12.883  0.5099 -0.2465  0.6598
 8697TIP3    H147506   0.333   3.226  12.888  0.5066 -0.2403  0.6804
 8697TIP3    H247507   0.226   3.183  12.790  1.1625 -1.9436  0.6790
 8698TIP3   OH247508   6.663   3.915  16.260  0.9739 -0.2796 -0.1226
 8698TIP3    H147509   6.709   3.907  16.344 -0.4707 -0.1279  0.7098
 8698TIP3    H247510   6.679   3.831  16.217  1.1042 -0.6660  0.6466
 8699TIP3   OH247511   2.283   0.097   4.485 -0.6483  0.1084 -0.7343
 8699TIP3    H147512   2.317   0.013   4.455  2.0814  0.3561  1.2499
 8699TIP3    H247513   2.203   0.076   4.533 -0.1151 -1.3416 -0.4378
 8700TIP3   OH247514   1.929   0.830   5.939  0.3801 -0.1327  0.3189
 8700TIP3    H147515   1.950   0.744   5.904 -1.3258 -0.2835 -0.4421
 8700TIP3    H247516   1.867   0.867   5.876 -0.6079  0.7427  1.7605
 8701TIP3   OH247517   6.398   3.613  16.831 -0.1073  0.2481  0.4363
 8701TIP3    H147518   6.367   3.698  16.800 -2.2989  0.3547  2.5664
 8701TIP3    H247519   6.472   3.632  16.887  1.1706  0.4363 -1.2566
 8702TIP3   OH247520   1.392   0.279  11.677  0.2912 -0.2595  0.2575
 8702TIP3    H147521   1.405   0.186  11.656 -0.7953 -0.4938  0.5441
 8702TIP3    H247522   1.303   0.298  11.649  0.7777  0.9374 -0.5580
 8703TIP3   OH247523   0.973   0.668   3.496  0.2979  0.3094  0.1112
 8703TIP3    H147524   0.970   0.586   3.447  0.9033  0.3913 -0.0717
 8703TIP3    H247525   1.037   0.652   3.565  0.6756  0.7343 -0.1321
 8704TIP3   OH247526   5.134   5.947  14.874 -0.1781 -0.1777  0.1384
 8704TIP3    H147527   5.156   5.869  14.926  0.1575 -0.6239 -0.6446
 8704TIP3    H247528   5.074   5.915  14.806 -0.9085  0.4684  0.4696
 8705TIP3   OH247529   2.016   5.925   1.540 -0.8206 -0.0189 -0.4053
 8705TIP3    H147530   2.000   6.019   1.542 -1.5978 -0.0552 -2.3582
 8705TIP3    H247531   2.106   5.915   1.573 -0.1275  1.5869 -1.6384
 8706TIP3   OH247532   4.941   0.346  16.735  0.0521  0.2243 -0.2546
 8706TIP3    H147533   4.881   0.276  16.760  1.4644 -1.6092 -1.6816
 8706TIP3    H247534   4.998   0.358  16.811 -0.8679  0.5963  0.3885
 8707TIP3   OH247535   3.702   0.074  14.064  0.4540 -0.0738 -0.2487
 8707TIP3    H147536   3.652   0.017  14.006 -0.6103 -1.5247  1.9531
 8707TIP3    H247537   3.642   0.093  14.136  1.7156  1.6262  0.4047
 8708TIP3   OH247538   2.125   6.606  16.148 -0.1145 -0.0369  0.3951
 8708TIP3    H147539   2.074   6.678  16.184  0.8019  1.1353 -0.5273
 8708TIP3    H247540   2.063   6.554  16.098 -1.1818 -1.0665  2.6735
 8709TIP3   OH247541   6.540   1.157   0.278  0.0168 -0.4425  0.0497
 8709TIP3    H147542   6.607   1.213   0.317  0.0146 -0.3382 -0.0941
 8709TIP3    H247543   6.575   1.135   0.191 -0.3357 -0.0243 -0.1984
 8710TIP3   OH247544   5.613   4.697   3.688 -0.8091  0.3416 -0.3502
 8710TIP3    H147545   5.619   4.716   3.594  0.1427 -0.0561 -0.3812
 8710TIP3    H247546   5.524   4.723   3.712 -1.4501 -0.5927 -1.5950
 8711TIP3   OH247547   4.206   5.919  17.168  0.0542  0.1990 -0.2355
 8711TIP3    H147548   4.243   5.842  17.126 -0.1449 -0.4092  0.7005
 8711TIP3    H247549   4.245   5.921  17.255 -0.5759  0.6867  0.0415
 8712TIP3   OH247550   4.646   1.048   0.800 -0.0510  0.3197  0.4462
 8712TIP3    H147551   4.693   1.131   0.796  0.8582 -0.2068 -0.1094
 8712TIP3    H247552   4.715   0.982   0.805 -0.6522 -0.5616 -1.7956
 8713TIP3   OH247553   6.215   3.419   4.446 -0.1042  0.5714  0.0175
 8713TIP3    H147554   6.122   3.441   4.450 -0.1797  0.3193 -0.3138
 8713TIP3    H247555   6.223   3.339   4.499 -0.0271  0.7516  0.2785
 8714TIP3   OH247556   1.483   3.831   1.185 -0.1573  0.4744  0.8376
 8714TIP3    H147557   1.563   3.869   1.149 -0.7391  1.9649  1.0621
 8714TIP3    H247558   1.416   3.899   1.174 -1.9718 -1.4759 -1.3643
 8715TIP3   OH247559   1.705   0.648  14.920 -0.4225  0.0802  0.1782
 8715TIP3    H147560   1.778   0.623  14.977 -1.3910 -1.9345  0.5986
 8715TIP3    H247561   1.720   0.600  14.839  0.3994  2.1627 -0.9806
 8716TIP3   OH247562   1.600   3.872   0.493  0.5633  0.6363  0.1767
 8716TIP3    H147563   1.553   3.803   0.539 -0.4819  1.0168 -0.3010
 8716TIP3    H247564   1.692   3.845   0.498  0.1025 -1.3582 -0.9394
 8717TIP3   OH247565   2.095   5.181  14.632  0.7356  0.3143 -0.1758
 8717TIP3    H147566   2.070   5.124  14.705 -0.1597 -1.1113 -1.5150
 8717TIP3    H247567   2.126   5.261  14.673  0.3476 -0.4711  1.7589
 8718TIP3   OH247568   1.391   4.339   2.731  0.0236  0.4332 -0.8848
 8718TIP3    H147569   1.407   4.355   2.824  0.4124 -0.7488 -0.7327
 8718TIP3    H247570   1.439   4.409   2.687  2.0461 -0.4809 -0.2690
 8719TIP3   OH247571   1.324   4.792   3.812  0.0318 -0.1541 -0.4300
 8719TIP3    H147572   1.351   4.739   3.887  0.7585  1.0625  0.1777
 8719TIP3    H247573   1.323   4.730   3.739 -1.1441 -1.4665  0.6368
 8720TIP3   OH247574   2.430   3.158  15.450  0.5709  0.0334 -0.8369
 8720TIP3    H147575   2.461   3.249  15.444  0.4307  0.0610 -1.1576
 8720TIP3    H247576   2.448   3.132  15.541 -0.4238  0.7483 -0.4168
 8721TIP3   OH247577   3.407   3.094   5.655  0.3121  0.4225 -0.5464
 8721TIP3    H147578   3.378   3.152   5.726  2.7282  0.6578  0.3149
 8721TIP3    H247579   3.431   3.013   5.699  0.9938  0.2627 -1.1994
 8722TIP3   OH247580   6.741   4.800   1.086  0.4189  0.0676 -0.3772
 8722TIP3    H147581   6.820   4.757   1.116 -1.1051 -1.9333  1.0422
 8722TIP3    H247582   6.751   4.805   0.990  2.4247  0.3622 -0.1945
 8723TIP3   OH247583   4.647   1.713  14.073  0.4594  0.1072  0.2998
 8723TIP3    H147584   4.591   1.716  13.996 -0.9880  0.1365  1.3165
 8723TIP3    H247585   4.616   1.784  14.129  1.8537  0.4497  0.6833
 8724TIP3   OH247586   5.017   4.363  15.895 -0.2787 -0.4930  0.0620
 8724TIP3    H147587   4.940   4.322  15.855  0.0227  0.6791 -1.8349
 8724TIP3    H247588   4.986   4.449  15.924  0.0524 -0.4567  0.3076
 8725TIP3   OH247589   0.341   1.519   0.622  0.5305 -0.0779 -0.2030
 8725TIP3    H147590   0.372   1.498   0.534  2.1491 -0.8185  0.4995
 8725TIP3    H247591   0.377   1.606   0.641  1.8490 -0.7323  0.4278
 8726TIP3   OH247592   1.729   0.938   0.187 -0.6218 -0.0909 -0.9167
 8726TIP3    H147593   1.715   1.022   0.231  0.3947 -1.5463  2.5343
 8726TIP3    H247594   1.711   0.956   0.095  1.5583  4.4424 -0.7560
 8727TIP3   OH247595   2.649   5.830   1.385  0.4385 -0.7015  0.0521
 8727TIP3    H147596   2.610   5.887   1.450  1.1632  0.6350 -0.6417
 8727TIP3    H247597   2.578   5.772   1.358 -0.1807 -0.4768  1.1439
 8728TIP3   OH247598   2.304   0.429   1.552 -0.6137  0.3143 -0.5342
 8728TIP3    H147599   2.240   0.467   1.612 -3.1166 -2.0071 -1.5058
 8728TIP3    H247600   2.307   0.489   1.478 -1.1606  0.7962 -0.1732
 8729TIP3   OH247601   6.552   4.562  14.734  0.4720  0.1598 -0.5397
 8729TIP3    H147602   6.542   4.475  14.773 -0.8494  0.1980 -0.7554
 8729TIP3    H247603   6.597   4.613  14.801 -1.9477  0.2932  1.1224
 8730TIP3   OH247604   5.503   0.138   0.130 -0.8729  0.0730  0.4728
 8730TIP3    H147605   5.531   0.088   0.207 -2.0572 -1.7948 -0.2535
 8730TIP3    H247606   5.544   0.093   0.057 -2.6212 -0.3414 -0.2763
 8731TIP3   OH247607   3.311   1.262   4.582 -0.0885  0.4490 -0.1415
 8731TIP3    H147608   3.219   1.267   4.559  0.1807  2.4712 -0.9384
 8731TIP3    H247609   3.346   1.192   4.525 -1.4541 -1.8305  1.6352
 8732TIP3   OH247610   0.171   1.083   6.520 -0.5938 -0.4722 -0.4915
 8732TIP3    H147611   0.247   1.084   6.462 -0.3543  0.6113 -0.1858
 8732TIP3    H247612   0.116   1.154   6.488 -1.8922 -1.7253 -1.1966
 8733TIP3   OH247613   2.943   1.136   2.063 -0.1909 -0.9653  0.1095
 8733TIP3    H147614   3.031   1.105   2.080 -0.5484 -1.5914  0.8535
 8733TIP3    H247615   2.911   1.080   1.992 -0.0447 -0.8362 -0.0587
 8734TIP3   OH247616   3.290   4.253   2.156 -0.1897  0.1712 -0.1167
 8734TIP3    H147617   3.213   4.247   2.099 -0.6198  2.9612  0.0182
 8734TIP3    H247618   3.253   4.269   2.243  0.5425 -0.0598  0.2399
 8735TIP3   OH247619   0.875   2.592  11.397 -0.6834  0.0950 -0.4582
 8735TIP3    H147620   0.790   2.620  11.363 -0.6932 -1.2578 -1.6416
 8735TIP3    H247621   0.898   2.516  11.344  0.8026 -0.1787  0.5218
 8736TIP3   OH247622   2.802   2.165  12.939  0.2994 -0.4088  0.4223
 8736TIP3    H147623   2.836   2.119  13.016  0.8062 -1.2464 -0.2959
 8736TIP3    H247624   2.860   2.240  12.928 -0.2148  0.1293  1.2863
 8737TIP3   OH247625   2.022   0.528   1.381  0.0061 -0.6417  0.1561
 8737TIP3    H147626   2.067   0.593   1.434 -0.0549 -0.6342  0.1987
 8737TIP3    H247627   1.958   0.488   1.440 -0.4645 -0.2239 -0.0658
 8738TIP3   OH247628   5.198   1.062   4.295 -0.1332  0.1311 -0.2347
 8738TIP3    H147629   5.229   1.008   4.223 -0.9329 -0.8067  0.0895
 8738TIP3    H247630   5.272   1.119   4.317  0.1576  0.3626 -1.6992
 8739TIP3   OH247631   4.588   0.425   1.231 -0.2301 -0.1299  0.4067
 8739TIP3    H147632   4.656   0.490   1.214 -1.0862  0.1565 -2.3590
 8739TIP3    H247633   4.506   0.470   1.212 -0.9155 -1.6710 -0.4438
 8740TIP3   OH247634   3.377   1.799   2.192 -0.7440 -0.0090 -0.0081
 8740TIP3    H147635   3.383   1.865   2.122  0.0167 -0.4905 -0.4092
 8740TIP3    H247636   3.284   1.778   2.198 -0.5765 -2.1289 -2.9416
 8741TIP3   OH247637   3.579   1.597  15.946  0.4976  0.0976 -0.6723
 8741TIP3    H147638   3.559   1.687  15.922  0.2642  0.5429  1.0829
 8741TIP3    H247639   3.550   1.545  15.871 -2.7798  1.1461 -0.2717
 8742TIP3   OH247640   1.343   4.513   1.751  0.2281  0.2235 -0.3854
 8742TIP3    H147641   1.293   4.594   1.754  0.1680  0.1428  1.8137
 8742TIP3    H247642   1.420   4.530   1.805  0.7761 -0.8414 -0.7952
 8743TIP3   OH247643   2.335   6.173   5.764  0.1558  0.2045  0.0100
 8743TIP3    H147644   2.317   6.092   5.812  1.6259 -1.4407 -2.0165
 8743TIP3    H247645   2.420   6.202   5.798  1.2175 -0.9840 -1.4885
 8744TIP3   OH247646   3.082   5.588   1.821  0.7870  0.8654 -0.1217
 8744TIP3    H147647   3.098   5.513   1.878  0.9219 -0.0076 -1.2645
 8744TIP3    H247648   3.097   5.665   1.877  1.6617  0.0486  0.8048
 8745TIP3   OH247649   6.520   4.042  16.490  0.3404 -0.2842 -0.3465
 8745TIP3    H147650   6.572   4.117  16.462 -0.9277  0.3086 -1.2071
 8745TIP3    H247651   6.429   4.067  16.472 -0.1784 -1.6626  0.2002
 8746TIP3   OH247652   0.732   6.700   3.044 -0.1318 -0.0285  0.4623
 8746TIP3    H147653   0.637   6.711   3.037 -0.2730 -1.1919  0.4241
 8746TIP3    H247654   0.745   6.606   3.057  1.0055  0.1461  0.6916
 8747TIP3   OH247655   1.870   0.777   5.502  0.5470 -0.0088 -0.1353
 8747TIP3    H147656   1.835   0.688   5.510  3.1159 -1.1361 -0.4184
 8747TIP3    H247657   1.837   0.808   5.418  0.2558 -1.0183 -0.4120
 8748TIP3   OH247658   6.084   4.718   5.741 -0.7114  0.3776  0.0316
 8748TIP3    H147659   6.032   4.638   5.730 -1.8098  0.8367  1.5631
 8748TIP3    H247660   6.046   4.761   5.818  1.6041  1.0161  0.9051
 8749TIP3   OH247661   4.679   4.861  14.460  0.2307 -0.1321  0.3073
 8749TIP3    H147662   4.624   4.940  14.452  2.2434  1.3387  0.2063
 8749TIP3    H247663   4.732   4.877  14.539 -0.6673 -2.3148  1.4247
 8750TIP3   OH247664   0.401   0.651   3.210 -0.2192 -0.5008  0.3324
 8750TIP3    H147665   0.466   0.600   3.162  0.4262 -1.7310  2.3906
 8750TIP3    H247666   0.319   0.636   3.164  0.3029 -1.8936 -0.1835
 8751TIP3   OH247667   1.756   1.516  15.701 -0.1923 -0.4993 -0.0901
 8751TIP3    H147668   1.766   1.545  15.610 -1.3511 -0.2514 -0.1495
 8751TIP3    H247669   1.844   1.527  15.739  0.3934 -0.9508 -1.2679
 8752TIP3   OH247670   2.410   6.604  14.292  0.4608 -0.2325 -0.1622
 8752TIP3    H147671   2.324   6.615  14.251  0.1763 -0.8738  0.2457
 8752TIP3    H247672   2.434   6.692  14.321  0.1237  0.0200 -0.6223
 8753TIP3   OH247673   4.959   1.990  12.073 -0.1119 -0.4376 -0.2301
 8753TIP3    H147674   4.942   2.033  11.989  0.5368  0.0769 -0.1002
 8753TIP3    H247675   5.016   2.050  12.120 -1.3823 -0.1928  1.0605
 8754TIP3   OH247676   0.093   0.436   0.457  0.1050  0.2244  0.0905
 8754TIP3    H147677   0.008   0.480   0.462 -0.5433 -0.9963  0.0148
 8754TIP3    H247678   0.156   0.502   0.487 -0.6628  1.7017 -1.3767
 8755TIP3   OH247679   0.686   5.013  15.401 -0.1053  0.2236  0.0984
 8755TIP3    H147680   0.715   4.970  15.320  0.3698 -0.0641  0.4190
 8755TIP3    H247681   0.702   5.106  15.386  0.6817  0.1006  0.1427
 8756TIP3   OH247682   5.695   4.796  15.331  1.0070  0.1594  0.0847
 8756TIP3    H147683   5.678   4.888  15.349  2.7991  0.3750  0.9348
 8756TIP3    H247684   5.751   4.796  15.253  0.0416 -0.2932 -0.6220
 8757TIP3   OH247685   5.475   5.811   4.924 -0.6546 -0.4953  0.0238
 8757TIP3    H147686   5.409   5.834   4.990 -0.3306 -1.2585  0.6316
 8757TIP3    H247687   5.448   5.859   4.846 -1.4092 -0.0708  0.5259
 8758TIP3   OH247688   3.687   1.655  11.352  0.0041 -0.3293  0.3135
 8758TIP3    H147689   3.742   1.709  11.295 -3.8579  3.7225 -0.1214
 8758TIP3    H247690   3.639   1.598  11.291 -0.9867  0.9517 -0.1781
 8759TIP3   OH247691   3.688   0.171   3.158  0.2406  0.4091 -0.3224
 8759TIP3    H147692   3.778   0.163   3.128  0.5222 -0.0252  0.6201
 8759TIP3    H247693   3.663   0.083   3.185 -0.7128  0.3778 -1.2224
 8760TIP3   OH247694   6.668   1.586   2.217 -0.0042 -0.0273 -0.2077
 8760TIP3    H147695   6.759   1.606   2.195  0.1549 -0.6417 -0.1371
 8760TIP3    H247696   6.670   1.494   2.245 -0.0743  0.8234  2.9421
 8761TIP3   OH247697   3.510   1.668  16.686  0.3739  0.6109 -0.4844
 8761TIP3    H147698   3.439   1.611  16.656 -0.0338  0.4278  0.7480
 8761TIP3    H247699   3.548   1.704  16.606 -0.1638 -0.4288 -1.2271
 8762TIP3   OH247700   5.569   2.764   4.676 -0.3103  0.2644 -0.0081
 8762TIP3    H147701   5.608   2.689   4.632 -0.1214  0.7370 -0.6641
 8762TIP3    H247702   5.502   2.727   4.734  0.9967 -0.5519  1.0350
 8763TIP3   OH247703   3.979   2.087   5.850 -0.1317 -0.1860  0.1336
 8763TIP3    H147704   4.050   2.076   5.913  1.2667 -0.2466 -1.3727
 8763TIP3    H247705   4.020   2.130   5.775 -1.6700 -0.3373 -0.8417
 8764TIP3   OH247706   0.007   1.432   2.526  0.2861 -0.0934 -0.0977
 8764TIP3    H147707   0.066   1.357   2.533  0.8643  0.4645  1.3736
 8764TIP3    H247708  -0.009   1.460   2.616 -1.9079  0.0573 -0.4667
 8765TIP3   OH247709   4.433   0.737   5.414  0.7070 -0.0685  0.4883
 8765TIP3    H147710   4.412   0.756   5.323  0.3525  0.5985  0.6995
 8765TIP3    H247711   4.374   0.666   5.439 -0.7932  1.2246  0.8311
 8766TIP3   OH247712   6.149   1.131   1.483  0.2944  0.5759  0.2503
 8766TIP3    H147713   6.185   1.121   1.572  0.6338 -2.2121 -0.1031
 8766TIP3    H247714   6.225   1.157   1.430  1.1288 -1.8237  0.1325
 8767TIP3   OH247715   3.407   0.528  13.933  0.0850  0.0965  0.3881
 8767TIP3    H147716   3.498   0.555  13.947  0.6057 -1.7783  1.0113
 8767TIP3    H247717   3.405   0.437  13.963 -2.3631  0.5493  1.8780
 8768TIP3   OH247718   3.934   1.678   0.917 -0.0120 -0.1639 -0.4789
 8768TIP3    H147719   3.873   1.711   0.851  0.8455  1.7646 -0.3551
 8768TIP3    H247720   3.986   1.612   0.871 -1.1229 -0.7177 -0.9947
 8769TIP3   OH247721   3.693   2.700  12.970  0.0023  0.1014 -0.5264
 8769TIP3    H147722   3.647   2.655  12.899 -0.5165  0.7883 -0.6396
 8769TIP3    H247723   3.628   2.760  13.007 -0.2910 -1.4843  1.7215
 8770TIP3   OH247724   3.501   4.342   3.446  0.1155 -0.6018  0.6712
 8770TIP3    H147725   3.553   4.406   3.494 -0.9173 -0.5729  1.8074
 8770TIP3    H247726   3.441   4.306   3.511 -1.5200 -0.3708 -0.6391
 8771TIP3   OH247727   0.835   1.740  10.627  0.0951 -0.3008 -0.2306
 8771TIP3    H147728   0.818   1.646  10.638 -0.8524  0.0926  2.4623
 8771TIP3    H247729   0.775   1.767  10.558 -2.2830 -1.1045  1.3838
 8772TIP3   OH247730   0.251   5.000  15.598  0.7955  0.1914  0.1750
 8772TIP3    H147731   0.275   5.033  15.512  1.2768 -2.1150 -0.6355
 8772TIP3    H247732   0.156   4.989  15.594  0.6767  1.0573  0.3319
 8773TIP3   OH247733   5.842   3.653   1.693 -0.6501 -0.8420 -0.4518
 8773TIP3    H147734   5.765   3.653   1.636 -0.6249 -0.7009 -0.4879
 8773TIP3    H247735   5.806   3.646   1.782 -0.7633  0.0958 -0.4081
 8774TIP3   OH247736   1.085   4.401  12.099  0.6763 -0.0290  0.2418
 8774TIP3    H147737   1.098   4.320  12.148 -2.1925  1.0694  3.1449
 8774TIP3    H247738   1.122   4.469  12.154  1.1068  0.9106 -1.1425
 8775TIP3   OH247739   5.639   5.518  14.298 -1.0056  0.8364 -0.4056
 8775TIP3    H147740   5.699   5.567  14.242  0.2158  0.5994  0.6570
 8775TIP3    H247741   5.662   5.426  14.283 -0.3354  0.7897  0.8159
 8776TIP3   OH247742   0.641   3.669   5.468 -0.2170  0.3605 -0.3306
 8776TIP3    H147743   0.567   3.720   5.435 -1.0703 -2.0517 -2.5079
 8776TIP3    H247744   0.623   3.580   5.440  3.2010 -0.4644 -0.3748
 8777TIP3   OH247745   3.999   2.389   4.586 -0.0007 -0.4996 -0.1240
 8777TIP3    H147746   4.017   2.337   4.665  1.2749  0.6466  0.3890
 8777TIP3    H247747   3.982   2.324   4.518  1.4279 -1.6156  0.5208
 8778TIP3   OH247748   6.590   6.233  17.133  0.1157  0.7239 -0.2249
 8778TIP3    H147749   6.511   6.183  17.151 -0.4862  1.0780 -1.7310
 8778TIP3    H247750   6.652   6.205  17.200 -1.4087  0.7636  1.2477
 8779TIP3   OH247751   2.576   4.173  17.041 -0.2364 -0.2872  0.1020
 8779TIP3    H147752   2.654   4.209  16.998 -0.4671  0.1715  0.0670
 8779TIP3    H247753   2.589   4.193  17.133  0.2407 -1.2390  0.2576
 8780TIP3   OH247754   1.646   5.921  11.878  0.4735 -0.0395 -0.2543
 8780TIP3    H147755   1.681   5.980  11.811  0.7281 -0.1618 -0.2326
 8780TIP3    H247756   1.702   5.844  11.873  0.7514  0.1159  0.3808
 8781TIP3   OH247757   0.175   1.320  11.202 -0.5424 -0.3104  0.2389
 8781TIP3    H147758   0.221   1.323  11.285 -1.2702  0.3173  0.6330
 8781TIP3    H247759   0.107   1.387  11.210 -1.0214 -0.6807 -0.6188
 8782TIP3   OH247760   3.680   2.569  13.472 -0.0124  0.0914 -0.1438
 8782TIP3    H147761   3.668   2.628  13.547  0.5522  0.9963 -0.7395
 8782TIP3    H247762   3.754   2.607  13.425 -0.0330 -0.7678 -0.8749
 8783TIP3   OH247763   1.743   1.811   3.806  0.1846 -0.1973  0.0932
 8783TIP3    H147764   1.688   1.745   3.765 -1.9282  1.5833 -0.1507
 8783TIP3    H247765   1.750   1.783   3.898 -2.3922  0.2090  0.4806
 8784TIP3   OH247766   5.837   0.910  11.397  0.2028  0.4087  0.3043
 8784TIP3    H147767   5.926   0.891  11.427  0.3081  1.6946  0.8932
 8784TIP3    H247768   5.844   0.918  11.302  0.3558 -1.2280  0.1420
 8785TIP3   OH247769   1.640   0.843  15.330 -0.3992  0.2598  0.4488
 8785TIP3    H147770   1.622   0.900  15.405 -2.9451  1.1365 -0.7214
 8785TIP3    H247771   1.681   0.900  15.265  1.1338 -0.3362  0.8432
 8786TIP3   OH247772   2.825   4.034  15.790  0.0590  0.0538  0.1054
 8786TIP3    H147773   2.836   4.077  15.875 -0.4443  1.0802 -0.3260
 8786TIP3    H247774   2.759   3.967  15.805  0.7410 -0.4886  0.7584
 8787TIP3   OH247775   0.217   6.165   5.117 -0.2968 -0.3228 -0.5417
 8787TIP3    H147776   0.271   6.199   5.046  2.6319 -0.0241  1.6223
 8787TIP3    H247777   0.151   6.232   5.131  0.2063  0.4657 -1.7660
 8788TIP3   OH247778   6.577   5.976  14.316  0.1388  0.1392 -0.3369
 8788TIP3    H147779   6.504   5.969  14.254 -0.2804  1.4378 -0.0254
 8788TIP3    H247780   6.598   6.069  14.318  0.7668 -0.0082  0.7757
 8789TIP3   OH247781   5.156   1.273  14.863  0.7785  0.0070  0.0520
 8789TIP3    H147782   5.220   1.230  14.806  1.1120  1.9281 -1.1379
 8789TIP3    H247783   5.115   1.338  14.807  0.0949  1.0237  1.6603
 8790TIP3   OH247784   2.076   3.718   1.637  0.5716  0.2639 -0.2337
 8790TIP3    H147785   2.160   3.751   1.670  0.1657 -0.3280  1.4998
 8790TIP3    H247786   2.078   3.737   1.543  2.5781  0.3974 -0.2108
 8791TIP3   OH247787   6.598   2.924  12.374  0.6070 -0.2889  0.2693
 8791TIP3    H147788   6.674   2.891  12.326 -0.3329 -0.7907 -0.9442
 8791TIP3    H247789   6.629   3.004  12.416  1.6117 -0.0585 -0.8391
 8792TIP3   OH247790   0.948   2.417  14.395 -0.2722 -0.7013 -0.3990
 8792TIP3    H147791   0.891   2.389  14.323  0.5509 -0.2808 -1.2488
 8792TIP3    H247792   1.006   2.482  14.355  0.2072 -0.4545  0.6615
 8793TIP3   OH247793   5.271   6.475   3.734 -0.3471 -0.4865 -0.5059
 8793TIP3    H147794   5.337   6.520   3.787 -0.1678 -0.6622 -0.5824
 8793TIP3    H247795   5.189   6.520   3.756 -0.5754 -1.6356  1.2249
 8794TIP3   OH247796   1.125   2.239   6.058 -0.4604 -0.4332  0.2660
 8794TIP3    H147797   1.135   2.304   6.128  1.6619 -1.1195  0.6861
 8794TIP3    H247798   1.204   2.185   6.065  0.4287  0.1652 -3.4149
 8795TIP3   OH247799   1.816   0.635  17.042 -0.1463  0.2157 -0.6112
 8795TIP3    H147800   1.844   0.576  17.113  0.8875 -0.4303 -1.5304
 8795TIP3    H247801   1.890   0.695  17.030 -0.5068  0.6178 -0.8321
 8796TIP3   OH247802   4.603   6.627   3.882  0.0444  0.5293 -0.0152
 8796TIP3    H147803   4.695   6.643   3.859 -0.0695 -0.3437 -1.2002
 8796TIP3    H247804   4.584   6.689   3.952  0.7645  2.6417 -1.6003
 8797TIP3   OH247805   3.672   6.361   2.314  0.3366  0.0378  0.2790
 8797TIP3    H147806   3.623   6.289   2.355  0.6983  0.4344  1.4517
 8797TIP3    H247807   3.709   6.410   2.388 -0.0858  1.5607 -0.4737
 8798TIP3   OH247808   1.685   5.744   2.946 -0.1932 -0.6632  0.4492
 8798TIP3    H147809   1.666   5.717   2.856  1.5446  0.5214 -0.3252
 8798TIP3    H247810   1.678   5.840   2.944  3.6611 -0.2312  0.5146
 8799TIP3   OH247811   2.443   3.250   0.362  0.3481 -0.2940 -0.1440
 8799TIP3    H147812   2.349   3.249   0.348  0.4614 -0.7001 -0.9300
 8799TIP3    H247813   2.478   3.297   0.286  0.9448 -2.0933 -1.0545
 8800TIP3   OH247814   5.425   4.340  11.685  0.2654 -0.0311 -0.1554
 8800TIP3    H147815   5.471   4.322  11.767  0.5727 -1.4637 -0.6030
 8800TIP3    H247816   5.464   4.279  11.622  0.4239  1.4143 -1.5253
 8801TIP3   OH247817   3.101   1.324  14.044  0.1668 -0.1725  0.3017
 8801TIP3    H147818   3.140   1.371  13.970  1.6978 -0.8555  0.6250
 8801TIP3    H247819   3.056   1.250  14.004  0.6463 -0.3164  0.0154
 8802TIP3   OH247820   4.097   6.086   4.088  0.1574  0.3096  0.1133
 8802TIP3    H147821   4.002   6.083   4.099 -0.0765  0.3329 -1.6359
 8802TIP3    H247822   4.110   6.126   4.001  1.6983 -1.4340 -0.5157
 8803TIP3   OH247823   2.435   5.005   5.342 -0.2355 -0.1428 -0.0481
 8803TIP3    H147824   2.404   5.095   5.332  2.0890  1.0170  2.1810
 8803TIP3    H247825   2.527   5.013   5.366  0.5515 -3.2154 -1.4304
 8804TIP3   OH247826   4.359   2.718   0.291 -0.2542 -0.4931 -0.3674
 8804TIP3    H147827   4.318   2.633   0.272  1.2256 -1.1441 -0.7903
 8804TIP3    H247828   4.304   2.757   0.360 -1.4418 -1.4022 -0.7629
 8805TIP3   OH247829   3.169   4.237  12.113  0.1299  0.0841 -0.6847
 8805TIP3    H147830   3.086   4.215  12.156 -0.5395 -0.6654 -2.2941
 8805TIP3    H247831   3.178   4.332  12.126 -0.8472  0.1302 -0.2600
 8806TIP3   OH247832   1.274   0.301  16.578  0.2247  0.0879  1.0523
 8806TIP3    H147833   1.267   0.364  16.650 -0.4012 -0.7521  1.7558
 8806TIP3    H247834   1.204   0.238  16.595 -0.1166  0.0230 -0.4638
 8807TIP3   OH247835   1.925   5.682  14.069 -0.0416 -0.2184 -0.0050
 8807TIP3    H147836   1.978   5.647  13.998 -0.5709  1.1071 -1.1060
 8807TIP3    H247837   1.907   5.607  14.125  2.3449 -0.8553  0.0117
 8808TIP3   OH247838   2.217   1.596   4.482  0.3105 -0.2463 -0.5242
 8808TIP3    H147839   2.257   1.520   4.439  0.6954 -0.9057  0.9628
 8808TIP3    H247840   2.288   1.634   4.534  0.0517  0.9983 -1.0553
 8809TIP3   OH247841   4.358   2.103   3.646 -0.4385  0.2279 -0.5727
 8809TIP3    H147842   4.424   2.066   3.704  0.0050 -0.2946 -1.3851
 8809TIP3    H247843   4.329   2.029   3.593 -0.6526  0.7406 -1.1870
 8810TIP3   OH247844   4.683   4.221   5.120 -0.3623  0.9154 -0.5986
 8810TIP3    H147845   4.740   4.145   5.106  0.4460  0.8014  2.5719
 8810TIP3    H247846   4.738   4.296   5.097 -0.7861  0.6566 -2.6448
 8811TIP3   OH247847   0.023   5.112  13.845 -0.6143  0.0639  0.2531
 8811TIP3    H147848  -0.014   5.125  13.932  0.1486 -3.5446  1.2894
 8811TIP3    H247849  -0.046   5.068  13.796 -0.7762  1.4153 -0.7897
 8812TIP3   OH247850   0.621   5.141   4.100 -0.5399  0.5745  0.2085
 8812TIP3    H147851   0.598   5.089   4.024  2.0068 -3.0528  1.6155
 8812TIP3    H247852   0.716   5.153   4.093 -0.2674  0.3257  2.6197
 8813TIP3   OH247853   4.316   1.548   2.573  0.4333 -0.2096  0.0363
 8813TIP3    H147854   4.267   1.609   2.517 -1.0300  1.1429  2.6114
 8813TIP3    H247855   4.249   1.488   2.606  1.7847 -3.1430 -2.1116
 8814TIP3   OH247856   1.576   4.109  15.074 -0.0576  0.3583  0.2415
 8814TIP3    H147857   1.604   4.024  15.040 -2.5040 -0.2445 -0.4853
 8814TIP3    H247858   1.501   4.088  15.130 -0.1932  1.9661  0.7058
 8815TIP3   OH247859   5.522   3.903   3.821  0.2811  0.1412  0.2646
 8815TIP3    H147860   5.612   3.936   3.829  0.0675  1.1131 -0.9615
 8815TIP3    H247861   5.532   3.809   3.806  1.1247  0.3217 -0.3499
 8816TIP3   OH247862   2.873   0.941  14.237  0.2711  0.6186 -0.5281
 8816TIP3    H147863   2.813   0.998  14.286  0.8570  1.9836 -1.3292
 8816TIP3    H247864   2.943   0.921  14.298 -0.7047 -0.5645  0.2540
 8817TIP3   OH247865   1.594   1.536  14.978  0.0703 -0.0132  0.2352
 8817TIP3    H147866   1.633   1.623  14.974  0.1445  0.0053  1.2435
 8817TIP3    H247867   1.667   1.478  15.003 -0.6550  0.1472  3.0345
 8818TIP3   OH247868   3.686   3.029  13.115 -0.3218  0.2081  0.0923
 8818TIP3    H147869   3.749   3.028  13.188 -0.4628  1.1010  0.2336
 8818TIP3    H247870   3.628   2.955  13.133  1.0958 -1.0768 -0.4125
 8819TIP3   OH247871   4.177   5.896   5.978 -0.8001 -0.2574  0.0896
 8819TIP3    H147872   4.155   5.989   5.971  2.6879  1.0028  2.8386
 8819TIP3    H247873   4.113   5.861   6.040 -0.3202  1.1599  1.4500
 8820TIP3   OH247874   1.719   3.812   3.382  0.2279 -0.0911  0.4317
 8820TIP3    H147875   1.653   3.875   3.354 -0.2925 -0.2629  1.2228
 8820TIP3    H247876   1.699   3.797   3.474  1.3038 -0.2442  0.6468
 8821TIP3   OH247877   0.845   0.647   0.115  0.4730 -0.5009  0.2631
 8821TIP3    H147878   0.835   0.724   0.059 -0.4358 -0.5552  0.3392
 8821TIP3    H247879   0.933   0.614   0.095 -0.1011 -0.9424 -1.6684
 8822TIP3   OH247880   2.142   2.433  10.777  0.4098 -0.5055 -0.0497
 8822TIP3    H147881   2.087   2.367  10.735  1.7683 -3.0223  1.8438
 8822TIP3    H247882   2.082   2.504  10.799 -1.2715 -1.3987 -1.5190
 8823TIP3   OH247883   2.682   2.135  11.802 -0.1038 -0.2285  0.0627
 8823TIP3    H147884   2.760   2.182  11.832 -0.7588 -0.0734  1.6194
 8823TIP3    H247885   2.710   2.091  11.721  1.0888  1.1841 -0.3287
 8824TIP3   OH247886   0.975   2.802   0.087 -0.1532  0.2854 -0.1898
 8824TIP3    H147887   0.893   2.847   0.109 -0.4289  0.0304 -0.6845
 8824TIP3    H247888   1.020   2.862   0.027  0.1822  0.5750  0.3417
 8825TIP3   OH247889   0.741   2.200  11.839  0.8450  0.6716 -0.1521
 8825TIP3    H147890   0.681   2.252  11.787  0.8482  0.1182 -0.7175
 8825TIP3    H247891   0.686   2.157  11.904  0.0129 -2.3996 -2.6196
 8826TIP3   OH247892   5.216   5.084  10.676 -0.1832 -0.3777  0.1743
 8826TIP3    H147893   5.123   5.070  10.658 -0.3738  1.8199 -0.8115
 8826TIP3    H247894   5.229   5.177  10.662  1.6376 -0.1380  2.8354
 8827TIP3   OH247895   2.405   3.023  16.868 -0.1547  0.0401 -0.1665
 8827TIP3    H147896   2.359   2.958  16.814 -0.6980 -0.0075  0.3402
 8827TIP3    H247897   2.335   3.077  16.904  0.3177  1.1941 -0.9213
 8828TIP3   OH247898   1.791   4.887   3.020 -0.2624  0.6937 -0.2625
 8828TIP3    H147899   1.852   4.814   3.016 -0.5125  0.4476  0.3140
 8828TIP3    H247900   1.842   4.959   3.057 -0.0733  0.7647 -0.6449
 8829TIP3   OH247901   2.511   0.418   5.541  0.0942  0.0547  0.1478
 8829TIP3    H147902   2.607   0.411   5.542  0.1240  0.3467 -0.2702
 8829TIP3    H247903   2.494   0.505   5.506 -0.3322 -0.3491 -0.6731
 8830TIP3   OH247904   2.411   2.650   4.637  0.4981  0.0373 -0.3581
 8830TIP3    H147905   2.438   2.655   4.729 -0.8713  2.1195 -0.0030
 8830TIP3    H247906   2.342   2.584   4.636  1.2637 -0.7883 -0.1210
 8831TIP3   OH247907   4.923   3.449  12.617 -0.8478  0.2081  0.2803
 8831TIP3    H147908   4.881   3.452  12.703  1.1319 -0.1515  1.3266
 8831TIP3    H247909   4.913   3.538  12.583 -3.0846 -0.0500  0.0875
 8832TIP3   OH247910   6.647   3.459  12.872  0.2044  0.7739 -0.2777
 8832TIP3    H147911   6.608   3.388  12.922 -0.6917  2.3020  1.2916
 8832TIP3    H247912   6.683   3.417  12.794  2.6357 -1.8739  2.0929
 8833TIP3   OH247913   4.492   0.994  11.470  0.2461 -0.6063 -0.2176
 8833TIP3    H147914   4.519   1.034  11.387 -0.3382 -1.1163 -0.6622
 8833TIP3    H247915   4.440   0.918  11.444 -0.0763 -0.6795  0.6217
 8834TIP3   OH247916   4.431   5.785  12.846 -0.0367  0.0159 -0.4879
 8834TIP3    H147917   4.520   5.754  12.829 -0.2002 -1.0376  0.4304
 8834TIP3    H247918   4.376   5.707  12.839 -0.6414  0.3082  0.6576
 8835TIP3   OH247919   2.046   6.402  10.951 -0.3010 -0.1619  0.0039
 8835TIP3    H147920   2.100   6.346  10.896  1.5524 -0.1690  1.7067
 8835TIP3    H247921   2.068   6.491  10.924  0.6192 -0.1650  0.6892
 8836TIP3   OH247922   6.547   4.792   0.181 -0.0490 -0.4147  0.4853
 8836TIP3    H147923   6.539   4.834   0.095  1.4995 -1.8542 -0.4311
 8836TIP3    H247924   6.533   4.863   0.243 -2.1506  0.4903 -0.9117
 8837TIP3   OH247925   2.803   2.222  11.482 -0.2135  0.1967 -0.1292
 8837TIP3    H147926   2.815   2.220  11.387 -0.3256 -0.0722 -0.1367
 8837TIP3    H247927   2.892   2.233  11.517 -0.2037  0.6227 -0.2729
 8838TIP3   OH247928   3.569   4.060   3.680  0.3503  0.2981 -0.0243
 8838TIP3    H147929   3.649   4.022   3.644  0.4754 -0.5599  1.1239
 8838TIP3    H247930   3.498   4.015   3.633  0.5197  0.2145 -0.2019
 8839TIP3   OH247931   1.591   4.200   1.428 -0.4113  0.7236 -0.7588
 8839TIP3    H147932   1.598   4.105   1.421  1.9722  0.6665  1.2358
 8839TIP3    H247933   1.525   4.214   1.496 -0.5279  0.4829 -0.8217
 8840TIP3   OH247934   3.921   4.387  14.986  0.6090  0.7400 -0.1499
 8840TIP3    H147935   3.893   4.474  14.956  1.1830  1.1156  0.3933
 8840TIP3    H247936   3.934   4.396  15.080  0.0596 -0.1076  0.0214
 8841TIP3   OH247937   2.400   5.916   2.532 -0.0468  0.4856  0.1674
 8841TIP3    H147938   2.488   5.892   2.562 -0.5834 -1.5831  0.2486
 8841TIP3    H247939   2.341   5.866   2.589 -1.2011  0.0933 -1.3189
 8842TIP3   OH247940   1.039   4.466  16.553 -0.0043 -0.0552  0.6571
 8842TIP3    H147941   1.130   4.438  16.567  0.3093 -1.0376 -2.5383
 8842TIP3    H247942   0.987   4.394  16.587  0.6086 -1.3488 -0.9965
 8843TIP3   OH247943   4.939   5.964  11.119  0.3334 -0.5101 -0.1226
 8843TIP3    H147944   4.853   5.923  11.106 -0.1322  0.8811 -1.9377
 8843TIP3    H247945   4.925   6.025  11.191  0.0727 -0.9719  0.2276
 8844TIP3   OH247946   4.470   5.917   4.934 -0.0909  0.4842 -0.2950
 8844TIP3    H147947   4.558   5.903   4.900 -0.0882 -1.3759  0.3539
 8844TIP3    H247948   4.437   5.993   4.886  1.6262  0.8206 -0.9945
 8845TIP3   OH247949   6.234   1.225   3.969 -0.4372 -0.3394 -0.0408
 8845TIP3    H147950   6.233   1.214   4.064 -1.1762 -1.9186 -0.1999
 8845TIP3    H247951   6.239   1.136   3.934  2.2650  0.2732 -1.5044
 8846TIP3   OH247952   3.273   2.711  12.729 -0.2206  0.1661  0.1447
 8846TIP3    H147953   3.271   2.658  12.809 -0.6946 -1.2276 -0.7455
 8846TIP3    H247954   3.268   2.647  12.658 -0.2243  1.3919 -1.0028
 8847TIP3   OH247955   6.599   2.306  14.290 -0.3466  0.0147 -0.3692
 8847TIP3    H147956   6.640   2.393  14.291 -0.1068 -0.0570  1.7282
 8847TIP3    H247957   6.587   2.286  14.198 -0.9482  2.5344 -0.9203
 8848TIP3   OH247958   1.638   0.789   1.307 -0.3116 -0.0757 -0.1819
 8848TIP3    H147959   1.620   0.743   1.389  1.5336 -1.3964 -0.4591
 8848TIP3    H247960   1.695   0.730   1.258 -0.1369  1.3356 -1.7746
 8849TIP3   OH247961   6.400   6.216  15.322  0.2498 -0.0564 -0.7479
 8849TIP3    H147962   6.338   6.271  15.275 -1.0707 -0.3532  0.5700
 8849TIP3    H247963   6.483   6.265  15.319 -0.0829  0.4520 -2.3500
 8850TIP3   OH247964   1.644   2.468  14.569  0.8390 -0.4428  0.1246
 8850TIP3    H147965   1.578   2.498  14.631  0.1268 -0.2648 -0.7072
 8850TIP3    H247966   1.720   2.446  14.624  0.3092 -0.0683  1.0283
 8851TIP3   OH247967   6.097   6.446   5.491 -0.2354 -0.0044 -0.0473
 8851TIP3    H147968   6.098   6.361   5.447  1.4317 -0.6047  1.0704
 8851TIP3    H247969   6.098   6.426   5.584  1.6862  1.1871  0.2439
 8852TIP3   OH247970   5.081   5.688   6.195 -0.2669 -0.5623  0.0576
 8852TIP3    H147971   5.086   5.782   6.212  1.4360 -0.5566 -0.2871
 8852TIP3    H247972   4.988   5.671   6.181 -0.6304  1.0254  0.3183
 8853TIP3   OH247973   2.509   3.949  10.933  0.0319  0.4983 -0.7045
 8853TIP3    H147974   2.419   3.979  10.945 -0.0076 -0.2700  1.1563
 8853TIP3    H247975   2.553   4.024  10.892 -0.6010  2.3115  1.6743
 8854TIP3   OH247976   5.078   1.907   5.945 -0.0813 -0.1554 -0.2538
 8854TIP3    H147977   5.068   1.962   6.022 -0.5924  0.5851 -0.8253
 8854TIP3    H247978   5.158   1.857   5.961 -0.1289  0.0540  0.7038
 8855TIP3   OH247979   0.412   1.491   3.949  1.1388  0.0697  0.0158
 8855TIP3    H147980   0.474   1.556   3.981  0.4824  0.4809  0.4892
 8855TIP3    H247981   0.408   1.425   4.019  1.9438 -0.5864 -0.5453
 8856TIP3   OH247982   2.234   2.979   0.911  0.3951  0.6563 -0.1540
 8856TIP3    H147983   2.252   2.933   0.992 -1.9258 -1.4887 -0.7218
 8856TIP3    H247984   2.150   3.022   0.926 -0.7006 -0.7898 -1.7068
 8857TIP3   OH247985   0.514   4.400  11.330 -0.6447 -0.0660 -0.3964
 8857TIP3    H147986   0.490   4.311  11.306 -0.9463  0.0514 -0.5299
 8857TIP3    H247987   0.609   4.396  11.346 -0.5589 -0.2933 -0.9406
 8858TIP3   OH247988   2.850   3.894   4.049 -0.3924 -0.2179 -0.0914
 8858TIP3    H147989   2.889   3.956   3.987  0.9732  0.2615  1.1848
 8858TIP3    H247990   2.787   3.946   4.098 -1.0251 -0.4488 -0.6470
 8859TIP3   OH247991   0.371   2.430   4.764  0.1506 -0.1626 -0.2029
 8859TIP3    H147992   0.393   2.495   4.830 -1.5070 -0.7628  1.0157
 8859TIP3    H247993   0.314   2.368   4.810 -0.2035 -1.1714 -1.9296
 8860TIP3   OH247994   5.671   4.299  15.729  0.1415 -0.2491  0.3711
 8860TIP3    H147995   5.623   4.381  15.737  0.0356 -0.3170  0.4444
 8860TIP3    H247996   5.658   4.273  15.637  0.4333 -0.0291  0.2686
 8861TIP3   OH247997   4.516   5.506  15.556  0.8234  0.0745  0.1250
 8861TIP3    H147998   4.428   5.543  15.560  0.0450 -1.7610  1.2169
 8861TIP3    H247999   4.551   5.516  15.644  0.9493 -0.9010  0.2020
 8862TIP3   OH248000   0.127   3.473  11.623  0.2392 -0.4350  0.5587
 8862TIP3    H148001   0.205   3.429  11.590  0.8599  1.8155 -1.1773
 8862TIP3    H248002   0.160   3.549  11.670 -0.8715 -0.5325  1.5662
 8863TIP3   OH248003   5.699   1.303  16.883 -0.6363  0.0343  0.1708
 8863TIP3    H148004   5.717   1.210  16.891  0.5572  0.2673  0.4072
 8863TIP3    H248005   5.605   1.311  16.901 -0.5304 -0.9794  1.2970
 8864TIP3   OH248006   5.796   6.517   1.366 -0.7663  0.2947 -0.4595
 8864TIP3    H148007   5.783   6.607   1.336 -0.1293  1.2849  2.0247
 8864TIP3    H248008   5.708   6.480   1.371 -1.1829  1.3116 -0.0496
 8865TIP3   OH248009   5.500   3.153   3.034  0.3094 -0.1246  0.1611
 8865TIP3    H148010   5.498   3.065   2.997  1.1152 -0.7084  1.4432
 8865TIP3    H248011   5.585   3.158   3.079 -0.0675  1.0155  0.7792
 8866TIP3   OH248012   1.856   1.055   2.129  0.1330  0.4438  0.2482
 8866TIP3    H148013   1.771   1.088   2.157 -0.0836  0.6422 -0.6192
 8866TIP3    H248014   1.837   0.967   2.094  0.2221  0.6297 -0.2766
 8867TIP3   OH248015   6.028   5.679   3.849  0.2352 -0.3592 -0.3035
 8867TIP3    H148016   6.074   5.655   3.769 -1.1383 -3.2910 -0.3329
 8867TIP3    H248017   6.035   5.602   3.905 -2.3425  0.0216  0.6996
 8868TIP3   OH248018   1.931   6.718   3.012 -0.2037 -0.1359 -0.4833
 8868TIP3    H148019   1.924   6.757   3.099  0.3221 -2.3498  0.6204
 8868TIP3    H248020   2.020   6.682   3.009 -0.7112 -1.3795 -1.3441
 8869TIP3   OH248021   2.331   1.014   4.935  0.0230  0.2779 -0.1969
 8869TIP3    H148022   2.374   1.057   5.009 -1.4641 -0.3023  1.0614
 8869TIP3    H248023   2.379   1.045   4.858  2.0639  0.3648  1.0370
 8870TIP3   OH248024   1.352   4.056   0.554  0.4330 -0.0312  0.4488
 8870TIP3    H148025   1.403   4.128   0.590  1.3550  0.4408 -1.6423
 8870TIP3    H248026   1.416   3.999   0.511 -0.5746 -0.4480 -0.5937
 8871TIP3   OH248027   1.108   2.144  13.906  0.2365  0.0591 -0.6314
 8871TIP3    H148028   1.170   2.183  13.968  0.0169 -0.0742 -0.3305
 8871TIP3    H248029   1.093   2.056  13.939 -0.0689  0.0697 -0.7391
 8872TIP3   OH248030   1.987   2.454  12.918  0.1327 -1.0784  0.3302
 8872TIP3    H148031   2.038   2.373  12.919  1.4227 -0.3608 -1.7337
 8872TIP3    H248032   2.053   2.524  12.924 -0.6858 -0.1489 -0.9600
 8873TIP3   OH248033   5.480   1.882   0.586  0.4750 -0.1987 -0.0552
 8873TIP3    H148034   5.571   1.890   0.615  0.4560 -0.6420  0.1441
 8873TIP3    H248035   5.485   1.836   0.502  0.4734  0.3235 -0.3433
 8874TIP3   OH248036   2.218   1.558  11.236 -0.0882  0.3136 -0.0585
 8874TIP3    H148037   2.219   1.591  11.326  1.2007 -0.4469  0.2368
 8874TIP3    H248038   2.125   1.549  11.215 -0.4165  0.1454  1.3342
 8875TIP3   OH248039   4.214   1.313   3.438  0.0990  0.3405 -0.0792
 8875TIP3    H148040   4.130   1.298   3.482  0.4140 -1.0594  0.0990
 8875TIP3    H248041   4.254   1.226   3.434  0.8200  0.7195 -1.6366
 8876TIP3   OH248042   2.775   5.549   0.038 -0.3199 -0.2282 -0.2110
 8876TIP3    H148043   2.836   5.548  -0.036  1.0189 -0.4781  0.8592
 8876TIP3    H248044   2.741   5.638   0.040  1.1244  0.3459  0.0383
 8877TIP3   OH248045   3.177   4.456  13.127  0.0056 -0.5134  0.0274
 8877TIP3    H148046   3.224   4.516  13.069 -0.9874  1.1553  0.8525
 8877TIP3    H248047   3.199   4.369  13.095 -0.3740  0.3142 -2.7720
 8878TIP3   OH248048   2.373   3.024  11.841 -0.1567  0.6632 -0.1319
 8878TIP3    H148049   2.340   2.958  11.780 -0.4833  1.3457 -0.7225
 8878TIP3    H248050   2.466   3.032  11.820  0.0247 -0.0472  0.3703
 8879TIP3   OH248051   2.107   5.187  11.991 -0.1960 -0.0182  0.1261
 8879TIP3    H148052   2.081   5.232  12.071 -1.4465  0.7550 -0.6868
 8879TIP3    H248053   2.202   5.178  11.998 -0.2747  0.1468  1.6242
 8880TIP3   OH248054   1.078   4.338   0.797 -0.2128  0.0119  0.2740
 8880TIP3    H148055   1.144   4.282   0.838 -1.2134 -1.2445  0.2269
 8880TIP3    H248056   1.128   4.411   0.760  1.1795 -1.0694 -0.0473
 8881TIP3   OH248057   5.492   2.010   5.956  0.1965  0.0600  0.4497
 8881TIP3    H148058   5.480   2.047   6.044 -1.9203  0.9133 -0.1417
 8881TIP3    H248059   5.422   1.946   5.947  0.1804  0.2299 -0.7426
 8882TIP3   OH248060   0.076   1.479  15.189  0.1141  0.1985 -0.1715
 8882TIP3    H148061   0.104   1.436  15.109 -1.0212  0.3534 -0.6609
 8882TIP3    H248062   0.038   1.562  15.160  0.0436  0.4310  0.5578
 8883TIP3   OH248063   5.499   0.243   5.971 -0.2608  0.2254  0.0574
 8883TIP3    H148064   5.417   0.199   5.945 -0.2683 -0.9367  1.8362
 8883TIP3    H248065   5.470   0.319   6.021 -0.2592  0.3014 -0.0584
 8884TIP3   OH248066   0.148   5.853   4.672  0.2625  0.1247  0.8339
 8884TIP3    H148067   0.106   5.937   4.691 -0.3495  0.5390 -1.9383
 8884TIP3    H248068   0.081   5.803   4.625  1.3759 -1.0226  0.4142
 8885TIP3   OH248069   6.689   0.502   5.513 -0.3530 -0.1441 -0.1148
 8885TIP3    H148070   6.664   0.410   5.521 -0.1853 -0.2143 -0.3688
 8885TIP3    H248071   6.613   0.551   5.543 -0.6122 -0.3588 -0.4197
 8886TIP3   OH248072   4.820   6.385  16.128 -0.0228 -0.3815 -0.3352
 8886TIP3    H148073   4.767   6.308  16.110 -2.5370  0.3354  2.9409
 8886TIP3    H248074   4.757   6.457  16.136  1.6685  1.0516  1.3014
 8887TIP3   OH248075   6.626   4.779   1.896  0.2067 -0.1925 -0.4615
 8887TIP3    H148076   6.647   4.871   1.909  0.7927 -0.3994  0.1375
 8887TIP3    H248077   6.701   4.732   1.931 -0.0844 -0.9016 -0.7620
 8888TIP3   OH248078   3.357   5.779  12.103 -0.0792  0.5948 -0.3331
 8888TIP3    H148079   3.283   5.719  12.111 -0.7905  1.4572 -0.3138
 8888TIP3    H248080   3.353   5.810  12.013 -0.5512  1.6598  0.0441
 8889TIP3   OH248081   0.841   4.280  11.634 -0.3855  0.0179 -0.3526
 8889TIP3    H148082   0.774   4.337  11.672 -0.0375  0.1446  0.0868
 8889TIP3    H248083   0.800   4.243  11.556 -0.6967  0.6987 -0.5260
 8890TIP3   OH248084   1.997   5.225   4.424 -0.4045  0.4874  0.2166
 8890TIP3    H148085   2.006   5.210   4.330 -1.3480 -1.1540  0.3484
 8890TIP3    H248086   1.910   5.264   4.434 -0.4783  0.2709  0.4420
 8891TIP3   OH248087   5.858   1.390  12.468  0.3668 -0.0403 -0.4026
 8891TIP3    H148088   5.885   1.306  12.432  1.4101  0.2926 -0.4150
 8891TIP3    H248089   5.878   1.454  12.400  2.9120  0.6822  0.9087
 8892TIP3   OH248090   0.531   5.206   5.743  0.0988 -0.6900 -1.1144
 8892TIP3    H148091   0.627   5.212   5.747  0.1109 -0.5446 -1.5271
 8892TIP3    H248092   0.502   5.243   5.826  0.4426 -2.1524 -0.3137
 8893TIP3   OH248093   6.744   0.310   1.941 -0.0943 -0.4894 -0.4578
 8893TIP3    H148094   6.747   0.302   2.036  2.5351  3.5118  0.0630
 8893TIP3    H248095   6.660   0.353   1.924  0.1629  0.3581  0.3154
 8894TIP3   OH248096   0.096   1.865  13.090  0.3236 -0.1746  0.4617
 8894TIP3    H148097   0.041   1.793  13.121 -0.8680  0.7498  0.5689
 8894TIP3    H248098   0.035   1.935  13.070  1.5081  1.1987  1.3962
 8895TIP3   OH248099   3.942   5.460  16.815 -0.1171 -0.1703  0.1822
 8895TIP3    H148100   3.969   5.521  16.883  2.3443 -1.4482  0.4743
 8895TIP3    H248101   3.864   5.418  16.851 -0.4675  1.1084  0.9852
 8896TIP3   OH248102   5.858   4.014   6.007 -0.4795 -0.6085 -0.1089
 8896TIP3    H148103   5.908   3.966   5.941 -0.5833 -1.2353  0.2619
 8896TIP3    H248104   5.782   4.048   5.960  0.5571  0.8327 -0.8117
 8897TIP3   OH248105   5.214   4.395   0.625 -0.1361 -0.2276  0.1418
 8897TIP3    H148106   5.149   4.345   0.674  1.1303 -2.0809  0.0400
 8897TIP3    H248107   5.291   4.338   0.622  0.5140  0.6382 -2.2613
 8898TIP3   OH248108   3.279   2.783  14.954 -0.0807  0.1814  0.6286
 8898TIP3    H148109   3.264   2.804  14.862  0.9261 -0.2335  0.3663
 8898TIP3    H248110   3.212   2.717  14.975  0.8486 -1.0958 -0.3246
 8899TIP3   OH248111   0.112   2.296   4.912  0.2442  0.4808 -0.4163
 8899TIP3    H148112   0.141   2.206   4.902  0.1336  0.6508 -2.8812
 8899TIP3    H248113   0.046   2.292   4.981  0.0847 -1.3666 -0.6224
 8900TIP3   OH248114   1.141   5.091  11.055  0.0703  0.1269 -0.1412
 8900TIP3    H148115   1.181   5.039  10.986 -0.0395  1.2028 -1.0372
 8900TIP3    H248116   1.176   5.179  11.042  1.8530 -0.0490  2.5714
 8901TIP3   OH248117   5.072   6.455  14.363  0.2052 -0.4294 -0.6481
 8901TIP3    H148118   5.107   6.369  14.340 -0.9877 -0.7166 -1.4671
 8901TIP3    H248119   4.998   6.436  14.421 -0.7517 -0.0413 -1.7018
 8902TIP3   OH248120   4.361   2.781  12.980  0.4236  0.0024  0.2989
 8902TIP3    H148121   4.326   2.845  12.917  1.6055  0.6135  0.2333
 8902TIP3    H248122   4.359   2.827  13.064 -1.5558 -0.9610  0.8392
 8903TIP3   OH248123   2.043   5.477   6.117  0.2499  0.1802 -0.4434
 8903TIP3    H148124   2.130   5.495   6.152  0.6765 -0.7359 -1.0057
 8903TIP3    H248125   2.012   5.402   6.169 -0.6309  1.1096  0.4315
 8904TIP3   OH248126   5.289   0.254   1.069 -0.4848 -0.4856  0.1029
 8904TIP3    H148127   5.209   0.257   1.016 -2.0314  1.8890  2.3465
 8904TIP3    H248128   5.355   0.217   1.010 -2.1971  1.3700 -3.3064
 8905TIP3   OH248129   1.199   6.789  16.628 -0.4390 -0.3390  0.0434
 8905TIP3    H148130   1.252   6.712  16.648 -0.6723 -0.1377  1.5543
 8905TIP3    H248131   1.200   6.795  16.532 -1.2259 -2.7746 -0.1657
 8906TIP3   OH248132   6.191   2.329  10.991  0.0133  0.0799  0.5341
 8906TIP3    H148133   6.191   2.411  10.942 -1.0416 -0.2902 -0.1265
 8906TIP3    H248134   6.115   2.335  11.049 -1.3438 -1.2102 -0.9746
 8907TIP3   OH248135   3.087   0.164   6.304  0.3181  0.0818 -0.5586
 8907TIP3    H148136   3.107   0.251   6.338 -1.2456  0.5220 -0.6585
 8907TIP3    H248137   3.078   0.177   6.210  1.0074 -0.3823 -0.6894
 8908TIP3   OH248138   5.761   5.445  15.911 -0.1395  0.1160  0.4026
 8908TIP3    H148139   5.768   5.397  15.993  0.2917  3.1289  2.2616
 8908TIP3    H248140   5.838   5.502  15.909 -1.4538  1.9900 -0.7761
 8909TIP3   OH248141   0.467   6.430   6.193  0.2007  0.7417  0.0304
 8909TIP3    H148142   0.491   6.417   6.102  0.8729 -0.8534  0.3968
 8909TIP3    H248143   0.389   6.377   6.206 -0.6373  1.9408  0.1074
 8910TIP3   OH248144   1.571   0.501   1.132 -0.3680  0.0535  0.1506
 8910TIP3    H148145   1.552   0.498   1.226 -0.6419  0.6206  0.1166
 8910TIP3    H248146   1.654   0.547   1.126  1.0075 -2.2381  0.2842
 8911TIP3   OH248147   4.615   4.149  17.098 -0.0694  0.3005  0.3448
 8911TIP3    H148148   4.690   4.199  17.130  0.0606  0.4258 -0.1456
 8911TIP3    H248149   4.652   4.067  17.065 -0.3011 -0.1997  1.2968
 8912TIP3   OH248150   6.016   5.737   1.714  0.5066 -0.3112  0.1817
 8912TIP3    H148151   5.993   5.687   1.792 -0.7677  1.2167  0.8535
 8912TIP3    H248152   6.072   5.808   1.746 -1.7978  1.6350  0.1676
 8913TIP3   OH248153   1.214   5.439  13.893  0.0884  0.2745 -0.5879
 8913TIP3    H148154   1.229   5.378  13.966  2.2309 -0.1757 -1.3263
 8913TIP3    H248155   1.300   5.476  13.875 -0.6982  1.5795 -1.8781
 8914TIP3   OH248156   6.469   3.743  13.120 -0.1922 -0.0469 -0.8848
 8914TIP3    H148157   6.503   3.669  13.171 -0.1079  0.2486 -0.5055
 8914TIP3    H248158   6.382   3.759  13.156  0.2398  0.7780 -0.1613
 8915TIP3   OH248159   0.031   2.313   5.657  0.5167 -0.1224 -0.1897
 8915TIP3    H148160  -0.051   2.322   5.706 -0.0690  0.8527 -1.3075
 8915TIP3    H248161   0.095   2.363   5.708  0.1654  0.0082  0.1247
 8916TIP3   OH248162   1.223   6.102   6.292  0.1659 -0.2723 -0.4172
 8916TIP3    H148163   1.236   6.172   6.229  1.4449 -0.9292 -0.9225
 8916TIP3    H248164   1.290   6.037   6.270  0.4574 -0.6510  1.4307
 8917TIP3   OH248165   5.306   2.138  11.375  0.2553  0.1659  0.0377
 8917TIP3    H148166   5.340   2.059  11.332 -1.3630 -0.1180 -0.7674
 8917TIP3    H248167   5.345   2.210  11.325  0.2406 -0.1439 -0.4301
 8918TIP3   OH248168   5.971   0.621   0.061  0.2167 -0.8635 -0.0074
 8918TIP3    H148169   5.953   0.529   0.082 -0.5713 -0.3596  1.6820
 8918TIP3    H248170   6.065   0.631   0.075  0.0553 -1.0632  1.3868
 8919TIP3   OH248171   1.473   0.726  13.347  0.0305 -0.6106 -0.3835
 8919TIP3    H148172   1.523   0.709  13.428  1.9130  0.6229 -1.2179
 8919TIP3    H248173   1.427   0.644  13.331  1.3110 -1.6290  0.7974
 8920TIP3   OH248174   3.107   6.089   0.496  0.5625 -0.4603  0.1421
 8920TIP3    H148175   3.183   6.139   0.468 -0.3269  1.0260  0.2830
 8920TIP3    H248176   3.138   6.037   0.571  1.2907  0.5983  0.5943
 8921TIP3   OH248177   1.275   4.588  16.888 -0.1854  0.2714 -0.4794
 8921TIP3    H148178   1.346   4.547  16.937 -0.2816  0.8666  0.1654
 8921TIP3    H248179   1.198   4.535  16.909  0.3077 -1.3221 -2.3830
 8922TIP3   OH248180   1.404   0.629  10.758 -0.3860  0.1845  0.2889
 8922TIP3    H148181   1.485   0.670  10.790 -0.0119 -0.4955  0.2276
 8922TIP3    H248182   1.338   0.697  10.768  0.7295  1.8445 -2.3897
 8923TIP3   OH248183   2.455   3.166  14.814  0.3940  0.5729  0.1518
 8923TIP3    H148184   2.511   3.228  14.767  1.3125 -0.7293 -0.5353
 8923TIP3    H248185   2.497   3.081  14.802 -0.1386 -0.0328  2.1451
 8924TIP3   OH248186   4.536   1.593   6.032 -0.7889  0.3030 -0.1692
 8924TIP3    H148187   4.493   1.679   6.036 -0.3674  0.5826 -1.4491
 8924TIP3    H248188   4.602   1.597   6.101 -0.9030  0.9397 -0.0845
 8925TIP3   OH248189   4.852   2.371   4.333 -0.0711  0.4317  0.4267
 8925TIP3    H148190   4.922   2.381   4.398  0.5774 -2.0322  0.2321
 8925TIP3    H248191   4.798   2.300   4.368 -2.3157  2.0370  0.3732
 8926TIP3   OH248192   4.822   2.248   0.651 -0.1678  0.1673 -0.6075
 8926TIP3    H148193   4.747   2.297   0.618  0.2394  0.2685 -1.3964
 8926TIP3    H248194   4.898   2.301   0.626  0.2724 -0.8016 -1.3472
 8927TIP3   OH248195   4.299   1.111   1.499  0.1388  1.0167 -0.2555
 8927TIP3    H148196   4.231   1.178   1.500  0.3404  1.2266 -0.4884
 8927TIP3    H248197   4.380   1.159   1.513  0.3660  0.9208 -1.1887
 8928TIP3   OH248198   5.413   5.254   2.816  0.0517  0.3018 -0.4934
 8928TIP3    H148199   5.444   5.334   2.859  0.9658 -1.1402  1.7446
 8928TIP3    H248200   5.317   5.258   2.825  0.1769  0.2805  1.4216
 8929TIP3   OH248201   3.452   1.849  14.475  0.1113 -0.9881 -0.5793
 8929TIP3    H148202   3.476   1.819  14.562  2.2490 -1.0447 -1.1412
 8929TIP3    H248203   3.529   1.832  14.421 -1.0884 -0.7895 -2.4594
 8930TIP3   OH248204   0.766   0.741   2.574 -0.2343  0.0662  0.4047
 8930TIP3    H148205   0.851   0.779   2.595 -0.0974  0.2497 -0.4444
 8930TIP3    H248206   0.702   0.805   2.604 -0.1257 -0.4911  1.9108
 8931TIP3   OH248207   1.692   0.542  11.433 -0.5718 -0.3691  0.6299
 8931TIP3    H148208   1.669   0.472  11.371 -0.9754 -0.9626  1.4254
 8931TIP3    H248209   1.614   0.597  11.438 -0.8493 -0.8064  1.2393
 8932TIP3   OH248210   5.859   6.516  12.146 -0.4368  0.1135 -0.6169
 8932TIP3    H148211   5.770   6.550  12.138 -0.5843 -0.1631 -0.2317
 8932TIP3    H248212   5.901   6.573  12.211  0.2596  1.3851 -2.1144
 8933TIP3   OH248213   1.537   3.396  15.741 -0.0538 -0.2199 -0.3508
 8933TIP3    H148214   1.578   3.363  15.661  2.7369 -1.3320  1.4029
 8933TIP3    H248215   1.547   3.491  15.736  2.3240 -0.4268 -0.2611
 8934TIP3   OH248216   4.409   4.481   0.556 -0.4422 -0.7161  0.3061
 8934TIP3    H148217   4.393   4.558   0.612 -1.0590 -0.2306 -0.5136
 8934TIP3    H248218   4.323   4.439   0.549 -0.4860 -0.4868 -0.6712
 8935TIP3   OH248219   1.462   4.013   0.840 -0.5265 -0.5637  0.1498
 8935TIP3    H148220   1.535   4.003   0.779 -1.9161 -0.2938 -1.6812
 8935TIP3    H248221   1.440   3.924   0.866  2.1439 -0.5352  2.9958
 8936TIP3   OH248222   5.106   5.096  11.422 -0.1141 -0.6669 -0.1628
 8936TIP3    H148223   5.053   5.018  11.405  0.4616 -1.1652  0.2691
 8936TIP3    H248224   5.052   5.149  11.480 -0.8965 -0.2975 -1.2044
 8937TIP3   OH248225   2.039   6.772   0.582 -0.5005  0.3894  0.4367
 8937TIP3    H148226   1.970   6.722   0.624  0.6670 -1.1540  0.6026
 8937TIP3    H248227   2.066   6.719   0.507  1.8665 -0.1063  1.5385
 8938TIP3   OH248228   0.472   0.627  15.600  0.1146  0.0272 -0.0377
 8938TIP3    H148229   0.419   0.698  15.636  1.8432  1.8965 -0.9920
 8938TIP3    H248230   0.408   0.560  15.574 -1.5934  1.3275  0.6538
 8939TIP3   OH248231   5.820   1.689   2.934 -0.2474  0.3691  0.8878
 8939TIP3    H148232   5.883   1.618   2.919 -0.5917 -0.1183  1.6739
 8939TIP3    H248233   5.816   1.735   2.851 -0.0350 -0.5522  0.3471
 8940TIP3   OH248234   2.509   0.238   3.108  0.3496  0.3368  0.4499
 8940TIP3    H148235   2.530   0.154   3.148  0.6512 -0.5714 -1.5034
 8940TIP3    H248236   2.413   0.241   3.109  0.3328 -0.0922  0.4264
 8941TIP3   OH248237   1.090   2.335   2.323  0.2617 -0.1469  0.4894
 8941TIP3    H148238   1.119   2.261   2.269  2.2877 -0.4067  1.8394
 8941TIP3    H248239   1.084   2.408   2.262  0.1352 -0.9662 -0.5128
 8942TIP3   OH248240   2.745   2.534   4.582  0.0741 -0.0587  0.0283
 8942TIP3    H148241   2.818   2.488   4.540 -0.4542 -0.2853 -0.6562
 8942TIP3    H248242   2.675   2.534   4.517  0.0666  1.7675 -0.0006
 8943TIP3   OH248243   3.233   3.684   3.992 -0.3729  0.8933 -0.4270
 8943TIP3    H148244   3.257   3.776   3.987  2.0829  0.2917 -0.8476
 8943TIP3    H248245   3.265   3.646   3.909 -1.6732 -0.2793 -0.4315
 8944TIP3   OH248246   6.032   0.322  16.352  0.2574  0.2522  0.1120
 8944TIP3    H148247   6.031   0.249  16.290  1.2035  0.0298  0.3461
 8944TIP3    H248248   6.013   0.281  16.436  0.2305  0.3669  0.1605
 8945TIP3   OH248249   1.450   6.091   3.357  0.0294 -0.2373  0.1100
 8945TIP3    H148250   1.385   6.021   3.362  1.2556 -1.3554  0.9566
 8945TIP3    H248251   1.441   6.139   3.440  0.1128 -0.2322  0.1165
 8946TIP3   OH248252   3.817   6.409  10.547 -0.6942 -0.0754 -0.0373
 8946TIP3    H148253   3.854   6.439  10.630 -1.1423 -1.9677  0.9065
 8946TIP3    H248254   3.774   6.486  10.510  1.1562  1.3005  0.5056
 8947TIP3   OH248255   3.426   4.314   4.223 -0.5943  0.4237 -0.9561
 8947TIP3    H148256   3.386   4.241   4.271  0.7683 -0.8458 -1.6943
 8947TIP3    H248257   3.459   4.372   4.292 -0.4225 -0.3805 -0.3382
 8948TIP3   OH248258   1.322   6.778   6.348 -0.2911 -0.3198 -0.3297
 8948TIP3    H148259   1.321   6.683   6.335 -3.1378 -0.5585  0.8537
 8948TIP3    H248260   1.233   6.799   6.377  0.5604  2.5696  0.5186
 8949TIP3   OH248261   3.203   6.704   4.029 -0.0852  0.5381 -0.1528
 8949TIP3    H148262   3.163   6.627   3.988  0.2900  1.6873 -2.9049
 8949TIP3    H248263   3.297   6.684   4.028 -0.1708 -0.4079  2.4990
 8950TIP3   OH248264   0.283   4.452   1.570  0.5285 -0.2116  0.0328
 8950TIP3    H148265   0.207   4.486   1.522  1.5488  2.1224 -0.0305
 8950TIP3    H248266   0.245   4.409   1.646 -0.8700  2.8546  1.2329
 8951TIP3   OH248267   2.834   2.936  13.677 -0.0416  0.5575 -0.2220
 8951TIP3    H148268   2.793   2.959  13.760 -1.4281 -0.2921 -0.6265
 8951TIP3    H248269   2.923   2.972  13.682 -0.4099  1.3173  1.2329
 8952TIP3   OH248270   2.862   0.365   4.558  0.2269 -0.0495  0.0154
 8952TIP3    H148271   2.886   0.395   4.471 -0.1715 -1.8592 -0.7586
 8952TIP3    H248272   2.930   0.401   4.615  0.1727  1.6380 -0.9219
 8953TIP3   OH248273   3.019   1.239  12.421  0.0388  0.1725  0.7889
 8953TIP3    H148274   2.979   1.319  12.455  0.5933  0.7942  0.0119
 8953TIP3    H248275   3.083   1.214  12.488  0.8735  1.1922  0.4073
 8954TIP3   OH248276   1.329   4.526   4.272  0.3249  0.6744  0.1973
 8954TIP3    H148277   1.332   4.542   4.366  0.6673  0.4608  0.2259
 8954TIP3    H248278   1.260   4.461   4.260  1.3140 -0.4792  0.4855
 8955TIP3   OH248279   0.252   6.679   3.523  0.4282  0.0326  0.1925
 8955TIP3    H148280   0.318   6.650   3.586  0.0087  0.3868  0.8067
 8955TIP3    H248281   0.291   6.753   3.478 -0.0920  1.2190  1.6109
 8956TIP3   OH248282   5.099   1.427  11.794  0.1128 -0.0550 -0.0988
 8956TIP3    H148283   5.042   1.497  11.825 -0.7327 -0.5191 -0.5676
 8956TIP3    H248284   5.078   1.352  11.850  1.3050  0.1626  0.6687
 8957TIP3   OH248285   5.728   4.087   2.951 -0.3348  0.6216 -0.1058
 8957TIP3    H148286   5.675   4.022   2.904  0.7359  0.5660 -1.2932
 8957TIP3    H248287   5.714   4.169   2.904  2.0026  0.2346 -1.5941
 8958TIP3   OH248288   6.133   1.868  12.133 -0.1768 -0.6684  0.3271
 8958TIP3    H148289   6.207   1.827  12.088 -0.5442 -1.8333  0.7589
 8958TIP3    H248290   6.173   1.911  12.209  0.1560 -0.6614  0.1516
 8959TIP3   OH248291   2.389   5.366  15.208 -0.1418  0.4473 -0.4491
 8959TIP3    H148292   2.412   5.448  15.254 -1.4730  0.0489  1.0158
 8959TIP3    H248293   2.321   5.327  15.262  1.0264 -2.0674 -0.6635
 8960TIP3   OH248294   4.888   0.538  12.547 -0.8306 -0.1556  0.0880
 8960TIP3    H148295   4.884   0.576  12.635  0.8978  0.0109  0.1262
 8960TIP3    H248296   4.981   0.522  12.532 -1.1070 -0.3141 -1.6585
 8961TIP3   OH248297   1.387   4.701  13.311 -0.7448  0.1489 -0.8816
 8961TIP3    H148298   1.458   4.741  13.262 -0.5280  0.3150 -0.4380
 8961TIP3    H248299   1.384   4.750  13.393 -0.4767 -0.7352 -0.3366
 8962TIP3   OH248300   3.086   5.856   2.008  0.4468  0.0281 -0.0401
 8962TIP3    H148301   3.076   5.819   2.095  0.8344  0.3629  0.1512
 8962TIP3    H248302   3.181   5.857   1.994  0.3597 -0.7914 -0.7970
 8963TIP3   OH248303   1.877   2.459   1.030  0.5124 -0.1772 -0.2875
 8963TIP3    H148304   1.871   2.432   0.938 -0.5735 -1.5041  0.1429
 8963TIP3    H248305   1.786   2.470   1.058  0.8017 -0.5737  0.8470
 8964TIP3   OH248306   5.153   3.502   1.810  0.5273 -0.6386  0.0823
 8964TIP3    H148307   5.069   3.462   1.832  0.9828 -0.7829  1.6711
 8964TIP3    H248308   5.196   3.438   1.754  0.4863 -1.5807  1.0986
 8965TIP3   OH248309   5.877   1.518  16.966  0.3411  0.3966  0.3871
 8965TIP3    H148310   5.863   1.597  16.914 -0.6505  0.6785  1.0529
 8965TIP3    H248311   5.822   1.451  16.926 -1.3602  0.9291  1.7275
 8966TIP3   OH248312   3.218   0.070   6.549 -0.5377 -0.0837 -0.0099
 8966TIP3    H148313   3.175   0.041   6.468  0.6508 -0.6434 -0.4602
 8966TIP3    H248314   3.254  -0.010   6.587 -1.7942  0.0467  1.5327
 8967TIP3   OH248315   4.610   4.957   1.635 -0.6057  0.1138  0.3450
 8967TIP3    H148316   4.561   5.017   1.579  0.8042  2.5318  1.5135
 8967TIP3    H248317   4.694   5.002   1.650  0.3191 -1.9388  1.7498
 8968TIP3   OH248318   4.712   5.385   1.392 -0.4126  0.1886 -0.0017
 8968TIP3    H148319   4.697   5.321   1.323  0.2729  1.0291 -0.9666
 8968TIP3    H248320   4.726   5.468   1.346  0.9003  0.6223  1.1006
 8969TIP3   OH248321   6.710   1.867   4.068  0.5293 -0.1928  0.3475
 8969TIP3    H148322   6.639   1.806   4.049  0.7572  0.1655 -1.9162
 8969TIP3    H248323   6.786   1.831   4.024  0.8547  1.2672 -0.3738
 8970TIP3   OH248324   2.326   6.427  10.360  1.0191  0.5102 -0.1302
 8970TIP3    H148325   2.350   6.469  10.443  0.8617  0.3181  0.0122
 8970TIP3    H248326   2.298   6.339  10.385  1.2040  0.3699 -0.4130
 8971TIP3   OH248327   4.153   4.704   1.696 -0.0591 -0.2578 -0.1922
 8971TIP3    H148328   4.089   4.670   1.759 -1.6574 -0.3092 -1.7631
 8971TIP3    H248329   4.100   4.752   1.632  1.4521 -0.4945 -1.6795
 8972TIP3   OH248330   3.138   3.963   3.418  0.2388 -0.1411  0.3982
 8972TIP3    H148331   3.096   3.890   3.373 -0.2110  0.6419 -0.4717
 8972TIP3    H248332   3.133   3.939   3.511  0.6115 -1.4708  0.1026
 8973TIP3   OH248333   3.461   6.113  11.258 -0.5794 -0.5721 -0.1943
 8973TIP3    H148334   3.483   6.185  11.316 -1.2811 -1.1965  0.8809
 8973TIP3    H248335   3.376   6.136  11.221 -0.9457 -0.9827  0.3856
 8974TIP3   OH248336   5.230   5.568  12.355  0.2162 -0.7179 -0.3056
 8974TIP3    H148337   5.181   5.581  12.437  1.3506 -0.5735  0.3790
 8974TIP3    H248338   5.198   5.637  12.297  0.0364 -0.2479  0.3347
 8975TIP3   OH248339   1.884   4.943  12.568 -0.1934  0.2369  0.5696
 8975TIP3    H148340   1.956   4.983  12.615 -0.5894  2.2427 -0.4294
 8975TIP3    H248341   1.812   4.940  12.631  0.4989 -1.0719  1.3351
 8976TIP3   OH248342   2.504   4.747  14.604  0.2882  0.4814  0.3995
 8976TIP3    H148343   2.443   4.673  14.601  0.2639  0.5119  0.1017
 8976TIP3    H248344   2.537   4.754  14.514  0.9290  0.2970  0.6116
 8977TIP3   OH248345   1.419   0.906   1.234  0.7989  0.4636 -0.0507
 8977TIP3    H148346   1.499   0.879   1.278 -0.2628  0.0755  1.7335
 8977TIP3    H248347   1.383   0.976   1.288 -0.2211  0.4163 -0.6340
 8978TIP3   OH248348   5.380   5.236  16.524  0.1140 -0.4832  0.4408
 8978TIP3    H148349   5.421   5.154  16.496 -0.4403 -1.0757  1.2958
 8978TIP3    H248350   5.310   5.250  16.460  1.6413  0.5871 -1.0807
 8979TIP3   OH248351   6.160   5.560   6.230 -0.5742  0.0171  0.8517
 8979TIP3    H148352   6.144   5.466   6.238 -0.9908  0.0777  0.7410
 8979TIP3    H248353   6.255   5.568   6.225 -0.5964 -0.5717 -1.2453
 8980TIP3   OH248354   3.060   2.533  16.407  0.2394  0.1426  0.0506
 8980TIP3    H148355   3.008   2.457  16.380  0.2962  1.4478 -4.3895
 8980TIP3    H248356   3.130   2.538  16.343  2.3640  2.0017  2.3179
 8981TIP3   OH248357   0.871   0.835  10.831  0.3109  0.7977 -0.0678
 8981TIP3    H148358   0.813   0.863  10.761  1.0532  0.0878 -0.9947
 8981TIP3    H248359   0.941   0.901  10.833  0.1096  1.0027  0.2364
 8982TIP3   OH248360   6.689   5.750   2.363  0.2875  0.0086  0.0603
 8982TIP3    H148361   6.684   5.784   2.452 -1.1073 -1.1421  0.4618
 8982TIP3    H248362   6.697   5.655   2.375  1.0902 -0.0772 -1.0448
 8983TIP3   OH248363   4.661   2.198   4.963  0.3775 -0.6290 -0.1957
 8983TIP3    H148364   4.570   2.225   4.974  0.9256  1.2585 -0.0031
 8983TIP3    H248365   4.701   2.269   4.914  2.1604 -0.5391  1.2775
 8984TIP3   OH248366   3.744   4.823   1.612 -0.4528 -0.5350  0.6500
 8984TIP3    H148367   3.697   4.740   1.598  0.9692 -1.1165 -0.9835
 8984TIP3    H248368   3.675   4.886   1.633 -1.7244 -1.8108  0.4745
 8985TIP3   OH248369   0.816   5.888  11.677 -0.3443  0.4673 -0.4160
 8985TIP3    H148370   0.864   5.825  11.730  0.5254  1.3727 -0.0823
 8985TIP3    H248371   0.816   5.850  11.589 -1.0991 -0.6639  0.0520
 8986TIP3   OH248372   2.500   3.232  15.089 -0.7852  0.1037  0.2191
 8986TIP3    H148373   2.504   3.157  15.148  0.7776 -0.1674 -0.2141
 8986TIP3    H248374   2.467   3.197  15.007 -2.1757  0.3357  0.6361
 8987TIP3   OH248375   4.130   1.535   3.781  0.1280 -0.2616 -0.4811
 8987TIP3    H148376   4.087   1.509   3.862  1.7398  0.3533  0.6218
 8987TIP3    H248377   4.214   1.572   3.809  0.4157  0.6462 -2.3865
 8988TIP3   OH248378   0.326   5.825   5.707 -0.0193  0.1038  0.0550
 8988TIP3    H148379   0.413   5.797   5.737  0.5083 -0.0487 -1.5594
 8988TIP3    H248380   0.271   5.747   5.715 -0.4115  0.5425  2.3905
 8989TIP3   OH248381   1.112   4.094  15.269 -0.2322  0.3246  0.3642
 8989TIP3    H148382   1.069   4.171  15.233  0.0839  1.9391  3.1435
 8989TIP3    H248383   1.179   4.071  15.205 -0.8385  1.8607 -0.8921
 8990TIP3   OH248384   0.994   1.279   3.413  0.3958  0.2064  0.1231
 8990TIP3    H148385   0.940   1.201   3.400  1.0267 -0.2027 -0.1137
 8990TIP3    H248386   1.028   1.299   3.325  0.5520  0.5069  0.2502
 8991TIP3   OH248387   0.769   6.645  16.942  0.1434  0.2741 -0.0308
 8991TIP3    H148388   0.709   6.587  16.896  0.7093 -0.7759  0.4937
 8991TIP3    H248389   0.795   6.710  16.878  0.0764 -0.5146 -0.8781
 8992TIP3   OH248390   5.862   0.362  13.779 -0.2067 -0.4651  0.3491
 8992TIP3    H148391   5.784   0.370  13.833 -0.2497  0.4070  0.1655
 8992TIP3    H248392   5.892   0.272  13.794  0.0190 -0.1311  2.1218
 8993TIP3   OH248393   4.189   3.281   1.561 -0.6330  0.2067  0.3446
 8993TIP3    H148394   4.186   3.375   1.576  1.0172  0.0936  1.6963
 8993TIP3    H248395   4.239   3.246   1.635  1.4348 -1.3436 -1.6269
 8994TIP3   OH248396   5.117   0.810  12.389 -0.1346  0.8970  0.4995
 8994TIP3    H148397   5.022   0.806  12.392 -0.0748 -1.7411  1.1101
 8994TIP3    H248398   5.142   0.749  12.319  1.1246 -0.3842  1.9836
 8995TIP3   OH248399   0.209   5.521  11.021 -0.2200  0.0347  0.2446
 8995TIP3    H148400   0.291   5.510  10.972 -1.0478  1.6847 -1.6711
 8995TIP3    H248401   0.157   5.581  10.967 -1.9073  0.6247  2.3771
 8996TIP3   OH248402   6.452   6.411   2.599  0.3279 -0.5527 -0.0891
 8996TIP3    H148403   6.482   6.336   2.547 -0.5695 -1.9087  1.2775
 8996TIP3    H248404   6.384   6.375   2.656  1.1429  0.9047  1.8995
 8997TIP3   OH248405   4.775   2.674   5.668 -0.1765  0.3113 -0.0991
 8997TIP3    H148406   4.714   2.728   5.617  0.2731  1.8298  0.9301
 8997TIP3    H248407   4.719   2.631   5.733 -0.2083  1.4738  0.6571
 8998TIP3   OH248408   6.279   1.961   1.213  0.1309 -0.7284 -0.1293
 8998TIP3    H148409   6.184   1.974   1.213 -0.1655 -2.5245  0.1459
 8998TIP3    H248410   6.298   1.924   1.127  0.7340  0.3620 -0.4860
 8999TIP3   OH248411   5.803   2.802   1.927 -0.2438  0.4981  0.6457
 8999TIP3    H148412   5.830   2.713   1.951  1.6191  0.6845 -0.5290
 8999TIP3    H248413   5.781   2.796   1.834 -1.2187  1.0528  0.8285
 9000TIP3   OH248414   6.711   6.616  13.236 -0.0204 -0.1146 -0.1116
 9000TIP3    H148415   6.776   6.556  13.200 -1.5113 -1.6036 -0.4558
 9000TIP3    H248416   6.632   6.563  13.244 -1.0049  1.4436  0.9671
 9001TIP3   OH248417   5.328   2.622  17.054 -0.1503 -0.2647  0.1876
 9001TIP3    H148418   5.276   2.702  17.043  0.5834  0.6088  2.5768
 9001TIP3    H248419   5.392   2.644  17.121  2.2651 -1.8462 -1.4595
 9002TIP3   OH248420   0.422   5.786  16.817  0.1251  1.2079 -0.0448
 9002TIP3    H148421   0.339   5.760  16.778 -0.6105  1.1972  1.4546
 9002TIP3    H248422   0.486   5.725  16.780 -1.0703 -0.8933  1.1796
 9003TIP3   OH248423   2.456   5.353  15.820 -0.5155  0.1598  0.3862
 9003TIP3    H148424   2.362   5.337  15.812 -0.4026 -0.7230  0.7020
 9003TIP3    H248425   2.496   5.266  15.810  0.0638 -0.0771  3.6323
 9004TIP3   OH248426   3.246   0.484  16.711  0.7142  0.1510  0.6482
 9004TIP3    H148427   3.315   0.550  16.702  0.3461  0.7151  1.7601
 9004TIP3    H248428   3.294   0.403  16.733  1.1085  0.2132  0.0511
 9005TIP3   OH248429   0.568   6.014   0.061 -0.3645  0.0106  0.3007
 9005TIP3    H148430   0.580   5.933   0.111  0.7715 -0.5537 -0.8128
 9005TIP3    H248431   0.508   5.990  -0.009 -0.5633  0.3227  0.3637
 9006TIP3   OH248432   5.193   3.114   0.054 -0.5528  0.1065 -0.0620
 9006TIP3    H148433   5.188   3.041   0.116 -0.8950  1.0956  1.1104
 9006TIP3    H248434   5.250   3.178   0.097 -0.3518  0.5837 -1.0198
 9007TIP3   OH248435   0.235   2.371   0.211  0.3304 -0.8375  1.2901
 9007TIP3    H148436   0.274   2.435   0.271 -0.1597 -0.5465  1.3080
 9007TIP3    H248437   0.214   2.422   0.133  0.1808 -1.0345  1.2014
 9008TIP3   OH248438   4.304   3.201   0.099  0.1278  0.2529  0.1333
 9008TIP3    H148439   4.389   3.231   0.067  0.6205  0.0754  1.2152
 9008TIP3    H248440   4.243   3.270   0.073  0.4614  0.0482 -1.2745
 9009TIP3   OH248441   1.898   5.038  17.007  0.8572 -0.4652 -0.0489
 9009TIP3    H148442   1.962   4.994  16.952  2.5096 -1.4317  2.4340
 9009TIP3    H248443   1.925   5.016  17.097 -0.6698  2.3011  1.2209
 9010TIP3   OH248444   2.095   0.211  10.724 -0.8037 -0.2073  0.1160
 9010TIP3    H148445   2.009   0.250  10.704 -1.0647 -1.7262 -2.0983
 9010TIP3    H248446   2.082   0.167  10.808 -2.8007 -1.8497 -0.9410
 9011TIP3   OH248447   0.825   6.739  15.849 -0.1525 -0.3417 -0.2518
 9011TIP3    H148448   0.769   6.784  15.785  0.9054  0.2557 -0.7919
 9011TIP3    H248449   0.834   6.651  15.814 -0.5246 -0.3601 -0.3095
 9012TIP3   OH248450   0.455   6.522  15.599 -0.1805  0.0630 -0.2167
 9012TIP3    H148451   0.394   6.568  15.542  0.7566  0.7598 -0.6778
 9012TIP3    H248452   0.445   6.564  15.684 -1.6637 -1.0540  0.2074
 9013TIP3   OH248453   2.109   0.862   4.872 -0.4126 -0.0366 -0.1559
 9013TIP3    H148454   2.181   0.911   4.910  0.0551 -1.1407  0.4087
 9013TIP3    H248455   2.149   0.808   4.804 -0.9522  0.4852 -0.9081
 9014TIP3   OH248456   1.825   4.401  13.695  0.1115  0.0024  0.0294
 9014TIP3    H148457   1.822   4.318  13.647  0.6489 -0.4810  0.8054
 9014TIP3    H248458   1.770   4.386  13.772  0.1136  0.4062  0.1094
 9015TIP3   OH248459   4.113   3.697  14.408  0.3840 -0.3476 -0.2398
 9015TIP3    H148460   4.047   3.645  14.360 -0.9293  1.1626 -0.1574
 9015TIP3    H248461   4.161   3.744  14.340  0.3856 -0.3324 -0.2282
 9016TIP3   OH248462   6.679   3.643  15.355 -0.1333  0.0787  0.0220
 9016TIP3    H148463   6.626   3.722  15.343 -0.9561 -0.3925  0.4645
 9016TIP3    H248464   6.625   3.586  15.409 -0.0072 -1.2135 -1.1433
 9017TIP3   OH248465   2.775   0.216  12.053  0.2550 -0.6854 -0.1558
 9017TIP3    H148466   2.740   0.297  12.014  2.3542 -0.3425 -1.5101
 9017TIP3    H248467   2.830   0.246  12.125  1.3600 -0.8322 -0.9108
 9018TIP3   OH248468   0.757   5.297  15.449  0.2569 -1.2716 -0.1965
 9018TIP3    H148469   0.758   5.391  15.434  1.1825 -1.4427 -1.4361
 9018TIP3    H248470   0.788   5.286  15.539  1.5508 -0.4400 -0.5192
 9019TIP3   OH248471   6.195   0.095   3.763 -0.8673  0.3342 -0.1460
 9019TIP3    H148472   6.166   0.163   3.822 -1.7217 -0.5402  0.4567
 9019TIP3    H248473   6.248   0.141   3.697  1.3959  1.1562  2.0852
 9020TIP3   OH248474   5.544   1.423   0.180 -0.1346  0.3095 -0.0517
 9020TIP3    H148475   5.583   1.501   0.141  1.0042 -0.3344 -0.2374
 9020TIP3    H248476   5.507   1.376   0.105  0.3323  0.0380 -0.1177
 9021TIP3   OH248477   3.025   6.526   5.238 -0.3045  0.3235 -0.1663
 9021TIP3    H148478   2.937   6.553   5.262 -0.6007  2.0024 -2.6546
 9021TIP3    H248479   3.013   6.452   5.179 -0.2762  1.5910 -1.8694
 9022TIP3   OH248480   5.337   6.393  15.850  0.3157 -0.4674  0.3439
 9022TIP3    H148481   5.393   6.470  15.860 -1.4430  0.7391  1.5622
 9022TIP3    H248482   5.344   6.369  15.758  1.1494  0.9526  0.0200
 9023TIP3   OH248483   1.485   3.339  13.873  0.2445  0.1228  1.1229
 9023TIP3    H148484   1.497   3.387  13.956  2.2783  0.3071  0.7607
 9023TIP3    H248485   1.453   3.406  13.812 -0.0874  0.2642  1.4469
 9024TIP3   OH248486   0.682   0.811  11.552 -0.6892  0.3212  0.4930
 9024TIP3    H148487   0.689   0.905  11.563 -0.7011  0.7202 -2.2638
 9024TIP3    H248488   0.742   0.790  11.480 -3.6219 -1.0872 -1.7911
 9025TIP3   OH248489   1.294   6.011  15.067 -0.2289 -0.3163  0.0019
 9025TIP3    H148490   1.209   6.052  15.055 -1.1165 -1.8272  0.7374
 9025TIP3    H248491   1.280   5.919  15.043  0.6329 -1.0628  2.1024
 9026TIP3   OH248492   5.188   0.385  15.250 -0.2985  0.2607  0.0002
 9026TIP3    H148493   5.262   0.336  15.215  1.6646  0.0524  3.9296
 9026TIP3    H248494   5.217   0.476  15.251 -0.5965  0.3522  0.4790
 9027TIP3   OH248495   1.028   4.088  11.707 -0.0423  0.3073 -0.2125
 9027TIP3    H148496   0.974   4.165  11.723  0.3922  0.3482  1.1976
 9027TIP3    H248497   1.111   4.107  11.750  0.8850 -0.0295 -1.7753
 9028TIP3   OH248498   5.752   2.100   0.614 -0.2768 -0.7341  0.2240
 9028TIP3    H148499   5.818   2.168   0.600 -0.2301 -0.9496 -0.6618
 9028TIP3    H248500   5.725   2.111   0.705 -1.5257  1.5896 -0.3557
 9029TIP3   OH248501   2.021   3.657   4.588 -0.1881 -0.3123  0.1875
 9029TIP3    H148502   1.944   3.604   4.603 -0.6907  0.5329  0.7116
 9029TIP3    H248503   1.998   3.743   4.624  1.1637 -0.1814  0.8080
 9030TIP3   OH248504   5.452   2.728  12.161  0.7362 -0.5289 -0.3360
 9030TIP3    H148505   5.418   2.762  12.078  0.4402 -1.3308 -0.5513
 9030TIP3    H248506   5.461   2.634  12.146  1.8903 -0.5093  0.1309
 9031TIP3   OH248507   5.977   3.454   4.833  0.3284 -0.0326 -0.0047
 9031TIP3    H148508   5.967   3.359   4.830 -0.0550  0.0311 -1.7490
 9031TIP3    H248509   5.972   3.482   4.742 -1.4894  1.8676  0.6002
 9032TIP3   OH248510   1.649   5.260   0.863 -0.2430  0.4529 -0.0353
 9032TIP3    H148511   1.676   5.195   0.928 -3.6876 -1.8931 -0.6626
 9032TIP3    H248512   1.655   5.343   0.909  5.1471  0.0869  0.5730
 9033TIP3   OH248513   0.995   3.852   3.904  0.6555  0.0043  0.3009
 9033TIP3    H148514   1.036   3.935   3.879  2.0655 -0.7328  0.1094
 9033TIP3    H248515   1.067   3.798   3.936 -0.2433 -1.1662  0.4132
 9034TIP3   OH248516   2.882   3.698  13.759  0.5427  0.2412 -0.0596
 9034TIP3    H148517   2.973   3.726  13.751  0.6289 -0.1382 -0.4918
 9034TIP3    H248518   2.888   3.604  13.777  0.2217 -0.2294 -2.1458
 9035TIP3   OH248519   2.894   2.967  15.113 -0.2162 -0.8409 -0.0116
 9035TIP3    H148520   2.960   2.907  15.078 -1.2679 -1.2000 -1.4875
 9035TIP3    H248521   2.943   3.045  15.138  0.6813 -0.7167 -1.9585
 9036TIP3   OH248522   4.277   0.845   5.935 -0.8079  0.0682  0.2449
 9036TIP3    H148523   4.342   0.778   5.914 -0.7998  0.0564  0.3074
 9036TIP3    H248524   4.294   0.915   5.872  0.1699  0.6653  1.1437
 9037TIP3   OH248525   0.255   6.252  15.503 -0.4219  0.0419 -0.8109
 9037TIP3    H148526   0.286   6.303  15.578  0.0494  0.3677 -1.2236
 9037TIP3    H248527   0.200   6.313  15.455 -0.9292 -0.2446 -0.5993
 9038TIP3   OH248528   2.508   1.792   0.483 -0.2656 -0.2909  0.0378
 9038TIP3    H148529   2.559   1.719   0.519 -1.8448 -1.2924  0.3277
 9038TIP3    H248530   2.474   1.838   0.560  1.0529  1.0452 -0.1304
 9039TIP3   OH248531   0.082   3.076   3.130  0.1200 -0.1221  0.1137
 9039TIP3    H148532   0.171   3.076   3.166 -0.3282 -0.4717  1.2704
 9039TIP3    H248533   0.091   3.031   3.046  0.8931 -0.9279  0.6041
 9040TIP3   OH248534   6.403   1.141   1.378  0.9245 -0.3549  0.0133
 9040TIP3    H148535   6.371   1.052   1.397 -1.2780  0.1443 -0.9844
 9040TIP3    H248536   6.476   1.154   1.438  1.0049 -2.6584  0.5221
 9041TIP3   OH248537   2.643   4.751   5.947  0.0978 -0.5052  0.1041
 9041TIP3    H148538   2.568   4.694   5.930  1.5899 -2.4201 -0.3991
 9041TIP3    H248539   2.676   4.724   6.033  1.9928 -1.8763 -0.9738
 9042TIP3   OH248540   5.956   3.535  12.857  0.2978  0.1375 -0.1478
 9042TIP3    H148541   5.999   3.472  12.800  1.1178  1.2887 -0.8511
 9042TIP3    H248542   6.011   3.613  12.853  0.1016  0.4301  1.8368
 9043TIP3   OH248543   6.029   3.410   2.285 -0.2162  0.1231  0.4835
 9043TIP3    H148544   5.946   3.407   2.333  0.0395  1.7764  1.1184
 9043TIP3    H248545   6.088   3.458   2.343  0.3620  1.4545 -1.1185
 9044TIP3   OH248546   1.236   1.385   3.622  0.9830 -0.1213  0.7251
 9044TIP3    H148547   1.144   1.357   3.612  0.6948  0.7431  0.8848
 9044TIP3    H248548   1.235   1.478   3.599  1.5359  0.2806  2.2288
 9045TIP3   OH248549   4.030   5.243   2.176  0.0596 -0.0252  0.0673
 9045TIP3    H148550   4.042   5.171   2.238 -0.0578 -0.2099 -0.1271
 9045TIP3    H248551   4.116   5.286   2.173  0.1330 -0.1626  0.1720
 9046TIP3   OH248552   0.391   4.684  12.417  0.2328  0.1649  0.2787
 9046TIP3    H148553   0.321   4.736  12.379  2.5829  3.1832 -0.3636
 9046TIP3    H248554   0.437   4.744  12.476  2.7006 -1.3636  0.0983
 9047TIP3   OH248555   5.815   2.260   1.648 -0.4394  0.3121  0.1781
 9047TIP3    H148556   5.734   2.224   1.683  0.1090 -0.0523  1.1212
 9047TIP3    H248557   5.884   2.203   1.683  0.3485  1.4863  0.6195
 9048TIP3   OH248558   3.120   0.399   4.002  0.6584 -0.1729  0.6071
 9048TIP3    H148559   3.064   0.425   4.076 -0.6260  0.9542 -0.7006
 9048TIP3    H248560   3.208   0.429   4.027  0.4442 -0.7236  2.0970
 9049TIP3   OH248561   2.939   2.943  13.372 -0.7595  0.1736  0.1383
 9049TIP3    H148562   2.950   2.956  13.466  1.1141  0.3154 -0.0736
 9049TIP3    H248563   2.862   2.995  13.350 -2.2374 -1.1456  1.8418
 9050TIP3   OH248564   5.570   1.805  16.985 -0.1729 -0.0583  0.2252
 9050TIP3    H148565   5.616   1.888  16.975  1.7791 -1.2088 -0.7782
 9050TIP3    H248566   5.507   1.822  17.055 -0.3398  2.4523 -0.4270
 9051TIP3   OH248567   4.764   6.587  15.827 -0.8450 -0.6256  0.0334
 9051TIP3    H148568   4.773   6.558  15.736 -1.8855  0.2578 -0.3847
 9051TIP3    H248569   4.796   6.677  15.826  0.6106 -1.1011  0.9043
 9052TIP3   OH248570   1.769   2.469   2.283 -0.5297 -0.1215 -0.3619
 9052TIP3    H148571   1.820   2.541   2.320  2.3564 -1.1929 -1.8736
 9052TIP3    H248572   1.777   2.399   2.347 -0.6962 -0.0585 -0.2734
 9053TIP3   OH248573   2.448   5.996   1.202  0.2801  0.3415  0.3523
 9053TIP3    H148574   2.392   6.030   1.272  1.4170  0.5031  1.2326
 9053TIP3    H248575   2.536   6.026   1.226  0.7657 -0.0318 -0.8928
 9054TIP3   OH248576   4.004   5.913   1.217  0.2256 -0.0014  0.5132
 9054TIP3    H148577   4.028   5.842   1.158  1.8553 -0.4669  1.6828
 9054TIP3    H248578   3.912   5.895   1.239  0.2602 -1.0608 -0.1295
 9055TIP3   OH248579   3.055   0.639  14.566 -0.1646  0.2121 -0.3535
 9055TIP3    H148580   2.987   0.701  14.593  0.1045  0.4585 -0.2293
 9055TIP3    H248581   3.123   0.694  14.529 -0.0088 -0.0282 -0.4245
 9056TIP3   OH248582   2.808   4.361   2.998 -0.0566 -0.2971 -0.5011
 9056TIP3    H148583   2.893   4.326   3.024  0.4813  0.7510 -0.7906
 9056TIP3    H248584   2.822   4.456   2.992 -0.1558 -0.3609 -4.3991
 9057TIP3   OH248585   5.335   2.656   4.426 -0.0421  0.2867  0.0317
 9057TIP3    H148586   5.273   2.661   4.352 -0.6164 -0.8310  0.4189
 9057TIP3    H248587   5.421   2.667   4.385 -0.1299 -2.5982 -1.2187
 9058TIP3   OH248588   1.696   0.892   3.918 -0.6181 -0.2210 -0.2041
 9058TIP3    H148589   1.635   0.935   3.978  0.8027 -0.6186  1.6025
 9058TIP3    H248590   1.711   0.806   3.956  0.2264 -0.5541 -1.2340
 9059TIP3   OH248591   5.107   4.535   5.050 -0.1570  0.0258 -0.3186
 9059TIP3    H148592   5.137   4.456   5.007 -2.1409 -0.1079 -1.5851
 9059TIP3    H248593   5.130   4.606   4.991 -2.1832 -0.0826 -1.3314
 9060TIP3   OH248594   0.985   6.000   0.122  0.1372 -0.1308 -0.4084
 9060TIP3    H148595   0.924   5.994   0.049  2.5531  2.1061 -2.8327
 9060TIP3    H248596   1.042   5.924   0.112 -0.5387 -0.7447  0.2392
 9061TIP3   OH248597   6.467   2.843   2.835  0.3508  0.1234  0.2035
 9061TIP3    H148598   6.485   2.801   2.750  2.3010  0.6469  0.2939
 9061TIP3    H248599   6.493   2.778   2.900 -1.8964 -0.5872  0.4726
 9062TIP3   OH248600   0.421   4.745   2.411  0.0939  0.4212  0.2710
 9062TIP3    H148601   0.353   4.681   2.430  0.8253 -0.2323  0.7443
 9062TIP3    H248602   0.404   4.772   2.320 -0.0006 -0.7208 -0.0637
 9063TIP3   OH248603   3.199   2.296  14.476 -0.1545 -0.0583 -0.8032
 9063TIP3    H148604   3.236   2.378  14.508  0.7096 -0.6969 -0.0983
 9063TIP3    H248605   3.273   2.235  14.476 -1.3213 -1.6364  1.5151
 9064TIP3   OH248606   5.841   0.494   1.868 -0.9085  0.5585  0.0549
 9064TIP3    H148607   5.858   0.459   1.781  0.5010 -0.3671  0.6567
 9064TIP3    H248608   5.828   0.416   1.923 -3.4557  1.1348  0.4209
 9065TIP3   OH248609   2.739   4.013  13.987  0.0445 -0.0829  0.7203
 9065TIP3    H148610   2.679   4.046  13.920  1.3959  0.7288 -0.1217
 9065TIP3    H248611   2.698   3.931  14.016 -1.7334  0.6973  0.5679
 9066TIP3   OH248612   4.167   3.545   2.327 -0.4227  0.1114  0.4225
 9066TIP3    H148613   4.183   3.454   2.303 -2.1523  0.0829 -0.7439
 9066TIP3    H248614   4.190   3.595   2.248  1.6311  0.8627  1.4084
 9067TIP3   OH248615   1.499   0.958  13.803  0.6447 -0.0741 -0.3084
 9067TIP3    H148616   1.564   0.921  13.863  0.6122 -1.4013 -1.0484
 9067TIP3    H248617   1.417   0.955  13.852  1.0445  1.2356  0.4860
 9068TIP3   OH248618   4.302   3.719   0.898  0.4875  0.1120  0.3946
 9068TIP3    H148619   4.228   3.780   0.897  0.4383  0.0522  0.3810
 9068TIP3    H248620   4.358   3.750   0.969 -0.3681 -0.8065  1.5285
 9069TIP3   OH248621   0.751   1.630  15.877 -0.4391 -0.7766  0.1000
 9069TIP3    H148622   0.770   1.566  15.809 -1.3774 -1.2535  0.2580
 9069TIP3    H248623   0.803   1.707  15.854 -1.9743 -0.3022 -2.0981
 9070TIP3   OH248624   6.287   3.330  14.539 -0.7368  0.2593 -0.5419
 9070TIP3    H148625   6.331   3.390  14.479  0.4102 -0.0694 -0.0418
 9070TIP3    H248626   6.264   3.254  14.485  2.1475 -0.9710 -0.2267
 9071TIP3   OH248627   0.316   1.612  11.296 -0.2489  0.3772  0.5166
 9071TIP3    H148628   0.297   1.530  11.341  0.2245  0.1904  0.3798
 9071TIP3    H248629   0.408   1.628  11.314 -0.5606  1.3735  1.3309
 9072TIP3   OH248630   6.462   3.113  12.607 -0.0176  0.2794  0.2059
 9072TIP3    H148631   6.458   3.158  12.522 -1.1891  2.2652  1.2451
 9072TIP3    H248632   6.375   3.125  12.645  1.2337  1.9015  2.8579
 9073TIP3   OH248633   1.317   2.079  12.025  0.0369  0.3991  0.0414
 9073TIP3    H148634   1.230   2.083  11.985 -0.7771  0.1789  1.7066
 9073TIP3    H248635   1.304   2.031  12.106  1.5064  1.3388  0.8844
 9074TIP3   OH248636   4.204   2.931   3.629 -0.3536 -0.2937 -0.0873
 9074TIP3    H148637   4.256   3.003   3.666  1.3283 -0.9718 -1.0250
 9074TIP3    H248638   4.204   2.948   3.535 -2.1266 -0.1623 -0.0926
 9075TIP3   OH248639   1.598   6.649  12.196 -0.0621  0.1469 -0.4273
 9075TIP3    H148640   1.649   6.573  12.167  0.7146  0.4413  0.1364
 9075TIP3    H248641   1.580   6.698  12.116 -1.3353 -1.0618 -0.9370
 9076TIP3   OH248642   5.880   2.945   2.921 -0.0406 -0.6204 -0.0787
 9076TIP3    H148643   5.818   2.874   2.936  1.1740 -1.7730 -0.3136
 9076TIP3    H248644   5.962   2.901   2.901  0.7930  0.8632 -0.0604
 9077TIP3   OH248645   2.689   0.794  16.870  0.6750  0.0557 -0.0953
 9077TIP3    H148646   2.597   0.810  16.847  0.2744 -0.2375  1.2550
 9077TIP3    H248647   2.708   0.709  16.832 -0.3109 -0.9267  1.5162
 9078TIP3   OH248648   4.513   0.262   5.577  0.3924  0.4864  0.6149
 9078TIP3    H148649   4.470   0.211   5.508  0.1713  0.0882  1.0391
 9078TIP3    H248650   4.442   0.285   5.637  0.3362  1.9959  0.0248
 9079TIP3   OH248651   6.732   2.538  12.332 -0.0245  0.0310 -0.6250
 9079TIP3    H148652   6.744   2.471  12.265  0.4348  0.8396 -1.3835
 9079TIP3    H248653   6.704   2.490  12.410 -0.1359 -0.9802 -1.2696
 9080TIP3   OH248654   3.284   1.249   4.253  0.0267  0.3382  0.6488
 9080TIP3    H148655   3.297   1.239   4.159  0.7769 -1.0109  0.8653
 9080TIP3    H248656   3.223   1.178   4.276  0.5953  0.0546  1.3136
 9081TIP3   OH248657   0.955   0.347  13.427  0.5052  0.1390  0.4088
 9081TIP3    H148658   0.983   0.408  13.495  0.4654  1.5807 -0.8182
 9081TIP3    H248659   1.009   0.270  13.441  1.8649  1.1352  0.8919
 9082TIP3   OH248660   0.041   1.530  13.709 -0.3367 -0.2144  0.1941
 9082TIP3    H148661  -0.019   1.465  13.744  1.0640 -0.5325  2.1812
 9082TIP3    H248662   0.102   1.548  13.780  0.8430  1.4303 -1.1247
 9083TIP3   OH248663   4.908   6.787  11.309  0.3568  0.2450  0.3634
 9083TIP3    H148664   4.849   6.863  11.304  0.1357  0.0730  0.3496
 9083TIP3    H248665   4.988   6.816  11.265  1.1098  1.2419  2.2801
 9084TIP3   OH248666   2.149   2.615   2.609  0.6172 -0.2273  0.8237
 9084TIP3    H148667   2.133   2.537   2.663 -1.1006  0.3799  1.2431
 9084TIP3    H248668   2.195   2.675   2.668  1.2775 -0.6272  0.7267
 9085TIP3   OH248669   2.563   6.769   5.776 -0.1552 -0.4923  0.2604
 9085TIP3    H148670   2.487   6.712   5.771  0.7944 -2.0806  2.1167
 9085TIP3    H248671   2.537   6.837   5.838 -0.9830  0.6513 -1.2778
 9086TIP3   OH248672   2.918   2.945  14.724  0.3058  0.8599  0.1087
 9086TIP3    H148673   2.998   2.954  14.672 -1.2117  1.5170 -2.2447
 9086TIP3    H248674   2.905   2.851  14.732  0.6380  0.7480 -0.6012
 9087TIP3   OH248675   2.442   5.400   3.957 -0.0576 -0.5323  0.0425
 9087TIP3    H148676   2.466   5.493   3.959  0.0541 -0.5722  0.6445
 9087TIP3    H248677   2.525   5.353   3.965 -0.3277 -0.6832  4.7198
 9088TIP3   OH248678   0.411   1.108  11.368  0.3598  0.1749  0.6238
 9088TIP3    H148679   0.396   1.015  11.385 -0.9184  0.4347  1.0362
 9088TIP3    H248680   0.393   1.118  11.275  0.5588  0.0007  0.5656
 9089TIP3   OH248681   2.847   2.877   4.490 -0.2716 -0.1742  0.7896
 9089TIP3    H148682   2.858   2.968   4.463  2.9214  0.4157  3.4401
 9089TIP3    H248683   2.876   2.825   4.415  2.4231  1.1826  0.7784
 9090TIP3   OH248684   2.346   2.710   0.856  0.6459 -0.2035  0.0555
 9090TIP3    H148685   2.414   2.763   0.896  0.3583  0.8190 -0.7682
 9090TIP3    H248686   2.355   2.726   0.762 -0.8231  0.0915 -0.0608
 9091TIP3   OH248687   6.748   3.150  12.972 -0.2433 -0.1263 -0.2067
 9091TIP3    H148688   6.790   3.160  12.887  0.4899 -1.1863  0.0151
 9091TIP3    H248689   6.655   3.145  12.953 -0.1843  0.8969 -0.8296
 9092TIP3   OH248690   2.653   6.792   0.899 -0.1409 -0.1539 -0.5127
 9092TIP3    H148691   2.650   6.887   0.911 -1.7142 -0.2501  0.1727
 9092TIP3    H248692   2.561   6.766   0.889 -0.0538 -1.8965  2.1216
 9093TIP3   OH248693   5.641   0.041   0.329  0.1529 -0.3162 -0.5107
 9093TIP3    H148694   5.689   0.059   0.410 -0.0181 -1.1857 -0.1971
 9093TIP3    H248695   5.676  -0.043   0.299  2.3424  1.3415 -2.9902
 9094TIP3   OH248696   2.003   6.097  14.573 -0.0047 -0.0502  0.9082
 9094TIP3    H148697   1.994   6.190  14.554 -2.5476 -0.0937  1.5946
 9094TIP3    H248698   2.055   6.094  14.654  2.3463  0.5805 -0.4969
 9095TIP3   OH248699   3.412   1.346  12.907  0.3359 -0.6683 -0.4976
 9095TIP3    H148700   3.411   1.250  12.904  3.5949 -0.8051 -1.7884
 9095TIP3    H248701   3.359   1.373  12.832 -0.5990 -1.4318 -0.1312
 9096TIP3   OH248702   5.611   4.505  15.320  0.0262  0.3618 -0.0963
 9096TIP3    H148703   5.633   4.598  15.323  0.0002  0.3410  1.2107
 9096TIP3    H248704   5.549   4.497  15.247 -0.6898  1.5307  0.3632
 9097TIP3   OH248705   5.870   6.688  15.649  0.1755 -0.0093  0.5396
 9097TIP3    H148706   5.860   6.602  15.691 -0.5963 -0.3621 -0.3270
 9097TIP3    H248707   5.809   6.745  15.697 -0.3765 -0.3035  0.2039
 9098TIP3   OH248708   2.335   3.315   2.489 -0.5438  0.3185  0.3627
 9098TIP3    H148709   2.325   3.311   2.584  3.0600 -0.5865  0.8438
 9098TIP3    H248710   2.385   3.395   2.473  0.3786 -0.4101 -0.5418
 9099TIP3   OH248711   6.181   2.345   2.862  0.8376 -0.0574 -0.1113
 9099TIP3    H148712   6.112   2.410   2.877  0.1623 -0.9136  0.6500
 9099TIP3    H248713   6.169   2.318   2.771  0.4718  0.1536 -0.1297
 9100TIP3   OH248714   0.058   2.097   3.306 -0.5025 -0.6911  0.0169
 9100TIP3    H148715  -0.002   2.167   3.283  1.0269  0.4936 -0.5271
 9100TIP3    H248716   0.094   2.068   3.222  0.4612 -0.6432  0.4008
 9101TIP3   OH248717   3.635   6.676   3.243 -0.2605 -0.2284 -0.0203
 9101TIP3    H148718   3.699   6.659   3.312 -1.8562 -0.8284  1.3779
 9101TIP3    H248719   3.664   6.621   3.170  3.0642  2.4662 -1.0110
 9102TIP3   OH248720   1.762   1.740   1.894  0.5960 -0.0631 -0.5647
 9102TIP3    H148721   1.839   1.789   1.924  0.2266  1.0517 -1.3889
 9102TIP3    H248722   1.795   1.651   1.881  1.4295  0.0880  0.3447
 9103TIP3   OH248723   4.448   2.151   2.600 -0.3240  0.2333 -0.0052
 9103TIP3    H148724   4.477   2.223   2.657  1.7313  1.2030 -2.1126
 9103TIP3    H248725   4.353   2.162   2.595 -0.3239  1.4044  1.5101
 9104TIP3   OH248726   3.617   0.154   5.156 -0.2404  0.0574  0.0297
 9104TIP3    H148727   3.613   0.193   5.068 -0.7229  0.3327  0.1685
 9104TIP3    H248728   3.538   0.186   5.199 -1.0924 -1.7183 -0.1181
 9105TIP3   OH248729   1.049   2.032   1.983 -0.1903 -1.0229  0.0263
 9105TIP3    H148730   1.120   2.032   1.919  0.7992  0.8583  1.0310
 9105TIP3    H248731   0.969   2.034   1.930  0.5953  0.4709 -1.1763
 9106TIP3   OH248732   0.287   6.171  11.976 -0.4181  0.0956 -0.0217
 9106TIP3    H148733   0.312   6.081  11.956 -1.9488 -0.3196 -0.1705
 9106TIP3    H248734   0.348   6.225  11.926 -0.6917 -0.8870 -1.4807
 9107TIP3   OH248735   4.398   5.330  15.890 -0.3510  0.1452 -0.1600
 9107TIP3    H148736   4.391   5.406  15.947 -0.4742  1.1780 -1.5175
 9107TIP3    H248737   4.476   5.284  15.921 -1.0508  0.0165  1.5744
 9108TIP3   OH248738   6.373   0.432   5.847 -0.2736  0.1493  0.2662
 9108TIP3    H148739   6.300   0.490   5.825 -0.1577  0.5982  1.0295
 9108TIP3    H248740   6.342   0.344   5.823 -1.7213  0.1103  2.0603
 9109TIP3   OH248741   0.831   5.985   2.177  0.3001  0.2353 -0.1336
 9109TIP3    H148742   0.820   6.072   2.215  0.5587 -0.1683  0.9045
 9109TIP3    H248743   0.912   5.991   2.127  0.0053  0.7547 -0.5545
 9110TIP3   OH248744   4.689   3.827  13.478 -0.0989 -0.1735 -0.0941
 9110TIP3    H148745   4.683   3.882  13.399 -1.2559 -2.1991 -1.5200
 9110TIP3    H248746   4.737   3.749  13.449  0.7534 -0.3242  1.6412
 9111TIP3   OH248747   2.093   0.275  13.640  0.5575 -0.5937 -0.3133
 9111TIP3    H148748   2.187   0.272  13.653  0.7119 -1.3836 -1.4702
 9111TIP3    H248749   2.081   0.260  13.547 -0.7217 -0.6920 -0.1510
 9112TIP3   OH248750   4.974   5.355   6.308 -0.0337  0.6579 -0.3041
 9112TIP3    H148751   4.943   5.399   6.387  0.7618  0.7591 -0.0404
 9112TIP3    H248752   4.897   5.347   6.252 -0.4714  1.1241  0.2344
 9113TIP3   OH248753   0.054   5.745   3.637  0.0415  0.3270  0.3468
 9113TIP3    H148754  -0.018   5.808   3.626 -0.0358  0.3390  0.8959
 9113TIP3    H248755   0.042   5.683   3.566 -2.3130 -1.4257  2.0799
 9114TIP3   OH248756   4.673   0.704  14.904  0.3729  0.8991  0.1258
 9114TIP3    H148757   4.701   0.613  14.892  0.7344  0.8514  1.1682
 9114TIP3    H248758   4.713   0.752  14.832 -1.1607 -0.0158 -1.4056
 9115TIP3   OH248759   4.295   4.901  14.073  0.5720  0.6306  0.4078
 9115TIP3    H148760   4.358   4.879  14.004 -1.0850 -0.8043 -0.7411
 9115TIP3    H248761   4.348   4.942  14.141  3.1009 -2.1928  0.3775
 9116TIP3   OH248762   6.072   5.770   2.100  0.5018  0.9394  0.5325
 9116TIP3    H148763   6.026   5.687   2.090  0.8713  0.6943  0.8315
 9116TIP3    H248764   6.157   5.755   2.059  0.0817  1.6039 -0.6257
 9117TIP3   OH248765   6.279   4.906  12.894  0.8933  0.6623 -0.7111
 9117TIP3    H148766   6.227   4.959  12.834  0.2996 -0.5671 -1.3161
 9117TIP3    H248767   6.247   4.930  12.981 -0.8345 -0.2081 -1.0809
 9118TIP3   OH248768   4.024   3.073   1.111 -0.3101 -0.0220 -0.5089
 9118TIP3    H148769   4.080   3.127   1.167  1.3131 -1.7498 -0.3786
 9118TIP3    H248770   4.022   3.119   1.027 -2.1714  2.2121  0.6341
 9119TIP3   OH248771   0.180   3.431  15.747 -0.1304  0.6774 -0.0800
 9119TIP3    H148772   0.253   3.409  15.690  1.5125  1.7658  1.4724
 9119TIP3    H248773   0.156   3.349  15.789 -0.3502  0.1638 -1.1779
 9120TIP3   OH248774   2.746   0.545  16.797  0.5381  0.3977 -0.3657
 9120TIP3    H148775   2.809   0.532  16.869 -0.6335 -0.0135  0.6309
 9120TIP3    H248776   2.706   0.459  16.785 -0.2285  0.7830 -0.5983
 9121TIP3   OH248777   3.409   6.321  11.412 -0.7198 -0.0754  0.6878
 9121TIP3    H148778   3.325   6.362  11.433 -0.6381 -0.1534  1.1801
 9121TIP3    H248779   3.420   6.254  11.479  1.1256  1.8730  2.4400
 9122TIP3   OH248780   3.813   2.023   1.830  0.0747 -0.0144 -0.3857
 9122TIP3    H148781   3.889   1.995   1.780  0.3158  0.4055 -0.2640
 9122TIP3    H248782   3.738   1.980   1.789  0.5770 -2.0132  0.6975
 9123TIP3   OH248783   0.609   6.420  14.762  0.3029  0.0393  0.8272
 9123TIP3    H148784   0.639   6.333  14.737 -0.3886  0.4730 -1.7600
 9123TIP3    H248785   0.686   6.462  14.801  0.8142 -1.4908  1.5309
 9124TIP3   OH248786   0.574   1.106  16.147  0.2755  0.2948  0.4336
 9124TIP3    H148787   0.634   1.101  16.073  0.5195 -1.1513  0.7109
 9124TIP3    H248788   0.487   1.116  16.106  0.6187  2.1129  0.0311
 9125TIP3   OH248789   6.154   2.755  11.008 -0.2711  0.1794 -0.2520
 9125TIP3    H148790   6.135   2.701  11.084 -0.6836  1.3202  0.4833
 9125TIP3    H248791   6.069   2.774  10.969 -0.0795 -0.2230 -0.8716
 9126TIP3   OH248792   0.537   2.582  16.887  0.3344 -0.5798  0.3929
 9126TIP3    H148793   0.603   2.645  16.917  0.0243 -0.4918  0.9094
 9126TIP3    H248794   0.490   2.557  16.967 -0.1208 -0.7993  0.0609
 9127TIP3   OH248795   0.157   5.966  16.864  0.3192  0.0060 -0.1533
 9127TIP3    H148796   0.107   5.927  16.936  1.9847 -0.3385  0.8585
 9127TIP3    H248797   0.133   5.914  16.787 -1.8489  0.6792  0.0114
 9128TIP3   OH248798   2.766   5.381  15.288  0.4887 -0.5424 -0.1750
 9128TIP3    H148799   2.857   5.409  15.285  0.8537 -1.5420  0.9509
 9128TIP3    H248800   2.734   5.396  15.199  1.3242  1.1407 -0.2424
 9129TIP3   OH248801   2.604   5.936  15.418 -0.0530  0.2896  0.3712
 9129TIP3    H148802   2.673   5.870  15.409  0.1817  0.6023 -0.1609
 9129TIP3    H248803   2.650   6.020  15.412 -0.3948  0.5019  0.6877
 9130TIP3   OH248804   4.506   0.480  13.645 -0.0442  0.0778  0.0575
 9130TIP3    H148805   4.467   0.567  13.652 -2.3344 -0.8743  0.0117
 9130TIP3    H248806   4.492   0.455  13.553 -1.4083 -1.1694  0.5647
 9131TIP3   OH248807   1.916   3.221  16.356  0.9187 -0.1385  0.0579
 9131TIP3    H148808   1.888   3.270  16.434 -0.5176  0.9289 -1.0538
 9131TIP3    H248809   1.942   3.289  16.294 -0.8996 -0.7155 -1.4482
 9132TIP3   OH248810   4.875   0.372  11.426  0.0426 -0.4904  0.7767
 9132TIP3    H148811   4.889   0.341  11.336 -0.4306  1.7709 -0.1374
 9132TIP3    H248812   4.866   0.292  11.478  1.9172 -1.8871 -0.9035
 9133TIP3   OH248813   2.233   2.668  16.150 -0.6244  0.0561  0.2817
 9133TIP3    H148814   2.307   2.689  16.092 -1.0461  0.6404 -0.0649
 9133TIP3    H248815   2.188   2.596  16.105 -0.5621  0.0508  0.2272
 9134TIP3   OH248816   3.227   5.319   6.442 -0.5294  0.0330  0.7059
 9134TIP3    H148817   3.203   5.321   6.349  0.7632 -1.6147  0.2910
 9134TIP3    H248818   3.317   5.350   6.444 -0.0560 -1.2820  1.1895
 9135TIP3   OH248819   2.229   3.574   4.759 -0.4705  0.5148 -0.3406
 9135TIP3    H148820   2.293   3.519   4.714 -0.3733  0.1832  0.1907
 9135TIP3    H248821   2.167   3.600   4.691  0.2151  0.8191 -0.8595
 9136TIP3   OH248822   5.538   5.430   1.153  0.7104 -0.0333 -0.0283
 9136TIP3    H148823   5.549   5.525   1.157 -0.8686  0.1687  0.0694
 9136TIP3    H248824   5.530   5.403   1.245 -0.2777 -0.0540 -0.1101
 9137TIP3   OH248825   3.488   1.264  12.590  0.1934  0.5227 -0.2544
 9137TIP3    H148826   3.510   1.176  12.558 -0.5868  0.0960  0.3517
 9137TIP3    H248827   3.401   1.254  12.629  0.1411  1.5477 -0.0907
 9138TIP3   OH248828   3.155   5.999  13.888 -0.3817 -0.0230  0.0535
 9138TIP3    H148829   3.141   6.033  13.977  1.5874  0.9911  0.0193
 9138TIP3    H248830   3.191   5.911  13.902  2.4031  1.0716  0.4192
 9139TIP3   OH248831   6.572   4.379   3.160 -0.1786  0.1622 -0.0344
 9139TIP3    H148832   6.511   4.412   3.226 -3.4817 -2.1393 -1.6588
 9139TIP3    H248833   6.528   4.395   3.077  1.2195 -2.0316 -1.2922
 9140TIP3   OH248834   5.850   5.533   4.370  0.6469 -0.1274  0.8927
 9140TIP3    H148835   5.788   5.461   4.357  0.5423 -0.0247  0.8207
 9140TIP3    H248836   5.805   5.591   4.432 -0.8954  1.7789 -1.8038
 9141TIP3   OH248837   2.534   5.703   2.853 -0.0748  0.3025 -0.0020
 9141TIP3    H148838   2.506   5.743   2.935 -0.7610 -1.2549  0.5680
 9141TIP3    H248839   2.630   5.701   2.859 -0.0560  1.3880  0.1623
 9142TIP3   OH248840   1.413   6.556  11.526  0.7106  0.5053  0.8940
 9142TIP3    H148841   1.338   6.605  11.560  0.5241 -0.9780  2.7922
 9142TIP3    H248842   1.375   6.488  11.471  0.8014  0.9070  0.3286
 9143TIP3   OH248843   0.616   1.135   1.368  0.1666  0.4152 -0.0928
 9143TIP3    H148844   0.681   1.072   1.399  0.5221  0.8620  0.0743
 9143TIP3    H248845   0.629   1.212   1.423  0.0580  0.8168 -0.6222
 9144TIP3   OH248846   3.532   2.595   1.703  0.3585 -0.0143  0.4274
 9144TIP3    H148847   3.516   2.593   1.798 -0.5779  0.5271  0.2907
 9144TIP3    H248848   3.538   2.688   1.681  1.7316 -0.1560  0.1265
 9145TIP3   OH248849   2.189   3.937   3.896  0.2552  0.4551  1.1144
 9145TIP3    H148850   2.191   3.850   3.855 -2.6762 -0.3758  2.4342
 9145TIP3    H248851   2.208   3.920   3.988  0.4275  1.3326  1.2497
 9146TIP3   OH248852   2.001   6.698  11.553 -0.3156  0.3318  0.0221
 9146TIP3    H148853   2.072   6.762  11.549 -0.9543  1.1204  0.9202
 9146TIP3    H248854   1.960   6.703  11.466 -1.5274  2.5720  0.6208
 9147TIP3   OH248855   6.140   4.353   2.868  0.1052 -0.1971 -0.1538
 9147TIP3    H148856   6.114   4.261   2.879 -1.2306  0.1114 -0.4602
 9147TIP3    H248857   6.058   4.402   2.882  1.5183  1.3440  4.6753
 9148TIP3   OH248858   6.557   0.533  13.947  0.1964  0.1829 -0.1912
 9148TIP3    H148859   6.535   0.449  13.908 -1.9431  0.7650 -0.3588
 9148TIP3    H248860   6.545   0.597  13.877 -1.8316  1.0127  0.8130
 9149TIP3   OH248861   6.282   2.159   3.043 -0.5681  0.2524 -0.1416
 9149TIP3    H148862   6.263   2.076   3.000 -0.0569  0.9886 -1.8729
 9149TIP3    H248863   6.237   2.224   2.990  0.3781  1.2464  0.2351
 9150TIP3   OH248864   5.547   0.135   2.643 -0.8948  0.3145  0.0523
 9150TIP3    H148865   5.525   0.107   2.554 -1.9650 -0.2386  0.4702
 9150TIP3    H248866   5.483   0.090   2.698  2.1912 -2.6938  1.5625
 9151TIP3   OH248867   4.526   2.910   5.851 -0.1161 -0.2028  0.5955
 9151TIP3    H148868   4.522   2.914   5.755 -0.9735 -0.6551  0.5946
 9151TIP3    H248869   4.614   2.938   5.873  0.2234 -0.4835 -0.3553
 9152TIP3   OH248870   5.180   5.217   2.229 -0.2540  0.0326 -0.2549
 9152TIP3    H148871   5.085   5.211   2.218 -0.4262  0.5477  0.8532
 9152TIP3    H248872   5.199   5.311   2.228 -0.0034  0.0228  1.3586
 9153TIP3   OH248873   3.820   2.419  11.225 -0.1416  0.3599 -0.7666
 9153TIP3    H148874   3.763   2.421  11.148  0.7948 -1.2249 -1.5525
 9153TIP3    H248875   3.795   2.340  11.271  0.2010  0.6112 -0.1361
 9154TIP3   OH248876   2.292   3.818   4.205 -0.3253  0.2895  0.2276
 9154TIP3    H148877   2.330   3.771   4.279  0.4802 -3.0318 -2.0983
 9154TIP3    H248878   2.368   3.846   4.154 -0.8954  0.0453 -0.7616
 9155TIP3   OH248879   3.923   3.639   1.107 -0.5506  0.0125  0.0351
 9155TIP3    H148880   3.963   3.721   1.134  0.1009  0.7212 -2.7263
 9155TIP3    H248881   3.948   3.576   1.174  1.9623  1.3027  0.4232
 9156TIP3   OH248882   3.197   1.738   0.185 -0.4406 -0.1770 -0.0578
 9156TIP3    H148883   3.236   1.789   0.114 -1.4904  1.7074  0.6470
 9156TIP3    H248884   3.237   1.652   0.177  0.8151  0.5045 -1.8136
 9157TIP3   OH248885   2.761   4.509   4.819 -0.0812 -0.0627  0.0949
 9157TIP3    H148886   2.710   4.522   4.900  0.7899  0.0875  0.6263
 9157TIP3    H248887   2.704   4.544   4.750 -0.4978  0.5797  0.7385
 9158TIP3   OH248888   5.661   3.860   0.434  0.3839  0.2859  0.1696
 9158TIP3    H148889   5.658   3.921   0.361 -0.3653 -1.0121 -0.9217
 9158TIP3    H248890   5.590   3.888   0.492 -0.0273  0.3809 -0.3771
 9159TIP3   OH248891   2.333   5.525  14.854  0.1320  0.1355 -0.6062
 9159TIP3    H148892   2.407   5.467  14.871  0.2070  0.3337 -0.2345
 9159TIP3    H248893   2.313   5.564  14.939 -1.4025 -1.1026 -0.3482
 9160TIP3   OH248894   1.238   3.956   1.702 -0.1348  0.2238 -0.0389
 9160TIP3    H148895   1.282   3.879   1.739  0.2057  0.7845  0.7419
 9160TIP3    H248896   1.309   4.010   1.668 -0.4836 -0.6385 -2.2784
 9161TIP3   OH248897   3.771   6.417   6.107 -0.6468  0.1140  0.1676
 9161TIP3    H148898   3.783   6.487   6.171 -1.2926 -0.8026  1.3191
 9161TIP3    H248899   3.858   6.404   6.070 -0.6214  1.8894 -0.4846
 9162TIP3   OH248900   1.091   4.247   3.504 -0.2499  0.0448  0.4151
 9162TIP3    H148901   1.087   4.329   3.453 -0.7390 -0.6017 -0.6267
 9162TIP3    H248902   1.172   4.205   3.474 -1.0458 -0.8162 -0.6375
 9163TIP3   OH248903   5.743   0.148  12.027  0.0249 -0.6356  0.3912
 9163TIP3    H148904   5.762   0.103  11.945  1.3922 -0.8603  0.8075
 9163TIP3    H248905   5.651   0.127  12.046 -0.3092 -0.5944 -1.0528
 9164TIP3   OH248906   0.462   1.195  17.151 -0.0302 -0.3261 -0.4714
 9164TIP3    H148907   0.384   1.207  17.097 -0.7839  0.9181  0.8305
 9164TIP3    H248908   0.528   1.251  17.112 -0.7673  1.0773  0.2209
 9165TIP3   OH248909   2.335   3.062   0.610  0.0431 -0.7332 -0.0457
 9165TIP3    H148910   2.261   3.058   0.671 -0.9873  1.1407 -1.0778
 9165TIP3    H248911   2.297   3.098   0.530  2.3464  1.9636 -0.0690
 9166TIP3   OH248912   5.322   6.672   5.796  0.4413 -0.3038  0.5219
 9166TIP3    H148913   5.228   6.658   5.806  0.4613 -1.6308 -0.6960
 9166TIP3    H248914   5.352   6.595   5.746  1.9891  0.5877  0.0146
 9167TIP3   OH248915   1.361   5.756  15.465  0.1582 -0.3342 -0.0365
 9167TIP3    H148916   1.274   5.795  15.471  0.9649  1.4727  0.8822
 9167TIP3    H248917   1.411   5.818  15.411  0.4323 -2.2817 -2.1545
 9168TIP3   OH248918   5.675   0.622  12.691 -0.3415 -0.3719 -0.4936
 9168TIP3    H148919   5.720   0.690  12.741  0.0640 -0.8216 -0.2354
 9168TIP3    H248920   5.722   0.542  12.712 -1.4389 -0.9131  0.0038
 9169TIP3   OH248921   2.004   1.098  15.086  0.3514  0.4977 -0.0046
 9169TIP3    H148922   1.980   1.109  15.178 -1.4860 -1.3492 -0.1954
 9169TIP3    H248923   2.097   1.079  15.087  0.5541  1.4317  1.3835
 9170TIP3   OH248924   5.830   3.804  11.072 -0.3796  0.2325  0.1672
 9170TIP3    H148925   5.769   3.860  11.024 -0.9663  0.2879  0.9579
 9170TIP3    H248926   5.815   3.826  11.165  2.1774  1.6670  0.3567
 9171TIP3   OH248927   0.081   1.658   5.786 -0.2589  0.4303  0.1156
 9171TIP3    H148928  -0.009   1.626   5.793  0.1589 -1.4026 -1.9576
 9171TIP3    H248929   0.122   1.632   5.869 -1.3323  0.2808  0.6147
 9172TIP3   OH248930   3.932   2.982   2.712 -0.5703 -0.1360 -0.1585
 9172TIP3    H148931   3.840   2.977   2.738 -0.2441 -2.4567  0.8420
 9172TIP3    H248932   3.974   3.028   2.784 -0.8233  0.2524 -0.2545
 9173TIP3   OH248933   1.109   2.059  13.289  0.2788 -0.1543  0.0308
 9173TIP3    H148934   1.095   1.976  13.244  1.7875 -0.6768  0.4797
 9173TIP3    H248935   1.114   2.037  13.382 -2.5269  0.8877  0.5395
 9174TIP3   OH248936   0.957   6.387   6.061  0.0069 -0.5997 -0.0287
 9174TIP3    H148937   0.919   6.330   6.128  0.3829 -0.4892  0.2781
 9174TIP3    H248938   1.046   6.403   6.090 -0.2574  0.6085  0.1785
 9175TIP3   OH248939   3.261   5.681   0.011  0.4316 -0.6296 -0.9623
 9175TIP3    H148940   3.328   5.613   0.011  0.7641 -0.3682  1.1580
 9175TIP3    H248941   3.208   5.663  -0.066  1.4798 -2.3141 -1.3252
 9176TIP3   OH248942   2.382   4.648   3.720 -0.7478 -0.3243 -0.1189
 9176TIP3    H148943   2.337   4.566   3.741 -1.6775 -0.1228 -1.2731
 9176TIP3    H248944   2.376   4.698   3.801 -3.2038 -0.0534 -0.3787
 9177TIP3   OH248945   4.158   4.031  15.093  0.1172  0.2236  0.3077
 9177TIP3    H148946   4.242   4.075  15.109  1.8807 -2.5137 -0.6128
 9177TIP3    H248947   4.127   4.066  15.010 -0.5897  2.4939  1.4646
 9178TIP3   OH248948   5.571   0.605   5.171  0.1368 -0.0161  0.0598
 9178TIP3    H148949   5.560   0.546   5.097 -1.7211 -0.3566  0.5328
 9178TIP3    H248950   5.653   0.651   5.154 -0.6022  0.5043 -2.6189
 9179TIP3   OH248951   1.320   1.577  15.820  0.3737  0.1692 -0.3505
 9179TIP3    H148952   1.242   1.633  15.824  0.0294 -0.1772 -1.7946
 9179TIP3    H248953   1.303   1.507  15.883 -0.3607  0.2579 -0.4415
 9180TIP3   OH248954   4.774   4.536  15.230  0.1046 -0.3272 -0.2926
 9180TIP3    H148955   4.752   4.479  15.305  0.8273 -0.1172  0.0937
 9180TIP3    H248956   4.795   4.620  15.270  0.7160 -0.2751 -0.7082
 9181TIP3   OH248957   6.472   5.288   0.130 -0.5859 -0.0478  0.0746
 9181TIP3    H148958   6.504   5.295   0.220 -0.4209 -0.7496  0.0785
 9181TIP3    H248959   6.551   5.276   0.077 -0.5730  1.5732 -0.3186
 9182TIP3   OH248960   1.960   2.719  11.915  0.0733  0.3504  0.4572
 9182TIP3    H148961   1.997   2.643  11.868 -1.3723  1.3912 -2.6921
 9182TIP3    H248962   2.012   2.793  11.884 -1.3390  1.1565 -0.0764
 9183TIP3   OH248963   1.093   0.391   5.916 -0.4782 -0.1718 -0.6460
 9183TIP3    H148964   1.071   0.484   5.918  0.2858  0.0158 -0.7081
 9183TIP3    H248965   1.014   0.348   5.884 -1.3977  0.2839  0.8928
 9184TIP3   OH248966   2.727   5.957  14.719 -0.6647  0.3164  0.4025
 9184TIP3    H148967   2.740   6.029  14.658  0.2344  1.5824  1.9845
 9184TIP3    H248968   2.800   5.898  14.702 -2.0094 -0.8559 -1.6495
 9185TIP3   OH248969   2.178   0.646  16.817 -0.1039  0.0289  0.2972
 9185TIP3    H148970   2.180   0.597  16.899  2.2155 -2.5163 -1.1208
 9185TIP3    H248971   2.122   0.593  16.759  2.3775 -1.0632 -1.2465
 9186TIP3   OH248972   0.172   4.093  15.423 -0.8206 -0.2328  0.8540
 9186TIP3    H148973   0.239   4.072  15.358  0.2698 -0.1109  1.9121
 9186TIP3    H248974   0.184   4.186  15.441  1.1287 -0.8754  3.5944
 9187TIP3   OH248975   1.667   5.884  12.667  0.2795  1.1876  0.4025
 9187TIP3    H148976   1.667   5.801  12.716  1.4092  1.3228  0.6771
 9187TIP3    H248977   1.601   5.938  12.710  1.8998  1.6668  2.5026
 9188TIP3   OH248978   3.214   5.912   0.707  0.6017  0.0700 -0.1012
 9188TIP3    H148979   3.242   5.820   0.698  0.8991  0.1421  0.0680
 9188TIP3    H248980   3.291   5.956   0.744  0.2475  0.2622  0.4153
 9189TIP3   OH248981   5.017   3.700  16.152 -0.7052  0.0830  0.4281
 9189TIP3    H148982   5.002   3.793  16.135  2.2977  0.8840  1.6033
 9189TIP3    H248983   4.976   3.685  16.237 -2.1034  0.0282 -0.2317
 9190TIP3   OH248984   1.218   5.723  15.878 -0.5151 -0.8944 -0.2258
 9190TIP3    H148985   1.178   5.697  15.794  0.6986 -0.3774 -0.9802
 9190TIP3    H248986   1.187   5.812  15.892  0.1625 -0.5813 -0.6882
 9191TIP3   OH248987   5.719   2.672  15.410  0.2940 -0.3807 -0.6911
 9191TIP3    H148988   5.763   2.753  15.384 -0.3098  0.1567 -0.0591
 9191TIP3    H248989   5.772   2.603  15.370  0.8615  0.3144 -1.1732
 9192TIP3   OH248990   0.747   6.338   0.963  0.2109 -0.6012 -0.3596
 9192TIP3    H148991   0.713   6.249   0.952  0.8848 -0.9242  0.1653
 9192TIP3    H248992   0.686   6.392   0.913 -2.0806 -0.9660  1.8367
 9193TIP3   OH248993   2.925   2.960   1.900 -0.1102 -0.2947 -1.1970
 9193TIP3    H148994   2.929   2.952   1.996 -0.4852 -1.1841 -1.2514
 9193TIP3    H248995   2.884   3.046   1.886 -0.0903 -0.1716 -0.5644
 9194TIP3   OH248996   5.632   4.381   5.321  0.3563 -0.1351 -0.0013
 9194TIP3    H148997   5.600   4.470   5.336  0.1135 -0.2597  0.2420
 9194TIP3    H248998   5.642   4.374   5.226  4.1125  1.4329  0.1114
 9195TIP3   OH248999   6.711   2.983   5.783 -0.2745 -0.1019  0.0468
 9195TIP3    H149000   6.668   3.046   5.726  0.3522  0.1751 -0.1318
 9195TIP3    H249001   6.768   3.036   5.838  2.1165 -0.6464 -1.7199
 9196TIP3   OH249002   3.396   0.497  12.723 -0.2195 -0.3916 -0.3391
 9196TIP3    H149003   3.314   0.449  12.708 -0.7842  0.4689 -0.0609
 9196TIP3    H249004   3.455   0.465  12.655 -1.1971 -0.0828 -1.3674
 9197TIP3   OH249005   4.744   1.270  16.207  0.1284  0.1517 -0.5234
 9197TIP3    H149006   4.786   1.184  16.207 -1.3277 -0.6182 -1.7126
 9197TIP3    H249007   4.680   1.265  16.136  0.0225  2.2402 -0.6412
 9198TIP3   OH249008   3.790   1.987  13.583 -0.2197 -0.0160  0.3307
 9198TIP3    H149009   3.702   1.966  13.615 -0.4951  1.1704  0.3785
 9198TIP3    H249010   3.796   2.082  13.588  1.9923 -0.1795  2.8057
 9199TIP3   OH249011   5.357   4.029  17.021  0.2888  0.5950  0.5969
 9199TIP3    H149012   5.301   4.041  16.944 -0.4144  0.0762  1.0190
 9199TIP3    H249013   5.427   3.971  16.991  1.0462  1.8302 -0.1382
 9200TIP3   OH249014   4.225   1.375   1.068 -0.4196  0.1893 -0.0297
 9200TIP3    H149015   4.320   1.383   1.072 -0.3949  0.0233 -0.2937
 9200TIP3    H249016   4.206   1.288   1.104 -0.3672 -0.3388 -1.2213
 9201TIP3   OH249017   0.701   0.418   0.774  0.9878 -0.4821  0.0706
 9201TIP3    H149018   0.729   0.441   0.863 -0.9008 -2.7194  1.3531
 9201TIP3    H249019   0.739   0.332   0.758 -0.0823 -0.8456 -0.5955
 9202TIP3   OH249020   1.109   6.135  14.081 -0.0353  0.6231 -0.3579
 9202TIP3    H149021   1.140   6.056  14.126  1.7852  1.3012 -0.3341
 9202TIP3    H249022   1.025   6.110  14.043 -1.1981 -0.2847  2.5695
 9203TIP3   OH249023   1.203   5.554  13.268 -0.1110  0.1826 -0.2039
 9203TIP3    H149024   1.190   5.612  13.194 -1.4747  0.1110 -0.0419
 9203TIP3    H249025   1.127   5.496  13.268  0.8274 -1.1224  0.0947
 9204TIP3   OH249026   2.014   0.349  15.928 -0.0548 -0.1630  0.3840
 9204TIP3    H149027   2.000   0.444  15.935 -0.8518 -0.2645  0.2299
 9204TIP3    H249028   1.943   0.311  15.979  0.6812 -0.6711  1.0591
 9205TIP3   OH249029   2.788   1.840  13.218  0.4029  0.8566  0.1348
 9205TIP3    H149030   2.853   1.785  13.175  0.5345  1.0767  0.0519
 9205TIP3    H249031   2.820   1.929  13.206 -0.0199  0.9799 -0.0832
 9206TIP3   OH249032   1.330   2.034   5.729 -0.7261 -0.0019  0.1936
 9206TIP3    H149033   1.378   1.981   5.793  0.3071 -0.3199 -0.7986
 9206TIP3    H249034   1.371   2.120   5.733  0.1075 -0.3326 -0.8077
 9207TIP3   OH249035   5.905   4.542   2.192 -0.4717  0.0450  0.2474
 9207TIP3    H149036   5.881   4.607   2.126  1.4468  2.4074  1.6924
 9207TIP3    H249037   5.992   4.513   2.167 -0.0146  0.4494  1.3000
 9208TIP3   OH249038   2.563   4.273   2.228 -0.6022  0.2771  0.2377
 9208TIP3    H149039   2.632   4.244   2.168 -1.0727  0.5232 -0.4366
 9208TIP3    H249040   2.525   4.192   2.262  0.3198  0.1378  0.9882
 9209TIP3   OH249041   3.671   0.156  15.277  0.0011 -0.1522  0.1859
 9209TIP3    H149042   3.584   0.194  15.265 -0.9928 -2.2222  0.3927
 9209TIP3    H249043   3.710   0.156  15.190  0.2534  1.7520  0.2691
 9210TIP3   OH249044   0.574   4.609  13.293 -0.1813 -0.2469 -0.5574
 9210TIP3    H149045   0.545   4.529  13.249  3.0097 -1.0644 -1.4532
 9210TIP3    H249046   0.661   4.587  13.327  0.2873  2.4765  0.2348
 9211TIP3   OH249047   0.612   4.535   2.235 -0.5499  0.3301 -0.6724
 9211TIP3    H149048   0.552   4.460   2.239  0.4011 -0.4269  2.2267
 9211TIP3    H249049   0.688   4.502   2.186  0.5670 -1.3078  1.9444
 9212TIP3   OH249050   1.535   5.119  15.883 -0.4923 -0.0683  0.1805
 9212TIP3    H149051   1.568   5.077  15.962 -1.4032  0.1290  0.6793
 9212TIP3    H249052   1.566   5.064  15.812  2.4951  1.0801  0.4382
 9213TIP3   OH249053   5.892   2.941   4.836  0.3850  0.5205 -0.4161
 9213TIP3    H149054   5.861   2.878   4.771  1.4635  0.6066 -1.0455
 9213TIP3    H249055   5.957   2.894   4.887  0.8648  0.9679 -0.5947
 9214TIP3   OH249056   1.886   0.324   5.505 -0.2047 -0.4598  0.4980
 9214TIP3    H149057   1.851   0.241   5.536  2.9341 -0.7577  3.8792
 9214TIP3    H249058   1.887   0.380   5.583  0.3050  1.8404 -1.0588
 9215TIP3   OH249059   2.875   6.291  14.048  0.4219 -0.4242 -0.0939
 9215TIP3    H149060   2.954   6.342  14.064  1.4440 -1.9951  0.1199
 9215TIP3    H249061   2.861   6.296  13.953  1.2849 -0.8098 -0.2533
 9216TIP3   OH249062   5.011   3.214  15.558  0.1796 -0.0655 -0.2758
 9216TIP3    H149063   4.966   3.164  15.491 -1.2203 -1.1995  1.4320
 9216TIP3    H249064   4.952   3.287  15.577  1.1413  0.9633 -1.1029
 9217TIP3   OH249065   0.023   4.171  15.816 -0.0433  0.1712 -0.4878
 9217TIP3    H149066   0.027   4.130  15.902 -2.4196  1.7596  0.4927
 9217TIP3    H249067   0.018   4.097  15.755 -1.9175 -1.0433  1.0152
 9218TIP3   OH249068   0.639   2.544  16.610  0.6982  0.3321 -0.0297
 9218TIP3    H149069   0.578   2.570  16.541 -0.6768  1.3062  1.4632
 9218TIP3    H249070   0.588   2.551  16.691  2.1092 -1.2042  1.0691
 9219TIP3   OH249071   1.731   6.116  11.715  0.3508 -0.0637 -0.1816
 9219TIP3    H149072   1.680   6.146  11.641 -0.8720 -2.7993 -0.5543
 9219TIP3    H249073   1.821   6.141  11.694  0.0158 -0.6418 -2.5364
 9220TIP3   OH249074   5.359   3.716   0.119  0.5236 -0.6531  0.1864
 9220TIP3    H149075   5.312   3.711   0.035 -1.1471  1.2107  0.9231
 9220TIP3    H249076   5.443   3.757   0.097  0.4608 -0.9606 -0.6860
 9221TIP3   OH249077   5.909   6.290  11.021 -0.0889 -0.2590  0.0289
 9221TIP3    H149078   5.880   6.198  11.017 -0.9009  0.0285 -0.9800
 9221TIP3    H249079   5.975   6.297  10.952  0.2103 -0.1669  0.3259
 9222TIP3   OH249080   5.801   6.168   4.270  0.3693  0.5748 -0.2052
 9222TIP3    H149081   5.838   6.143   4.355  1.1264 -0.9922 -0.9458
 9222TIP3    H249082   5.787   6.263   4.276  1.4316  0.6638  1.2681
 9223TIP3   OH249083   0.131   1.643   3.309 -0.6332  0.1943 -0.0600
 9223TIP3    H149084   0.109   1.561   3.265  0.8729  1.5197 -3.6725
 9223TIP3    H249085   0.046   1.686   3.322 -1.2779 -1.0724  0.1051
 9224TIP3   OH249086   4.898   3.075   0.173  0.4853  0.0532  0.1159
 9224TIP3    H149087   4.938   3.160   0.193  0.9140 -0.2966  0.7969
 9224TIP3    H249088   4.930   3.017   0.242 -1.4803 -0.1714  0.8765
 9225TIP3   OH249089   2.580   0.808   2.901 -0.0474  0.4482  0.8676
 9225TIP3    H149090   2.532   0.776   2.825 -0.2607  3.6841 -0.4992
 9225TIP3    H249091   2.666   0.765   2.895  0.0186  0.7814 -1.3402
 9226TIP3   OH249092   3.426   0.434   1.618 -0.0855  0.2469 -0.2065
 9226TIP3    H149093   3.386   0.367   1.563  0.3471  0.4909 -0.8261
 9226TIP3    H249094   3.516   0.403   1.631 -0.2135  0.1325  0.4689
 9227TIP3   OH249095   2.481   5.594  11.325  0.1533  0.0162  0.1140
 9227TIP3    H149096   2.468   5.684  11.297 -1.1835  0.0931  0.8810
 9227TIP3    H249097   2.561   5.566  11.281 -1.4168  0.2969 -3.2868
 9228TIP3   OH249098   3.277   6.429   0.373 -0.2576 -0.4828 -0.3964
 9228TIP3    H149099   3.363   6.464   0.396 -0.1924 -0.4637 -0.6671
 9228TIP3    H249100   3.217   6.502   0.387 -0.2631 -0.5659  0.0179
 9229TIP3   OH249101   2.956   4.443  16.066  0.2403  0.3623  0.2240
 9229TIP3    H149102   2.966   4.390  16.145  0.0966  0.8774  0.5910
 9229TIP3    H249103   2.931   4.380  15.998 -1.6012  0.1794  1.0109
 9230TIP3   OH249104   4.938   4.537  16.310  0.7534  0.0124  0.3466
 9230TIP3    H149105   4.858   4.514  16.262 -0.8000  0.4037  2.5963
 9230TIP3    H249106   4.950   4.630  16.293  1.2869 -0.2260 -0.7007
 9231TIP3   OH249107   4.834   3.473   1.390 -0.2928  0.4443  0.1834
 9231TIP3    H149108   4.788   3.447   1.310 -0.8690  0.9744  0.3341
 9231TIP3    H249109   4.899   3.404   1.404 -0.6176  0.0153 -0.3851
 9232TIP3   OH249110   2.295   4.565  14.589 -0.0556  0.3272  0.3255
 9232TIP3    H149111   2.259   4.555  14.501  2.6063  0.8978 -0.9307
 9232TIP3    H249112   2.333   4.480  14.609 -0.5019  0.2534  0.8808
 9233TIP3   OH249113   2.808   2.639   2.933  0.6895 -0.1921 -0.5609
 9233TIP3    H149114   2.780   2.608   3.019  1.7188  0.1698 -0.0802
 9233TIP3    H249115   2.820   2.733   2.943 -0.7705  0.1337 -1.5629
 9234TIP3   OH249116   3.536   1.178  16.237  0.1050 -0.5159  0.6928
 9234TIP3    H149117   3.456   1.133  16.263 -0.9939  0.9337 -0.0183
 9234TIP3    H249118   3.550   1.244  16.305 -1.0151  1.1904 -0.6493
 9235TIP3   OH249119   1.818   2.206  15.721 -0.7045 -0.2191 -0.3036
 9235TIP3    H149120   1.790   2.161  15.801 -1.5728  0.0810 -0.4316
 9235TIP3    H249121   1.906   2.173  15.705 -0.6279 -0.4897  0.6247
 9236TIP3   OH249122   2.122   5.630  14.360 -0.0584  0.0295 -0.5509
 9236TIP3    H149123   2.080   5.713  14.379  0.8835  0.3873  0.0382
 9236TIP3    H249124   2.123   5.584  14.444  0.8934  0.1156 -0.5048
 9237TIP3   OH249125   0.634   3.622  11.721  0.8482  0.3366 -0.1971
 9237TIP3    H149126   0.597   3.533  11.714  1.5636  0.0114  0.0537
 9237TIP3    H249127   0.729   3.608  11.720  0.9623  1.0448  0.5519
 9238TIP3   OH249128   1.002   2.575  17.129  0.1413  0.5047  0.3137
 9238TIP3    H149129   1.001   2.626  17.048 -3.3468  0.8781  0.4166
 9238TIP3    H249130   1.000   2.640  17.198 -0.0662  0.2166  0.5818
 9239TIP3   OH249131   3.592   5.628   4.303  0.3166 -0.2468 -0.3416
 9239TIP3    H149132   3.580   5.623   4.208  0.2943 -0.6683 -0.3207
 9239TIP3    H249133   3.646   5.705   4.316  2.5880 -1.6195 -0.9534
 9240TIP3   OH249134   2.879   3.095   4.337  0.2409  0.4719  0.4329
 9240TIP3    H149135   2.927   3.174   4.364  0.7168  0.4051 -0.1892
 9240TIP3    H249136   2.939   3.050   4.278 -0.5081  0.2685 -0.1838
 9241TIP3   OH249137   3.412   0.571  15.223  0.1343 -0.0350 -0.2435
 9241TIP3    H149138   3.349   0.518  15.273  0.7299  0.7506  1.4311
 9241TIP3    H249139   3.413   0.532  15.136 -1.0659 -1.3945  0.3139
 9242TIP3   OH249140   1.154   2.258  15.767  0.0241  0.5098 -0.4524
 9242TIP3    H149141   1.084   2.285  15.826 -0.1765 -0.8854  0.0039
 9242TIP3    H249142   1.114   2.260  15.680 -0.2791  0.6792 -0.3109
 9243TIP3   OH249143   5.902   0.461   4.818  0.3492 -0.0220 -0.7014
 9243TIP3    H149144   5.827   0.435   4.871  0.8127 -2.3131 -1.0731
 9243TIP3    H249145   5.978   0.430   4.866  1.0244  1.2102 -0.9164
 9244TIP3   OH249146   1.271   2.100  13.036 -0.3950  0.0119 -0.2502
 9244TIP3    H149147   1.283   2.081  13.129  0.5308  2.0981  0.1125
 9244TIP3    H249148   1.319   2.030  12.991  1.8172  0.6678  0.9398
 9245TIP3   OH249149   1.390   2.617  12.503 -0.0860  0.3961 -0.4170
 9245TIP3    H149150   1.335   2.645  12.429  0.6630  1.4149 -0.6211
 9245TIP3    H249151   1.452   2.555  12.464 -1.1835 -0.9099 -0.1464
 9246TIP3   OH249152   0.648   5.878   1.395 -0.4145  0.4534  0.0441
 9246TIP3    H149153   0.691   5.797   1.421  1.1392  1.1979 -0.1378
 9246TIP3    H249154   0.555   5.862   1.413 -0.2335 -1.5764 -0.5548
 9247TIP3   OH249155   2.621   4.320  15.266 -0.4283  0.2563 -0.1001
 9247TIP3    H149156   2.709   4.354  15.283 -0.7909  0.8954  0.5616
 9247TIP3    H249157   2.590   4.369  15.190 -1.0430  1.6417  0.9960
 9248TIP3   OH249158   0.406   4.696   5.880 -0.3882  0.2317 -0.0772
 9248TIP3    H149159   0.316   4.730   5.881 -0.0512  1.1509  0.3982
 9248TIP3    H249160   0.454   4.758   5.824  0.2375  0.5597  0.7927
 9249TIP3   OH249161   6.266   0.183   6.063  0.1350 -0.5867 -0.0719
 9249TIP3    H149162   6.359   0.207   6.067  0.0849 -0.3348 -0.3870
 9249TIP3    H249163   6.265   0.101   6.014  0.0294  0.3758 -1.7618
 9250TIP3   OH249164   1.693   1.171   2.793  0.8793  0.4256 -0.1437
 9250TIP3    H149165   1.689   1.260   2.758  0.3535  0.7094  0.6024
 9250TIP3    H249166   1.750   1.124   2.733  1.0753  1.2399 -0.6126
 9251TIP3   OH249167   4.875   2.433   5.013 -0.3322 -0.0531 -0.4473
 9251TIP3    H149168   4.893   2.343   4.988 -1.4376 -0.4287  0.0191
 9251TIP3    H249169   4.802   2.426   5.075 -0.8576  1.1976 -0.8876
 9252TIP3   OH249170   0.442   3.095  15.502 -0.0319  0.2367 -0.0944
 9252TIP3    H149171   0.426   3.162  15.568 -0.6325  1.9948 -1.9235
 9252TIP3    H249172   0.531   3.064  15.520 -0.1185  0.7858  1.4009
 9253TIP3   OH249173   3.673   1.595  13.632  0.1575 -0.5241 -0.5854
 9253TIP3    H149174   3.625   1.590  13.550  1.6647 -0.7362 -1.4805
 9253TIP3    H249175   3.622   1.540  13.693 -0.8744 -0.4974 -1.3958
 9254TIP3   OH249176   5.750   3.801  14.532  0.5290 -0.6327  0.6490
 9254TIP3    H149177   5.741   3.710  14.561 -0.3180 -0.8179 -0.1752
 9254TIP3    H249178   5.812   3.839  14.594  0.8226 -1.7443  1.0661
 9255TIP3   OH249179   6.768   0.506  10.236 -0.3433  0.4604 -0.5184
 9255TIP3    H149180   6.817   0.580  10.201 -0.2851  0.7011  0.0504
 9255TIP3    H249181   6.680   0.516  10.202  0.1492 -0.3805 -2.1510
 9256TIP3   OH249182   1.663   3.681  13.299 -0.0756 -0.0217  0.3010
 9256TIP3    H149183   1.757   3.684  13.282  0.3859 -2.4422  1.9382
 9256TIP3    H249184   1.655   3.698  13.393 -1.2092 -0.5805  0.3238
 9257TIP3   OH249185   4.279   1.121  16.468  0.0674 -0.2404 -0.1596
 9257TIP3    H149186   4.373   1.105  16.459  0.5984  0.4329  2.9412
 9257TIP3    H249187   4.238   1.059  16.408  2.4419  0.9433 -3.3126
 9258TIP3   OH249188   1.298   6.160  13.868  0.4691 -0.2785  0.3326
 9258TIP3    H149189   1.246   6.151  13.948  0.9397  1.9526  0.9617
 9258TIP3    H249190   1.358   6.085  13.870 -0.8826 -1.3867  0.9932
 9259TIP3   OH249191   3.029   3.171  11.450 -0.0968  0.5434 -0.0442
 9259TIP3    H149192   3.106   3.175  11.393 -0.2317  1.8610 -0.1714
 9259TIP3    H249193   3.062   3.134  11.532  0.6830  1.0696 -0.1048
 9260TIP3   OH249194   2.226   1.918  12.195  0.4243  0.3401 -0.5962
 9260TIP3    H149195   2.167   1.942  12.266 -0.6322  0.6005 -1.5387
 9260TIP3    H249196   2.299   1.874  12.239 -0.6503 -0.3657  0.5546
 9261TIP3   OH249197   2.726   4.576  12.177 -0.5306 -0.1137 -0.4959
 9261TIP3    H149198   2.819   4.574  12.200 -0.5771  0.3246 -0.2419
 9261TIP3    H249199   2.681   4.553  12.258 -0.6973  1.4208 -0.1102
 9262TIP3   OH249200   4.851   6.349   1.789 -0.1357  0.8292  0.7779
 9262TIP3    H149201   4.785   6.338   1.720 -0.4339  1.0007  1.0327
 9262TIP3    H249202   4.924   6.393   1.745 -0.1133  0.4663  0.4481
 9263TIP3   OH249203   0.315   0.411   3.693  0.7461  0.4640  0.5572
 9263TIP3    H149204   0.346   0.495   3.661 -1.2258  1.6419  1.5108
 9263TIP3    H249205   0.328   0.414   3.788 -0.3328  0.1861  0.7362
 9264TIP3   OH249206   2.945   2.496   0.964 -0.4597  0.2251  0.9228
 9264TIP3    H149207   2.894   2.469   0.888 -0.0562  0.8439  0.4225
 9264TIP3    H249208   2.993   2.417   0.991  0.5977  0.3681 -0.4247
 9265TIP3   OH249209   4.172   1.136   5.182  0.6280 -0.1794  0.5476
 9265TIP3    H149210   4.081   1.150   5.155 -0.1426  0.9980  3.3838
 9265TIP3    H249211   4.168   1.060   5.240  1.5926 -0.5132  0.2017
 9266TIP3   OH249212   4.601   0.724  16.105  0.4003 -0.0985 -0.1109
 9266TIP3    H149213   4.684   0.685  16.133  0.6907  1.3661  1.2035
 9266TIP3    H249214   4.626   0.786  16.037  0.5691  1.1595  1.0592
 9267TIP3   OH249215   0.111   4.437  15.253  0.2951  0.9308  0.0963
 9267TIP3    H149216   0.041   4.413  15.192  1.6006  1.0039 -1.4875
 9267TIP3    H249217   0.066   4.449  15.337 -1.8201  2.3607 -1.1393
 9268TIP3   OH249218   3.546   3.325  11.660 -0.2642 -0.4496  0.1289
 9268TIP3    H149219   3.499   3.277  11.591 -1.7841  0.3191  0.5711
 9268TIP3    H249220   3.543   3.416  11.630  2.4825 -0.5421 -0.6516
 9269TIP3   OH249221   0.299   1.529  13.930  0.6543 -0.2967 -0.0262
 9269TIP3    H149222   0.228   1.563  13.984  0.5057  0.6253 -0.7689
 9269TIP3    H249223   0.336   1.607  13.887  1.7777 -0.8228 -0.0465
 9270TIP3   OH249224   1.297   4.863  16.937  0.0388  0.2775  0.0584
 9270TIP3    H149225   1.306   4.770  16.916  1.5998  0.2993  0.4695
 9270TIP3    H249226   1.237   4.866  17.011  1.6812 -0.6556  1.5130
 9271TIP3   OH249227   4.893   4.322   1.112  0.5270 -0.2172 -0.3673
 9271TIP3    H149228   4.847   4.373   1.178 -0.8629 -1.2990 -0.4774
 9271TIP3    H249229   4.985   4.347   1.123 -0.1674  3.6017 -1.5069
 9272TIP3   OH249230   1.188   1.749  17.160  0.3637  0.0970 -0.6226
 9272TIP3    H149231   1.260   1.686  17.168  0.3303  0.0216 -0.8966
 9272TIP3    H249232   1.112   1.702  17.193  0.6854  0.6465  0.9980
 9273TIP3   OH249233   2.001   5.496   3.536 -0.3300 -0.7285  0.2824
 9273TIP3    H149234   2.040   5.552   3.469 -0.7985 -0.8658 -0.1112
 9273TIP3    H249235   2.073   5.442   3.567  0.3165  0.6502  1.2628
 9274TIP3   OH249236   3.146   6.321   6.190  0.2486 -0.3457  0.5283
 9274TIP3    H149237   3.059   6.359   6.205  0.0758 -0.0210 -1.1307
 9274TIP3    H249238   3.191   6.332   6.273 -1.7241 -1.7025  1.8587
 9275TIP3   OH249239   4.870   4.216  14.595 -0.0158 -0.7234 -0.3017
 9275TIP3    H149240   4.817   4.284  14.637 -1.1997 -0.9771 -1.3202
 9275TIP3    H249241   4.823   4.134  14.613 -0.9714 -0.7773 -2.6256
 9276TIP3   OH249242   5.797   5.867  12.485 -0.2264  0.0329 -0.0827
 9276TIP3    H149243   5.889   5.885  12.507  0.0265  1.2777 -1.8979
 9276TIP3    H249244   5.788   5.773  12.496  1.0113  0.0083  0.9982
 9277TIP3   OH249245   5.234   5.216   3.973  0.0709 -0.0559 -0.1835
 9277TIP3    H149246   5.319   5.259   3.967  0.9482 -1.8075 -1.4376
 9277TIP3    H249247   5.195   5.249   4.054  2.4164 -0.0349  0.9959
 9278TIP3   OH249248   2.887   2.885   3.022  0.5057 -0.3607  0.3406
 9278TIP3    H149249   2.966   2.929   2.991 -0.9093  0.6232 -2.1648
 9278TIP3    H249250   2.826   2.957   3.041 -0.2470 -1.1258  0.8773
 9279TIP3   OH249251   5.539   5.794   3.928 -0.7842  0.2313  0.1344
 9279TIP3    H149252   5.555   5.846   3.849 -0.0762 -1.4420 -0.8822
 9279TIP3    H249253   5.613   5.812   3.985 -1.8373  2.3010  0.9652
 9280TIP3   OH249254   6.450   0.468  14.631  0.2632 -0.1083  0.1429
 9280TIP3    H149255   6.455   0.481  14.725 -1.8047  0.3029  0.2411
 9280TIP3    H249256   6.432   0.374  14.621 -1.8966  0.2448  0.3208
 9281TIP3   OH249257   5.945   4.563   5.185 -0.1958 -0.2199 -0.3010
 9281TIP3    H149258   5.853   4.586   5.174 -0.1965 -0.1790 -0.2114
 9281TIP3    H249259   5.958   4.488   5.127 -1.0781 -2.2578  1.9194
 9282TIP3   OH249260   6.203   6.022  13.184 -0.7131 -0.3119 -0.1243
 9282TIP3    H149261   6.283   5.978  13.212 -0.4192 -0.0208 -0.4992
 9282TIP3    H249262   6.175   6.072  13.260  0.2574  0.7274 -0.4327
 9283TIP3   OH249263   0.729   6.311  13.958 -0.0699 -0.2003 -0.1405
 9283TIP3    H149264   0.767   6.399  13.960 -1.2031  0.4140 -2.4731
 9283TIP3    H249265   0.635   6.326  13.963 -0.3831 -1.1090 -2.2536
 9284TIP3   OH249266   4.592   1.608  15.500  0.5840 -0.6503  0.5202
 9284TIP3    H149267   4.661   1.575  15.441  0.8875 -0.8084  0.9570
 9284TIP3    H249268   4.624   1.694  15.528  0.8761 -0.9644  1.1663
 9285TIP3   OH249269   4.399   2.553   1.823  0.3960  0.1153 -0.0849
 9285TIP3    H149270   4.363   2.494   1.890 -2.4145  2.2680  0.5240
 9285TIP3    H249271   4.463   2.606   1.871  1.8556 -1.3602 -0.2996
 9286TIP3   OH249272   4.236   0.869   5.655  0.9005 -0.0879 -0.1459
 9286TIP3    H149273   4.171   0.940   5.657 -0.3077 -1.1321 -0.6563
 9286TIP3    H249274   4.317   0.911   5.627 -0.1952  0.8063 -2.1743
 9287TIP3   OH249275   2.643   5.025   3.431 -0.2295  0.4206  0.0604
 9287TIP3    H149276   2.563   5.072   3.455  0.8667  1.8780  1.0245
 9287TIP3    H249277   2.635   4.941   3.477 -1.3565  0.3925 -0.1479
 9288TIP3   OH249278   0.755   4.208   0.971  0.1249 -0.5499 -0.3252
 9288TIP3    H149279   0.661   4.217   0.988 -0.0612 -1.3116 -0.8777
 9288TIP3    H249280   0.764   4.223   0.877  1.0674  3.0786  0.2242
 9289TIP3   OH249281   2.504   5.606  15.290  0.4355  0.0998  0.2508
 9289TIP3    H149282   2.566   5.570  15.227  0.0696 -2.0256  0.9932
 9289TIP3    H249283   2.559   5.652  15.354  1.0070  0.3832 -0.4339
 9290TIP3   OH249284   5.134   5.688   3.015 -0.8114  0.2381 -0.2737
 9290TIP3    H149285   5.052   5.730   2.987  0.6400  1.8069 -2.5628
 9290TIP3    H249286   5.162   5.739   3.091 -2.8090 -1.5334  1.8022
 9291TIP3   OH249287   0.504   0.820  16.090 -0.8605 -0.3488 -0.3126
 9291TIP3    H149288   0.527   0.912  16.086 -1.0755 -0.2777  0.0560
 9291TIP3    H249289   0.408   0.819  16.096 -0.7795 -0.5066  1.9617
 9292TIP3   OH249290   3.892   0.524  14.515  0.0951 -0.0566 -0.0531
 9292TIP3    H149291   3.950   0.505  14.589  0.9326  0.7040 -0.4891
 9292TIP3    H249292   3.951   0.547  14.444 -0.7438  0.7983 -0.4945
 9293TIP3   OH249293   6.541   1.833  11.801  0.1033  0.4137 -0.3054
 9293TIP3    H149294   6.578   1.913  11.839 -0.0178  0.5476 -0.4657
 9293TIP3    H249295   6.618   1.783  11.771  0.1356  1.0732 -1.3983
 9294TIP3   OH249296   2.255   4.604   5.111  0.1222  0.1344  0.2960
 9294TIP3    H149297   2.180   4.663   5.102 -1.2859 -1.5771  0.4069
 9294TIP3    H249298   2.243   4.562   5.196  0.7288 -0.7980 -0.0612
 9295TIP3   OH249299   1.829   0.626   1.810 -0.3238  0.8311 -0.1724
 9295TIP3    H149300   1.769   0.615   1.883 -0.2689 -0.4690 -0.3021
 9295TIP3    H249301   1.774   0.657   1.737 -0.8323 -0.2453 -0.2626
 9296TIP3   OH249302   1.106   3.705   4.585 -0.2181  0.4323  0.2889
 9296TIP3    H149303   1.074   3.743   4.503 -1.6554  0.1903  0.7211
 9296TIP3    H249304   1.200   3.726   4.586  0.0899 -0.5327 -1.9593
 9297TIP3   OH249305   1.965   6.161   2.169  0.2742  0.0871  0.0105
 9297TIP3    H149306   1.968   6.256   2.179  1.3656 -0.0732  1.5632
 9297TIP3    H249307   1.879   6.144   2.131 -1.4355  1.4772  2.8732
 9298TIP3   OH249308   5.493   2.706   6.644  0.2089  0.6338  0.2098
 9298TIP3    H149309   5.578   2.663   6.654 -0.5717 -0.8380  0.7568
 9298TIP3    H249310   5.492   2.737   6.554  1.0907  0.1489  0.0244
 9299TIP3   OH249311   5.901   3.853  11.413  0.4546 -0.4916 -0.4383
 9299TIP3    H149312   5.905   3.885  11.503  0.4242  0.9504 -0.9196
 9299TIP3    H249313   5.842   3.777  11.417  0.1490 -0.2133  0.6891
 9300TIP3   OH249314   4.739   6.374   1.445  0.1119  0.6763  0.1155
 9300TIP3    H149315   4.706   6.439   1.507 -1.0465 -0.4658  0.7443
 9300TIP3    H249316   4.774   6.425   1.373 -0.3216  2.0074  0.8185
 9301TIP3   OH249317   3.274   3.311   5.078 -0.0536 -0.0192  0.3936
 9301TIP3    H149318   3.180   3.303   5.065 -0.1075 -1.0352  1.2802
 9301TIP3    H249319   3.307   3.349   4.996 -1.1172 -0.3911 -0.2200
 9302TIP3   OH249320   2.695   0.164   4.661 -0.4146 -0.1786 -0.3077
 9302TIP3    H149321   2.731   0.077   4.647  0.8348 -0.0978  1.9683
 9302TIP3    H249322   2.738   0.219   4.595 -0.1160 -1.0072 -0.8167
 9303TIP3   OH249323   4.859   0.617   4.090  0.0358  0.3218  0.0569
 9303TIP3    H149324   4.842   0.524   4.102  0.4360  0.4374  1.7651
 9303TIP3    H249325   4.780   0.651   4.048 -0.6796 -0.5546  0.6622
 9304TIP3   OH249326   6.350   3.213   5.990 -0.3465 -0.6158  0.0641
 9304TIP3    H149327   6.299   3.161   6.052  0.8848 -1.6073  0.2917
 9304TIP3    H249328   6.324   3.181   5.904  0.8289 -2.0928  0.2169
 9305TIP3   OH249329   2.240   2.591   4.127  0.3330 -0.2485  0.0030
 9305TIP3    H149330   2.318   2.537   4.112  1.3113  0.5540  1.8056
 9305TIP3    H249331   2.198   2.551   4.204 -1.2570 -0.8686 -1.1432
 9306TIP3   OH249332   5.673   1.703  13.806  0.0588 -0.6708  0.1314
 9306TIP3    H149333   5.681   1.718  13.901  0.5790 -0.5052  0.0683
 9306TIP3    H249334   5.699   1.612  13.794 -0.5763 -0.8659  0.2123
 9307TIP3   OH249335   1.258   0.388  10.640  0.1646  0.3542  0.1787
 9307TIP3    H149336   1.306   0.454  10.690 -0.7584 -0.0806  1.7383
 9307TIP3    H249337   1.231   0.324  10.706 -0.6390 -0.5522 -0.9897
 9308TIP3   OH249338   5.625   3.527   4.549  0.1818 -0.3343 -0.0816
 9308TIP3    H149339   5.534   3.519   4.519  0.1401  1.3737 -0.5046
 9308TIP3    H249340   5.650   3.438   4.572 -1.8615 -0.7570  0.8108
 9309TIP3   OH249341   2.313   1.055  13.233  0.2478  0.7251 -0.1307
 9309TIP3    H149342   2.252   1.110  13.282  0.8445  0.5096  0.8727
 9309TIP3    H249343   2.272   0.968  13.235 -0.1569  0.8947 -0.7790
 9310TIP3   OH249344   1.240   3.920   5.942  0.4530 -0.1536 -0.3570
 9310TIP3    H149345   1.255   3.855   6.011 -1.0521 -0.5238 -0.3292
 9310TIP3    H249346   1.247   3.871   5.861 -1.4371 -0.5974 -0.3183
 9311TIP3   OH249347   5.412   0.474   3.997  0.4651  0.2448 -0.0432
 9311TIP3    H149348   5.348   0.403   4.000 -0.1593  0.8028  0.3282
 9311TIP3    H249349   5.380   0.533   3.928 -0.1207  1.1371  0.9467
 9312TIP3   OH249350   5.836   3.417  13.216 -0.2367 -0.0969  0.4999
 9312TIP3    H149351   5.925   3.451  13.221 -0.1292  0.1249 -1.6552
 9312TIP3    H249352   5.843   3.326  13.242  0.1836  0.4740  2.5379
 9313TIP3   OH249353   0.182   1.855  11.865  0.2087 -0.1236  0.0362
 9313TIP3    H149354   0.235   1.932  11.841  0.7654  0.3826  2.6641
 9313TIP3    H249355   0.208   1.835  11.954  0.5383 -3.8290 -0.7518
 9314TIP3   OH249356   3.342   3.341  15.289  0.0364 -0.4794  0.1654
 9314TIP3    H149357   3.248   3.361  15.295 -0.1451 -1.4458  0.8164
 9314TIP3    H249358   3.375   3.402  15.223 -1.4444 -1.4560 -1.5768
 9315TIP3   OH249359   5.870   4.219  15.347  0.0229  0.1295  0.7067
 9315TIP3    H149360   5.951   4.170  15.332 -0.7840 -1.1828  0.4555
 9315TIP3    H249361   5.895   4.311  15.335  1.0999 -0.3374 -1.1423
 9316TIP3   OH249362   0.671   2.378  16.158  0.0956  0.5130 -0.4058
 9316TIP3    H149363   0.638   2.331  16.081  2.4678  0.8004 -1.6825
 9316TIP3    H249364   0.711   2.309  16.212 -0.2164  0.5127 -0.1738
 9317TIP3   OH249365   4.550   5.196  17.143 -0.7927 -0.3253 -0.2689
 9317TIP3    H149366   4.604   5.117  17.142  0.4284  0.4248 -3.1324
 9317TIP3    H249367   4.482   5.179  17.078 -1.0054  0.6912 -0.3262
 9318TIP3   OH249368   3.870   5.371   4.994  0.4357 -0.7641 -0.3452
 9318TIP3    H149369   3.852   5.337   5.082  1.9293 -1.0365 -0.1160
 9318TIP3    H249370   3.787   5.411   4.966 -0.2188 -1.1541  0.9573
 9319TIP3   OH249371   6.630   4.480   3.502 -0.3052 -0.2816  0.5067
 9319TIP3    H149372   6.575   4.468   3.579  0.5929  0.1163  1.2311
 9319TIP3    H249373   6.571   4.515   3.435 -0.6592  1.5886  1.7135
 9320TIP3   OH249374   2.463   2.211  14.022 -0.3842 -0.7982  0.4910
 9320TIP3    H149375   2.486   2.138  13.964 -0.3698  1.1330 -2.0898
 9320TIP3    H249376   2.394   2.258  13.975  0.9939  2.0092  1.0632
 9321TIP3   OH249377   3.443   3.879   3.881  0.6454  0.0786 -0.4991
 9321TIP3    H149378   3.419   3.938   3.952 -1.6678  0.2816 -1.3575
 9321TIP3    H249379   3.503   3.929   3.827  2.6064 -0.1520  1.3535
 9322TIP3   OH249380   2.356   0.011   0.894  0.1510  0.2885  0.7290
 9322TIP3    H149381   2.352  -0.024   0.983  0.3994  2.8398  1.8471
 9322TIP3    H249382   2.296   0.086   0.895 -0.4529 -0.0754 -1.5255
 9323TIP3   OH249383   5.701   1.267  11.145 -0.0927  0.4355 -0.4939
 9323TIP3    H149384   5.622   1.319  11.134  0.9918  2.3927  0.4388
 9323TIP3    H249385   5.763   1.305  11.082  0.5781 -0.0652 -0.1493
 9324TIP3   OH249386   2.160   3.199  15.374 -0.1533  0.2370  0.3208
 9324TIP3    H149387   2.123   3.204  15.462  0.8381  2.5645  0.6911
 9324TIP3    H249388   2.253   3.182  15.388  0.1943  1.5893 -0.1761
 9325TIP3   OH249389   4.713   1.810  12.021  0.3157 -0.3579  0.4727
 9325TIP3    H149390   4.694   1.746  12.089 -0.4089  0.4687  1.0650
 9325TIP3    H249391   4.800   1.844  12.043 -0.4647  0.8593  1.7587
 9326TIP3   OH249392   2.701   5.541  14.129  0.2261  0.6572  0.4877
 9326TIP3    H149393   2.765   5.595  14.082 -0.1702  2.1695  1.6581
 9326TIP3    H249394   2.711   5.454  14.089 -0.1072  1.8268 -2.4371
 9327TIP3   OH249395   6.416   1.122  17.045 -0.3847 -0.0132 -0.2061
 9327TIP3    H149396   6.402   1.155  16.956 -1.0689  1.3583  0.3816
 9327TIP3    H249397   6.366   1.182  17.101  1.5650  0.3189  1.2837
 9328TIP3   OH249398   6.381   1.000   2.032 -0.0818  0.3932 -0.2524
 9328TIP3    H149399   6.398   0.960   1.947  1.4889  0.9875 -0.2608
 9328TIP3    H249400   6.290   1.031   2.026 -2.2299 -4.7773  0.4965
 9329TIP3   OH249401   5.140   2.017  13.616  0.1096  0.0275  0.1194
 9329TIP3    H149402   5.094   2.100  13.615  0.5073  0.2770  1.3747
 9329TIP3    H249403   5.106   1.971  13.692  0.3228 -0.7149 -0.2230
 9330TIP3   OH249404   5.036   3.116   4.926 -0.2084  0.1992 -0.1701
 9330TIP3    H149405   4.987   3.093   5.005  1.3987  0.3426  0.9274
 9330TIP3    H249406   5.027   3.040   4.869 -2.0875  0.4266 -0.2208
 9331TIP3   OH249407   3.015   5.205  16.038 -0.0971  0.0945  0.2489
 9331TIP3    H149408   2.992   5.291  16.004  1.8619  0.6187  0.1182
 9331TIP3    H249409   3.076   5.224  16.110  0.6665 -1.1768 -0.0374
 9332TIP3   OH249410   5.951   4.191   5.091 -0.6891 -0.7637 -0.1103
 9332TIP3    H149411   6.008   4.221   5.162  0.3242 -0.4995 -1.0184
 9332TIP3    H249412   5.900   4.268   5.066 -0.3539 -0.6030 -0.3083
 9333TIP3   OH249413   5.662   6.014  16.260 -0.0837 -0.1895  0.1295
 9333TIP3    H149414   5.754   6.015  16.287 -0.4790 -0.6891  1.6150
 9333TIP3    H249415   5.654   5.935  16.207  0.0553 -0.9621  1.2097
 9334TIP3   OH249416   6.413   5.759   3.276 -0.1700 -0.1249  0.2503
 9334TIP3    H149417   6.340   5.703   3.304 -0.7624  0.2024 -0.5990
 9334TIP3    H249418   6.486   5.699   3.264 -0.2504 -0.4416  1.2393
 9335TIP3   OH249419   5.452   6.674   5.501 -0.2075  0.0292  0.3380
 9335TIP3    H149420   5.525   6.711   5.450  0.5310 -0.5927  0.9209
 9335TIP3    H249421   5.423   6.746   5.557  0.4677  0.0704  0.6452
 9336TIP3   OH249422   5.323   5.510   0.573  0.1416 -0.1715 -0.9744
 9336TIP3    H149423   5.307   5.484   0.664  1.4534  1.3015 -0.2703
 9336TIP3    H249424   5.236   5.533   0.539 -0.4444 -1.2886 -0.2902
 9337TIP3   OH249425   1.905   5.409   0.672  0.1448  0.5221  1.0184
 9337TIP3    H149426   1.948   5.424   0.756  1.9444  1.0859  0.0440
 9337TIP3    H249427   1.856   5.490   0.656  0.8442  0.9358  0.9384
 9338TIP3   OH249428   4.028   4.557   5.613 -0.1631  0.4264 -0.5370
 9338TIP3    H149429   3.979   4.604   5.546  1.0864  0.7754 -1.2429
 9338TIP3    H249430   4.093   4.620   5.644 -0.5378  0.1769  0.8149
 9339TIP3   OH249431   4.813   4.773   0.430 -0.1740 -0.0133 -0.4371
 9339TIP3    H149432   4.896   4.726   0.442 -1.0928 -1.0789  2.6604
 9339TIP3    H249433   4.822   4.851   0.484 -1.7646 -1.0689  1.4864
 9340TIP3   OH249434   2.112   3.341   0.822 -0.1096  0.2726 -0.0503
 9340TIP3    H149435   2.078   3.272   0.879 -1.1276  0.0809 -0.8648
 9340TIP3    H249436   2.179   3.384   0.875  0.1671 -0.9844  0.6723
 9341TIP3   OH249437   5.680   1.004   1.814 -0.2391 -0.5521  0.1123
 9341TIP3    H149438   5.651   1.026   1.726 -5.0516 -2.5928  0.8727
 9341TIP3    H249439   5.602   1.016   1.869  1.7836 -1.8840  3.6208
 9342TIP3   OH249440   4.513   2.828   2.943 -0.3675 -0.8248  0.1306
 9342TIP3    H149441   4.424   2.829   2.909 -0.8146  1.6486  1.1856
 9342TIP3    H249442   4.568   2.848   2.867 -0.9562  0.1822 -0.0464
 9343TIP3   OH249443   4.484   5.844   6.509  0.4917  0.5467 -0.5802
 9343TIP3    H149444   4.527   5.784   6.447  1.6451 -0.0500  0.7252
 9343TIP3    H249445   4.408   5.877   6.462 -0.0408 -1.7543 -1.4635
 9344TIP3   OH249446   4.405   2.767  16.947 -0.0448  0.1834 -0.1385
 9344TIP3    H149447   4.408   2.860  16.969 -0.3554  0.1120  0.2055
 9344TIP3    H249448   4.328   2.758  16.890  1.5802  0.6426 -2.5933
 9345TIP3   OH249449   1.238   1.491  14.154  0.3747  0.0684 -0.1246
 9345TIP3    H149450   1.209   1.539  14.232  1.6528 -0.4996  0.7313
 9345TIP3    H249451   1.257   1.559  14.090  0.5528  0.6216  0.5033
 9346TIP3   OH249452   3.708   2.682  16.483  0.5836  0.1941  0.4450
 9346TIP3    H149453   3.782   2.642  16.438  0.4012  1.1132 -0.7244
 9346TIP3    H249454   3.633   2.663  16.427  0.0508 -0.0866  1.2329
 9347TIP3   OH249455   5.307   4.404  14.449 -0.1098  0.1456 -0.1197
 9347TIP3    H149456   5.223   4.438  14.480 -0.3857  1.3421 -2.0406
 9347TIP3    H249457   5.319   4.322  14.497 -2.6736 -0.3786 -0.2699
 9348TIP3   OH249458   3.101   4.586  11.485 -0.4207  0.5021 -0.3347
 9348TIP3    H149459   3.043   4.593  11.409 -0.6272  1.4473 -0.1002
 9348TIP3    H249460   3.045   4.608  11.560 -0.4879 -1.4108  0.2342
 9349TIP3   OH249461   2.841   5.502   0.984  0.3334 -0.1678 -0.1419
 9349TIP3    H149462   2.792   5.421   0.965  2.3851 -1.5051 -0.0190
 9349TIP3    H249463   2.798   5.538   1.061 -1.6039 -0.2516 -1.1036
 9350TIP3   OH249464   4.561   5.240  11.720 -0.0344  0.2597 -0.4113
 9350TIP3    H149465   4.525   5.314  11.670 -0.4871  0.1804 -0.2080
 9350TIP3    H249466   4.508   5.237  11.800 -0.5445 -0.7617 -0.7605
 9351TIP3   OH249467   4.680   5.720  16.427  0.3550 -0.9694 -0.3426
 9351TIP3    H149468   4.627   5.719  16.507  1.0300  2.1977  0.2972
 9351TIP3    H249469   4.674   5.811  16.397  0.8398 -1.8750 -3.4367
 9352TIP3   OH249470   3.494   4.155   5.769 -0.4371  0.1411  0.0352
 9352TIP3    H149471   3.418   4.117   5.812 -0.9965  0.2829 -0.8107
 9352TIP3    H249472   3.462   4.185   5.685 -0.2668  3.3367  0.9707
 9353TIP3   OH249473   3.919   1.689   2.976  0.4146 -0.0796  0.6984
 9353TIP3    H149474   3.874   1.611   3.010 -1.5834  1.0771  0.8144
 9353TIP3    H249475   3.964   1.725   3.052 -1.0461  0.4626  1.3429
 9354TIP3   OH249476   2.067   5.718  14.944 -0.2105 -0.4243  0.3213
 9354TIP3    H149477   2.158   5.742  14.959 -0.4193  0.9281 -0.4584
 9354TIP3    H249478   2.018   5.770  15.007 -0.5570  0.0414 -0.3245
 9355TIP3   OH249479   5.293   4.637   2.967 -0.4179  0.4143 -0.0241
 9355TIP3    H149480   5.249   4.672   3.045 -1.0697  2.7785 -1.3652
 9355TIP3    H249481   5.385   4.633   2.992 -0.6731  0.7154  1.0263
 9356TIP3   OH249482   5.817   2.513  13.467  0.4171  0.5605 -0.1463
 9356TIP3    H149483   5.859   2.557  13.541  0.8233  1.0867 -0.6781
 9356TIP3    H249484   5.724   2.532  13.477  0.0873 -1.6071  1.7165
 9357TIP3   OH249485   5.598   3.945   5.100 -0.1950 -0.0052  0.1912
 9357TIP3    H149486   5.618   3.993   5.181 -0.3813  0.1313  0.1589
 9357TIP3    H249487   5.571   3.858   5.129  0.0764 -0.0664  0.2548
 9358TIP3   OH249488   2.193   6.108  14.810  0.5365 -0.2855 -0.0942
 9358TIP3    H149489   2.201   6.072  14.898  2.2343 -1.5445 -0.6972
 9358TIP3    H249490   2.280   6.095  14.771  0.6423  2.6337 -1.0786
 9359TIP3   OH249491   0.038   5.344   0.863  0.4707  0.1926  0.3476
 9359TIP3    H149492   0.014   5.262   0.905  1.0512  0.1502  0.6083
 9359TIP3    H249493  -0.042   5.373   0.819 -0.0898  0.1379  1.2985
 9360TIP3   OH249494   2.235   6.211  16.713 -0.1412 -0.0531  0.0969
 9360TIP3    H149495   2.291   6.287  16.728  0.5584 -0.7512  1.0883
 9360TIP3    H249496   2.159   6.226  16.770  0.1402 -0.2405  0.5254
 9361TIP3   OH249497   1.604   2.481   0.834  0.1517 -0.1847  0.1099
 9361TIP3    H149498   1.693   2.475   0.799  0.3851  0.8841  0.4718
 9361TIP3    H249499   1.616   2.486   0.929 -0.2175  0.8714  0.1211
 9362TIP3   OH249500   0.198   2.120   5.577 -0.0249  0.0608  0.1723
 9362TIP3    H149501   0.118   2.068   5.572 -0.8288  1.2132  0.6474
 9362TIP3    H249502   0.168   2.210   5.582  1.2938  0.4925  0.8387
 9363TIP3   OH249503   0.881   2.360   5.909 -0.2788 -0.1148  0.4624
 9363TIP3    H149504   0.819   2.287   5.914 -2.0368  0.7793 -3.8141
 9363TIP3    H249505   0.966   2.320   5.928 -1.4162 -2.7756  0.4898
 9364TIP3   OH249506   5.696   3.738  16.278 -0.4273 -0.1848  0.0059
 9364TIP3    H149507   5.759   3.719  16.208  0.8365  1.1530  0.7217
 9364TIP3    H249508   5.652   3.654  16.293 -0.5289 -0.5966 -2.1484
 9365TIP3   OH249509   3.688   6.474  16.324  0.1902  0.2691  0.0989
 9365TIP3    H149510   3.706   6.388  16.288  0.1365  0.6060 -0.7512
 9365TIP3    H249511   3.774   6.513  16.338  0.2638 -0.3420  1.5884
 9366TIP3   OH249512   0.503   0.154  13.918  0.5202 -0.4633  0.6483
 9366TIP3    H149513   0.471   0.064  13.912  1.1534 -0.6713  0.2772
 9366TIP3    H249514   0.432   0.202  13.960 -0.7155 -0.6873 -1.0709
 9367TIP3   OH249515   5.090   6.767   4.659  0.7860  0.6619  0.3641
 9367TIP3    H149516   5.146   6.843   4.671  0.9720  0.6523 -0.3883
 9367TIP3    H249517   5.151   6.693   4.657  0.7583  0.6547 -0.4928
 9368TIP3   OH249518   4.480   1.570  13.432  0.4958 -0.1238 -0.0357
 9368TIP3    H149519   4.470   1.648  13.378 -0.1415 -2.4832 -3.6641
 9368TIP3    H249520   4.391   1.550  13.461  0.4982 -0.1156 -0.0221
 9369TIP3   OH249521   5.297   3.665   4.770 -0.3893 -0.4257  0.4648
 9369TIP3    H149522   5.235   3.640   4.701 -1.9940  1.3333  1.2016
 9369TIP3    H249523   5.272   3.611   4.845  0.0293 -0.8607  0.2975
 9370TIP3   OH249524   0.343   1.025  12.092 -0.8899 -0.0409  0.2816
 9370TIP3    H149525   0.351   1.013  12.186  0.5364  2.0215  0.4794
 9370TIP3    H249526   0.411   1.087  12.069 -1.2926 -0.3687 -2.1160
 9371TIP3   OH249527   6.570   3.095  15.879  0.1399 -0.1694  0.6619
 9371TIP3    H149528   6.615   3.011  15.876  0.9187  0.0165  3.9209
 9371TIP3    H249529   6.509   3.092  15.805  3.1074 -1.7554 -1.9541
 9372TIP3   OH249530   6.635   5.999   5.230  0.1380  0.4394 -0.1845
 9372TIP3    H149531   6.671   5.945   5.160 -1.0302 -1.3646  0.5313
 9372TIP3    H249532   6.549   5.961   5.249 -0.0266  1.5192  1.4953
 9373TIP3   OH249533   0.246   0.513  14.244 -0.1032  0.3393  0.7735
 9373TIP3    H149534   0.338   0.487  14.257 -0.3905 -1.0947  0.1268
 9373TIP3    H249535   0.251   0.597  14.199  0.9093  0.2296  0.6540
 9374TIP3   OH249536   2.059   5.436   2.789 -0.0592 -0.3866 -0.2961
 9374TIP3    H149537   2.015   5.357   2.761 -0.2114 -0.4003 -0.0188
 9374TIP3    H249538   2.128   5.450   2.723 -1.2870  0.3599 -1.4881
 9375TIP3   OH249539   1.510   4.876   4.205  0.1804  0.0516 -0.3006
 9375TIP3    H149540   1.586   4.935   4.213  0.8548 -0.6773 -1.1119
 9375TIP3    H249541   1.448   4.908   4.270  1.6444 -0.0375  1.2109
 9376TIP3   OH249542   3.484   3.391   1.725  0.2383 -0.1160  0.2781
 9376TIP3    H149543   3.530   3.443   1.659  2.2821 -0.8363  1.0426
 9376TIP3    H249544   3.392   3.410   1.710  0.8003  2.3632 -0.5772
 9377TIP3   OH249545   1.290   1.017  12.282  0.0997  0.2553  0.0435
 9377TIP3    H149546   1.318   1.035  12.192 -0.2123 -0.5450 -0.2229
 9377TIP3    H249547   1.296   0.922  12.291  0.0730  0.3239  0.8523
 9378TIP3   OH249548   3.020   3.619   1.382  0.3516  0.0707 -0.0919
 9378TIP3    H149549   2.990   3.589   1.296 -0.0137 -1.8004  0.6581
 9378TIP3    H249550   2.942   3.653   1.425  0.3122 -0.0779 -0.0479
 9379TIP3   OH249551   5.246   1.993   3.980 -0.1224  0.1662  0.1370
 9379TIP3    H149552   5.307   1.955   4.043 -0.4360 -0.2742  0.1819
 9379TIP3    H249553   5.275   2.083   3.970 -0.2739  0.3463  1.1831
 9380TIP3   OH249554   1.504   2.560  10.616 -0.3492  0.0637 -0.1184
 9380TIP3    H149555   1.443   2.507  10.565 -0.4547  0.2387 -0.1756
 9380TIP3    H249556   1.483   2.650  10.593 -0.0287  0.1246 -0.1817
 9381TIP3   OH249557   6.662   1.714   2.776  0.1948 -0.1045  0.5660
 9381TIP3    H149558   6.724   1.716   2.703 -0.3537  1.5420  0.0828
 9381TIP3    H249559   6.679   1.631   2.821  1.5303 -0.4851 -0.5782
 9382TIP3   OH249560   3.383   4.350   4.837  0.6010  0.0557  0.4863
 9382TIP3    H149561   3.476   4.344   4.858  0.2425 -2.2355  1.8205
 9382TIP3    H249562   3.372   4.437   4.799  3.4057  0.1032 -0.4641
 9383TIP3   OH249563   1.335   4.267   5.986 -0.0461 -0.2413  0.7035
 9383TIP3    H149564   1.341   4.257   6.081  1.5068 -0.9883  0.5602
 9383TIP3    H249565   1.404   4.329   5.964  1.7183 -2.3821 -0.2059
 9384TIP3   OH249566   4.810   4.861  11.108 -0.2505 -0.1772 -0.1610
 9384TIP3    H149567   4.879   4.822  11.054 -1.0347 -0.9914 -0.6054
 9384TIP3    H249568   4.772   4.787  11.156 -0.6456  0.2960  0.2688
 9385TIP3   OH249569   3.441   1.061   1.542 -0.1747  0.3942  0.1827
 9385TIP3    H149570   3.415   1.143   1.499  1.9443 -0.0022 -2.0752
 9385TIP3    H249571   3.473   1.088   1.628  0.1542  1.9249 -0.3911
 9386TIP3   OH249572   0.309   4.484   5.163 -0.6290 -0.1290 -0.3536
 9386TIP3    H149573   0.280   4.444   5.245 -0.3918  0.5489  0.0821
 9386TIP3    H249574   0.237   4.542   5.138 -0.9137 -0.7192 -0.9024
 9387TIP3   OH249575   6.668   1.188  15.967 -0.4184  0.3483  0.4929
 9387TIP3    H149576   6.714   1.108  15.994 -0.4935  0.8000  2.0966
 9387TIP3    H249577   6.687   1.196  15.874  0.0514 -1.2338  0.4188
 9388TIP3   OH249578   6.304   4.665   0.246  0.0983  0.1104 -0.1684
 9388TIP3    H149579   6.397   4.686   0.251  0.2681 -0.6516  0.1190
 9388TIP3    H249580   6.303   4.569   0.238 -0.6360  0.1763 -0.9193
 9389TIP3   OH249581   2.938   3.234   5.447 -0.3844  0.5378  0.6406
 9389TIP3    H149582   2.974   3.152   5.414 -0.4430 -0.2294  2.3931
 9389TIP3    H249583   2.846   3.234   5.420 -0.0427  0.6969 -0.5513
 9390TIP3   OH249584   3.747   0.421  16.900  0.6909  0.7631 -0.0473
 9390TIP3    H149585   3.717   0.398  16.988  0.6543  1.6151  0.1714
 9390TIP3    H249586   3.841   0.437  16.911  0.9856 -0.5496 -0.4615
 9391TIP3   OH249587   2.274   4.699   3.981 -0.0957 -0.2534  0.0473
 9391TIP3    H149588   2.197   4.690   3.924 -1.3067 -2.0150  1.8194
 9391TIP3    H249589   2.276   4.618   4.031  2.5882  0.0239  0.5545
 9392TIP3   OH249590   3.849   6.270  13.749 -0.0767  0.1922 -0.1756
 9392TIP3    H149591   3.785   6.220  13.699  0.2457 -0.1475 -0.2442
 9392TIP3    H249592   3.907   6.205  13.786 -1.1219  0.3219  1.8086
 9393TIP3   OH249593   1.974   4.342  12.799 -0.0837  0.1090 -0.0989
 9393TIP3    H149594   1.897   4.338  12.856  0.0449  0.2596  0.0858
 9393TIP3    H249595   2.024   4.264  12.821  1.1551  1.3301  1.6996
 9394TIP3   OH249596   0.636   2.302  14.286 -0.2738  0.7036  0.0673
 9394TIP3    H149597   0.705   2.317  14.221  0.2324  1.1422  0.6962
 9394TIP3    H249598   0.563   2.267  14.235  0.1517  0.9348 -0.7249
 9395TIP3   OH249599   3.974   5.039  13.008 -0.1587 -0.6216  0.2770
 9395TIP3    H149600   4.018   4.959  12.978  0.0915 -0.9850  1.5853
 9395TIP3    H249601   3.944   5.019  13.096 -0.5668  0.5515  0.4178
 9396TIP3   OH249602   4.316   5.445  13.344  0.1112  0.3553  0.4938
 9396TIP3    H149603   4.231   5.452  13.299  0.6398 -0.1131 -0.6198
 9396TIP3    H249604   4.313   5.359  13.386 -0.4197  0.8305  1.4711
 9397TIP3   OH249605   0.973   5.623   5.045  0.0473  0.6035 -0.0709
 9397TIP3    H149606   1.025   5.573   5.108 -0.8117 -1.5505 -0.9472
 9397TIP3    H249607   1.037   5.669   4.991  0.9678 -0.4244  0.1118
 9398TIP3   OH249608   2.699   6.178  14.558  0.1933  0.2957 -0.7189
 9398TIP3    H149609   2.745   6.234  14.494  0.8247 -1.7842 -2.2094
 9398TIP3    H249610   2.609   6.211  14.558  0.1516  0.3586 -2.7775
 9399TIP3   OH249611   0.575   3.686  13.782 -0.3377  1.2066 -0.2251
 9399TIP3    H149612   0.531   3.749  13.725 -2.3439  0.4227  0.3962
 9399TIP3    H249613   0.582   3.606  13.729  0.4462  1.3513 -0.3505
 9400TIP3   OH249614   2.962   6.350   0.307  0.5647  0.4714  0.0719
 9400TIP3    H149615   2.936   6.286   0.373 -1.4044  1.4790  0.3620
 9400TIP3    H249616   2.963   6.434   0.353 -2.0888  1.3934 -1.3319
 9401TIP3   OH249617   4.927   4.517  12.910  0.1282  0.2541 -0.0774
 9401TIP3    H149618   4.910   4.578  12.839  2.5954  0.5603 -0.5048
 9401TIP3    H249619   4.971   4.570  12.977  0.0210 -0.5305  0.6314
 9402TIP3   OH249620   4.657   4.048   4.808 -0.3955  0.2274 -0.6350
 9402TIP3    H149621   4.702   4.008   4.733 -0.1072  0.2657 -0.4824
 9402TIP3    H249622   4.728   4.078   4.865 -0.6192  0.1056 -0.2955
 9403TIP3   OH249623   0.493   5.737   2.152  0.2474  0.1241  0.1745
 9403TIP3    H149624   0.469   5.666   2.212 -0.5869 -0.2936 -0.6306
 9403TIP3    H249625   0.460   5.816   2.195 -0.7365 -0.2176  0.0757
 9404TIP3   OH249626   2.491   3.502  12.771  0.0755  0.1945 -0.2906
 9404TIP3    H149627   2.446   3.422  12.744 -1.1146  0.5087  0.6769
 9404TIP3    H249628   2.582   3.489  12.744 -0.2465 -1.1871 -0.7660
 9405TIP3   OH249629   3.747   6.750  11.016  0.1064 -0.1752  0.0930
 9405TIP3    H149630   3.764   6.812  10.946 -0.6868  0.1477  0.1803
 9405TIP3    H249631   3.676   6.694  10.984  1.1282 -1.3771 -0.1824
 9406TIP3   OH249632   0.771   2.627   3.094 -0.8830 -0.1612 -0.3077
 9406TIP3    H149633   0.797   2.536   3.079 -0.4848 -0.1616  0.3351
 9406TIP3    H249634   0.850   2.669   3.129 -0.3613  0.9854 -2.5985
 9407TIP3   OH249635   1.549   1.689   5.654 -0.2867 -0.2400 -0.3915
 9407TIP3    H149636   1.583   1.740   5.580  1.2004  0.7620  0.9056
 9407TIP3    H249637   1.467   1.732   5.677 -0.8299 -0.6425 -1.5142
 9408TIP3   OH249638   0.116   3.663   0.241 -0.1192  0.5078  0.0762
 9408TIP3    H149639   0.111   3.682   0.335 -2.4207  2.2008 -0.2814
 9408TIP3    H249640   0.093   3.571   0.233  0.1281  0.3406  1.1595
 9409TIP3   OH249641   3.800   3.114   3.129  0.0657  0.4116  0.3094
 9409TIP3    H149642   3.797   3.198   3.082 -0.4269 -0.1379 -0.6899
 9409TIP3    H249643   3.889   3.109   3.163  0.1140  1.3217  0.3495
 9410TIP3   OH249644   0.175   0.783   5.150 -0.1355 -0.3811  0.2028
 9410TIP3    H149645   0.106   0.754   5.210 -0.8603 -1.1103 -0.9398
 9410TIP3    H249646   0.206   0.702   5.109  1.0355  0.0013  0.2951
 9411TIP3   OH249647   2.673   1.941   2.077 -0.4364  0.5784  0.1646
 9411TIP3    H149648   2.620   1.895   2.142  0.0971 -0.2211  0.0520
 9411TIP3    H249649   2.738   1.989   2.128 -2.6561  3.4924  0.4518
 9412TIP3   OH249650   5.557   2.495   3.816  0.2124  0.0314 -0.0043
 9412TIP3    H149651   5.613   2.439   3.762  1.0127 -0.1528  0.9941
 9412TIP3    H249652   5.546   2.575   3.765  2.2807  0.5060  0.2071
 9413TIP3   OH249653   6.605   1.687   5.861 -0.6735  0.7033  0.3165
 9413TIP3    H149654   6.625   1.675   5.954 -1.7973  1.5610  0.6893
 9413TIP3    H249655   6.542   1.617   5.841 -2.6509  2.2169  0.9716
 9414TIP3   OH249656   2.947   6.055  12.860  0.0269  0.0045 -0.1176
 9414TIP3    H149657   3.007   6.072  12.787 -1.5920  0.9719 -1.2899
 9414TIP3    H249658   2.977   5.972  12.897  0.8490 -0.5533 -1.9258
 9415TIP3   OH249659   2.620   1.091  15.792  0.2343 -0.0854 -0.3968
 9415TIP3    H149660   2.578   1.042  15.862 -0.9223 -1.2612 -1.8298
 9415TIP3    H249661   2.712   1.065  15.796  0.1473 -0.2604  0.5695
 9416TIP3   OH249662   2.887   3.476  12.202 -0.1007  0.0160 -0.0084
 9416TIP3    H149663   2.981   3.495  12.197  0.0161 -0.7223 -0.9695
 9416TIP3    H249664   2.874   3.442  12.290  1.1500 -2.8764 -0.8338
 9417TIP3   OH249665   4.697   6.165   3.772  0.3445 -0.2997 -0.0830
 9417TIP3    H149666   4.658   6.085   3.738 -1.0878  0.0174  0.7589
 9417TIP3    H249667   4.703   6.223   3.696  1.7980 -1.3068 -0.7978
 9418TIP3   OH249668   1.046   6.370  15.602 -0.4438 -0.1618 -0.0096
 9418TIP3    H149669   1.005   6.290  15.571 -2.7859  0.9115  0.0381
 9418TIP3    H249670   1.106   6.342  15.671 -0.6054 -1.9143 -0.5392
 9419TIP3   OH249671   1.560   2.069  14.690 -0.2365 -0.9259  0.8093
 9419TIP3    H149672   1.552   1.987  14.739  0.5458 -1.3310  0.2771
 9419TIP3    H249673   1.482   2.119  14.714 -0.2372 -1.4277  1.8776
 9420TIP3   OH249674   3.382   4.771   0.066 -0.2241 -0.3043  0.3248
 9420TIP3    H149675   3.412   4.833  -0.000 -0.6689  1.0896  1.3824
 9420TIP3    H249676   3.324   4.822   0.122  0.4571 -1.3114  2.0365
 9421TIP3   OH249677   5.187   2.662  12.687  0.2238 -0.2092 -0.1828
 9421TIP3    H149678   5.275   2.673  12.652  0.0981 -3.0951 -1.7034
 9421TIP3    H249679   5.139   2.739  12.658  2.2291  1.5307  0.8704
 9422TIP3   OH249680   6.518   0.134   4.147  0.6496  0.0550 -0.6493
 9422TIP3    H149681   6.459   0.131   4.222  1.3981  2.0850  0.1044
 9422TIP3    H249682   6.603   0.156   4.185  1.2513  0.1238 -1.9937
 9423TIP3   OH249683   2.904   1.684  13.777 -0.1011  0.0394  0.3680
 9423TIP3    H149684   2.930   1.738  13.852 -0.7992  1.9146 -0.6618
 9423TIP3    H249685   2.818   1.717  13.752  0.4946  0.1327 -1.8135
 9424TIP3   OH249686   2.970   1.077  14.017  0.1597  0.1082 -0.0158
 9424TIP3    H149687   2.905   1.147  14.021  0.5739  0.4502  0.8140
 9424TIP3    H249688   2.950   1.021  14.092  0.8023  0.1920  0.2147
 9425TIP3   OH249689   1.681   4.874  16.953  0.0295 -0.1301 -0.3758
 9425TIP3    H149690   1.751   4.926  16.994  0.7109 -0.9082 -0.5370
 9425TIP3    H249691   1.602   4.902  16.999  0.4559  0.6610 -0.0843
 9426TIP3   OH249692   2.557   5.633  15.896 -0.7154  0.6349  0.5583
 9426TIP3    H149693   2.528   5.568  15.832 -0.7710  2.0387 -0.8855
 9426TIP3    H249694   2.507   5.611  15.975  0.1781 -1.8223  0.5471
 9427TIP3   OH249695   0.753   1.950   1.036  0.1262  0.3138 -0.3020
 9427TIP3    H149696   0.847   1.930   1.034  0.2386  0.6537  0.9587
 9427TIP3    H249697   0.739   2.007   0.960  1.0448  0.6637 -0.2215
 9428TIP3   OH249698   5.293   0.279   1.470 -0.1501  0.0466  0.5394
 9428TIP3    H149699   5.275   0.329   1.391  1.0407  0.3335  0.4339
 9428TIP3    H249700   5.237   0.319   1.537 -0.6350  0.2610  0.0125
 9429TIP3   OH249701   3.640   2.879   1.315  0.0977 -0.3258  0.5956
 9429TIP3    H149702   3.603   2.804   1.267 -2.0584  0.5693  0.7312
 9429TIP3    H249703   3.734   2.864   1.314 -0.2315 -2.8757  0.3358
 9430TIP3   OH249704   3.402   4.274   3.017 -0.0722 -0.0120  0.2271
 9430TIP3    H149705   3.465   4.236   3.079  0.4155  0.5394  0.0832
 9430TIP3    H249706   3.357   4.342   3.067  0.9883  1.0901 -0.2602
 9431TIP3   OH249707   1.677   3.126  12.998  0.4343 -0.5175  0.1005
 9431TIP3    H149708   1.741   3.192  13.025  0.5281 -1.2104  1.6924
 9431TIP3    H249709   1.690   3.054  13.060 -2.7156 -0.2149  1.2604
 9432TIP3   OH249710   6.507   2.700   4.444  0.3751  0.1815 -0.5664
 9432TIP3    H149711   6.566   2.625   4.453 -0.0392 -0.1531 -0.5664
 9432TIP3    H249712   6.426   2.671   4.486 -0.5618 -0.2363 -2.5362
 9433TIP3   OH249713   5.024   0.307   2.029  0.0347  0.1681 -0.8042
 9433TIP3    H149714   5.006   0.399   2.051 -2.2902 -0.7823  1.7485
 9433TIP3    H249715   5.120   0.300   2.035  0.2100  2.2573 -0.3067
 9434TIP3   OH249716   0.409   6.144   5.608 -0.2242 -0.2234 -0.2794
 9434TIP3    H149717   0.490   6.184   5.640 -0.1303 -0.2930 -0.4271
 9434TIP3    H249718   0.421   6.051   5.623 -1.3670 -0.0361  2.1581
 9435TIP3   OH249719   1.168   2.782   0.641 -0.4435 -0.2458  0.6401
 9435TIP3    H149720   1.195   2.694   0.617  0.1001 -0.2750  1.3309
 9435TIP3    H249721   1.073   2.776   0.654 -0.4543 -0.6474  0.3676
 9436TIP3   OH249722   5.356   5.551   2.916 -0.2928  0.0528 -0.2137
 9436TIP3    H149723   5.407   5.623   2.880 -1.9426  1.0752 -0.6183
 9436TIP3    H249724   5.268   5.587   2.928 -1.0559 -1.7589  0.0048
 9437TIP3   OH249725   1.361   2.443   4.169  0.3883  0.0748  0.5656
 9437TIP3    H149726   1.411   2.445   4.087  0.7747  0.7305  0.8079
 9437TIP3    H249727   1.275   2.477   4.145  0.2315 -0.5350  0.2581
 9438TIP3   OH249728   0.882   0.842   5.022 -0.0832  0.4227 -0.2889
 9438TIP3    H149729   0.878   0.913   4.958 -0.2352 -0.1670 -0.9503
 9438TIP3    H249730   0.956   0.788   4.993  0.4625  0.6804  0.6059
 9439TIP3   OH249731   5.507   6.758   6.163  0.9039  0.0671  0.1117
 9439TIP3    H149732   5.483   6.683   6.108 -0.1164 -0.8893  1.7550
 9439TIP3    H249733   5.453   6.830   6.130  0.5298 -0.4051 -0.3226
 9440TIP3   OH249734   0.678   2.921   4.473  0.1061 -0.8479 -0.0915
 9440TIP3    H149735   0.748   2.983   4.492  0.9357 -1.1520 -1.8927
 9440TIP3    H249736   0.598   2.975   4.470  0.9496  0.4199 -2.6866
 9441TIP3   OH249737   5.256   2.587  14.814  0.1035  0.1604 -0.6423
 9441TIP3    H149738   5.301   2.502  14.814  0.0902  0.1529 -0.8275
 9441TIP3    H249739   5.164   2.565  14.802 -0.5572 -0.1252  3.4290
 9442TIP3   OH249740   3.522   5.882   5.323 -0.4546 -0.6273 -0.2910
 9442TIP3    H149741   3.532   5.935   5.244 -1.9770  1.7087  0.9930
 9442TIP3    H249742   3.441   5.833   5.308  0.3874 -1.8745 -1.0162
 9443TIP3   OH249743   0.776   2.019  11.054 -0.0845 -0.3417 -0.2846
 9443TIP3    H149744   0.782   2.002  10.960  0.5965  0.2033 -0.3516
 9443TIP3    H249745   0.859   1.986  11.089 -0.8487 -1.7053  0.3248
 9444TIP3   OH249746   5.799   1.055   3.247 -0.2884 -0.1431  0.2072
 9444TIP3    H149747   5.843   0.970   3.242  0.2823  0.0800  1.1389
 9444TIP3    H249748   5.755   1.054   3.332  1.6711  1.3709  1.3261
 9445TIP3   OH249749   4.054   1.511  14.512 -0.6325 -0.6319  0.2308
 9445TIP3    H149750   4.093   1.424  14.524 -0.2506 -0.4611  0.2524
 9445TIP3    H249751   4.049   1.547  14.600  1.1642  0.1934  0.0358
 9446TIP3   OH249752   4.779   3.929   1.563  0.1014  0.0892 -0.1895
 9446TIP3    H149753   4.840   3.997   1.589  0.5403 -0.3451 -0.0654
 9446TIP3    H249754   4.746   3.893   1.646  0.2347 -0.1673 -0.2447
 9447TIP3   OH249755   3.680   3.349  13.827 -0.4396  0.6876  0.2520
 9447TIP3    H149756   3.635   3.387  13.902 -2.7914 -1.8359  0.2542
 9447TIP3    H249757   3.663   3.412  13.756  0.8277  2.5130  1.4696
 9448TIP3   OH249758   6.654   5.388   1.528 -0.1100 -0.1093 -0.1722
 9448TIP3    H149759   6.630   5.473   1.564  0.3753  0.0433 -0.1951
 9448TIP3    H249760   6.682   5.337   1.604 -1.1409 -0.5158 -0.0537
 9449TIP3   OH249761   3.270   3.030   5.163  0.0046  0.4475  0.1154
 9449TIP3    H149762   3.332   3.013   5.234 -1.8069  0.2988  1.7339
 9449TIP3    H249763   3.270   3.125   5.153  1.7263  0.3702 -1.1193
 9450TIP3   OH249764   2.136   4.018  14.916  0.1675 -0.5224 -0.1834
 9450TIP3    H149765   2.130   4.110  14.893 -0.9099  0.2717  2.7531
 9450TIP3    H249766   2.059   3.977  14.876 -1.3517  0.6682  1.3509
 9451TIP3   OH249767   5.275   2.726   4.798  0.5770  0.4824  0.1690
 9451TIP3    H149768   5.300   2.771   4.879  0.9039  2.0527 -0.7419
 9451TIP3    H249769   5.282   2.633   4.818 -1.7512  0.7226  2.6818
 9452TIP3   OH249770   4.908   1.332   3.547  0.3225 -0.6125  0.0701
 9452TIP3    H149771   4.813   1.326   3.555  0.1706  1.6583  0.8681
 9452TIP3    H249772   4.922   1.355   3.455  0.2768 -2.6291 -0.4892
 9453TIP3   OH249773   4.571   3.754   5.723 -0.1166 -0.6290  0.0294
 9453TIP3    H149774   4.633   3.734   5.652 -2.2024 -0.0971 -2.0566
 9453TIP3    H249775   4.576   3.849   5.732  0.8892 -0.7815  1.3906
 9454TIP3   OH249776   0.334   5.382   5.611  0.6592  0.2339  0.3190
 9454TIP3    H149777   0.278   5.305   5.610  0.1825  0.5456  1.5972
 9454TIP3    H249778   0.423   5.347   5.618  0.4050 -0.2048  1.5711
 9455TIP3   OH249779   3.846   5.457   3.824  0.5446 -0.0535  0.2810
 9455TIP3    H149780   3.931   5.440   3.863  1.2445  0.6030 -0.9049
 9455TIP3    H249781   3.790   5.386   3.856  1.3735 -0.1710  1.5227
 9456TIP3   OH249782   5.639   5.106  15.680 -0.1990 -0.1573  0.0905
 9456TIP3    H149783   5.619   5.199  15.686  2.2526  0.3383  2.8062
 9456TIP3    H249784   5.584   5.065  15.746  1.0448 -0.1046  1.1943
 9457TIP3   OH249785   3.985   2.177   6.492  0.1812  0.4221 -0.7606
 9457TIP3    H149786   3.906   2.123   6.490  0.3114  0.1996 -0.0200
 9457TIP3    H249787   3.968   2.242   6.560 -0.0392  1.4373 -1.7354
 9458TIP3   OH249788   1.254   0.581  16.437  0.4467 -0.2078 -0.1989
 9458TIP3    H149789   1.239   0.589  16.343 -1.4351  2.6967  0.2424
 9458TIP3    H249790   1.264   0.487  16.451  1.3241 -0.7057 -3.3295
 9459TIP3   OH249791   1.815   2.576   3.874 -0.4098 -0.1331  0.2230
 9459TIP3    H149792   1.852   2.489   3.890 -0.2973 -0.1165  0.0589
 9459TIP3    H249793   1.868   2.635   3.928  0.1495 -0.0411 -0.4189
 9460TIP3   OH249794   3.564   3.456  14.049 -0.0293  0.4993 -0.6181
 9460TIP3    H149795   3.537   3.548  14.058  0.4363  0.6605 -0.8101
 9460TIP3    H249796   3.614   3.439  14.129  0.8639  0.7685 -1.1088
 9461TIP3   OH249797   6.648   3.938  14.406 -0.2697 -0.0269 -1.2843
 9461TIP3    H149798   6.561   3.966  14.436 -0.5261 -0.4253 -1.6563
 9461TIP3    H249799   6.671   3.866  14.465  0.3896  0.9185 -0.3281
 9462TIP3   OH249800   2.966   2.332   0.432  0.0294 -0.0640  0.6078
 9462TIP3    H149801   2.961   2.296   0.521  0.2013 -0.2237  0.5526
 9462TIP3    H249802   2.926   2.264   0.377  0.2884 -0.1408  0.5126
 9463TIP3   OH249803   2.352   3.112  13.363 -0.3632  0.2273 -0.1092
 9463TIP3    H149804   2.351   3.019  13.342  0.2906 -0.0013  0.8028
 9463TIP3    H249805   2.265   3.130  13.397  0.4716 -0.8716  2.9370
 9464TIP3   OH249806   5.003   4.671  16.610  0.1903  0.0979  0.0409
 9464TIP3    H149807   4.939   4.619  16.660  0.4257 -0.9390 -0.7117
 9464TIP3    H249808   4.952   4.744  16.576 -0.9020 -1.3092 -1.4854
 9465TIP3   OH249809   1.733   6.025   2.060  0.1743  0.0652  0.0345
 9465TIP3    H149810   1.744   6.002   1.968  1.2572 -0.6583  0.3356
 9465TIP3    H249811   1.651   6.075   2.062 -0.1361 -0.3546 -1.2346
 9466TIP3   OH249812   6.584   2.741  17.021  0.1614  0.2199 -0.3380
 9466TIP3    H149813   6.531   2.741  16.941  1.2498  2.1594 -1.1523
 9466TIP3    H249814   6.532   2.790  17.085 -0.0783 -0.0224 -0.3507
 9467TIP3   OH249815   0.911   0.414   0.450 -0.0046 -0.0184 -0.2459
 9467TIP3    H149816   0.940   0.363   0.525  0.1964 -0.6489 -0.7527
 9467TIP3    H249817   0.864   0.352   0.395 -0.3979  0.5043 -0.5152
 9468TIP3   OH249818   5.693   4.262   1.527 -0.4158 -0.1608 -0.3905
 9468TIP3    H149819   5.693   4.352   1.495 -1.6795 -0.3843 -1.0844
 9468TIP3    H249820   5.614   4.223   1.489 -0.5249 -1.2189  0.8610
 9469TIP3   OH249821   6.363   5.304   1.961 -0.6504  0.3348 -0.5237
 9469TIP3    H149822   6.316   5.251   2.024  0.6561 -0.0660  0.1475
 9469TIP3    H249823   6.427   5.352   2.012  1.7965 -1.4772 -1.6790
 9470TIP3   OH249824   5.316   0.806  16.645 -0.1018 -0.5558 -0.0974
 9470TIP3    H149825   5.374   0.779  16.716 -0.9446  1.4716  1.4597
 9470TIP3    H249826   5.322   0.902  16.644 -2.4415 -0.3485 -0.7029
 9471TIP3   OH249827   2.502   3.195   3.335 -0.0691  0.1077  0.0697
 9471TIP3    H149828   2.528   3.196   3.242  0.7144  1.1812  0.2775
 9471TIP3    H249829   2.440   3.267   3.344 -0.3155 -0.1361  0.3385
 9472TIP3   OH249830   0.689   5.315  14.768 -0.1938 -0.3029  0.2927
 9472TIP3    H149831   0.723   5.227  14.782  1.0643  0.1661  0.2983
 9472TIP3    H249832   0.653   5.314  14.679  2.2046 -0.1216 -0.7566
 9473TIP3   OH249833   5.841   3.227   0.442  0.2336 -0.0577 -0.0288
 9473TIP3    H149834   5.842   3.156   0.377 -1.3352 -1.2357  1.1615
 9473TIP3    H249835   5.877   3.302   0.396 -0.0312 -1.0786 -1.9998
 9474TIP3   OH249836   1.763   1.670  16.753 -0.3479 -0.6042 -0.1494
 9474TIP3    H149837   1.741   1.759  16.725  0.1183 -0.9959 -1.8747
 9474TIP3    H249838   1.678   1.625  16.759 -0.6985  0.2108  1.8567
 9475TIP3   OH249839   1.137   4.013  14.255 -0.5804 -0.4303 -0.2761
 9475TIP3    H149840   1.183   4.024  14.338  0.4831  1.6077 -1.0775
 9475TIP3    H249841   1.197   3.962  14.200 -0.6805 -0.5595 -0.2675
 9476TIP3   OH249842   5.809   1.872   6.281 -0.0824 -0.2843  1.0300
 9476TIP3    H149843   5.787   1.868   6.188 -0.9054  0.4889  1.1728
 9476TIP3    H249844   5.777   1.958   6.310 -0.1548 -0.6486  2.0977
 9477TIP3   OH249845   6.663   5.237  12.177 -0.1899 -0.0046 -0.2533
 9477TIP3    H149846   6.578   5.280  12.188 -0.2735 -0.2371  0.0335
 9477TIP3    H249847   6.653   5.154  12.223  0.7064  0.6410  1.2034
 9478TIP3   OH249848   2.394   6.062  12.165  0.3641  0.5949 -0.0857
 9478TIP3    H149849   2.423   6.153  12.169 -0.2897  1.0322 -3.0932
 9478TIP3    H249850   2.428   6.022  12.246  3.7516  2.5979 -0.3413
 9479TIP3   OH249851   0.106   6.129  13.048  0.1688 -0.1086 -0.4815
 9479TIP3    H149852   0.115   6.036  13.028 -2.0183 -0.4750  0.0347
 9479TIP3    H249853   0.154   6.173  12.978  0.7145 -1.5973 -1.0839
 9480TIP3   OH249854   5.613   1.323   1.079  0.2596  0.0515 -0.1290
 9480TIP3    H149855   5.617   1.374   0.998  1.4443  1.0765  0.5386
 9480TIP3    H249856   5.542   1.260   1.064 -1.3804  1.9639 -0.9577
 9481TIP3   OH249857   0.003   5.438  13.586  0.5652 -0.0992  0.4281
 9481TIP3    H149858  -0.088   5.407  13.585  0.2460  0.8190 -1.0253
 9481TIP3    H249859   0.054   5.358  13.595 -0.3661 -0.5547  2.5193
 9482TIP3   OH249860   3.242   5.140  10.582 -0.5092 -0.2421  0.4832
 9482TIP3    H149861   3.191   5.060  10.593  0.2384 -0.9057 -0.7085
 9482TIP3    H249862   3.247   5.154  10.488  0.5770  0.4051  0.6110
 9483TIP3   OH249863   6.599   0.143   4.532 -0.8226  0.2875 -0.1394
 9483TIP3    H149864   6.512   0.123   4.496  0.2746 -1.5033 -2.0699
 9483TIP3    H249865   6.656   0.148   4.455  0.7986  1.4269  1.0758
 9484TIP3   OH249866   6.129   3.824   2.711  0.1362  0.2289 -0.0632
 9484TIP3    H149867   6.195   3.784   2.654  0.3247 -0.8496  0.8811
 9484TIP3    H249868   6.159   3.913   2.723  1.0049 -0.0247 -0.2787
 9485TIP3   OH249869   1.773   2.398   0.087  0.4261 -0.0386  0.9413
 9485TIP3    H149870   1.786   2.411   0.181 -0.6056 -0.4509  1.1481
 9485TIP3    H249871   1.726   2.315   0.080  1.9383 -0.8580 -0.0445
 9486TIP3   OH249872   3.229   4.895  11.487 -0.3258 -0.6054 -0.2180
 9486TIP3    H149873   3.161   4.914  11.422 -3.0217  0.2868  2.6196
 9486TIP3    H249874   3.202   4.812  11.527 -0.1042  0.0063  1.2910
 9487TIP3   OH249875   2.482   3.880   3.328 -0.6181  0.6303 -0.4355
 9487TIP3    H149876   2.456   3.951   3.387  0.2101  1.5599 -1.1382
 9487TIP3    H249877   2.451   3.909   3.242  0.4676  0.5550 -0.8635
 9488TIP3   OH249878   2.782   1.909   3.165 -0.2540 -0.3491 -0.1493
 9488TIP3    H149879   2.834   1.950   3.096  2.2871  0.5470  2.0936
 9488TIP3    H249880   2.738   1.983   3.208 -1.2205 -0.8191 -0.3048
 9489TIP3   OH249881   3.686   0.458   3.328 -0.7480 -0.0954 -0.7229
 9489TIP3    H149882   3.676   0.520   3.256 -0.5941  0.4922 -0.2468
 9489TIP3    H249883   3.715   0.511   3.401 -0.4120 -0.7696 -0.3596
 9490TIP3   OH249884   4.127   2.493   1.623 -0.0203  0.3817  0.3160
 9490TIP3    H149885   4.065   2.565   1.628  2.0253  2.2250  0.8057
 9490TIP3    H249886   4.170   2.492   1.708  0.4760 -0.9952  0.0770
 9491TIP3   OH249887   4.057   1.947   6.239  0.7904  0.1650 -0.0373
 9491TIP3    H149888   4.080   1.901   6.319  0.1586 -1.5702 -0.8013
 9491TIP3    H249889   3.964   1.968   6.249  0.8180  0.3366 -0.1348
 9492TIP3   OH249890   2.130   6.772   2.269  0.3352  0.2357  0.0275
 9492TIP3    H149891   2.159   6.783   2.360  1.2380  2.2134 -0.4535
 9492TIP3    H249892   2.210   6.756   2.219  0.1490  1.3646 -0.6910
 9493TIP3   OH249893   0.293   6.202   6.281 -0.4015 -0.2518  0.3155
 9493TIP3    H149894   0.281   6.269   6.348 -1.3468 -0.5421  0.4453
 9493TIP3    H249895   0.334   6.129   6.328  0.0077 -0.0223  0.3194
 9494TIP3   OH249896   3.440   5.135  13.977 -0.4366 -0.0322 -0.0498
 9494TIP3    H149897   3.391   5.204  14.022  0.1052  0.6417 -0.4744
 9494TIP3    H249898   3.372   5.081  13.935 -0.9547 -0.6739  1.5351
 9495TIP3   OH249899   2.404   1.312   0.596 -0.1312  0.1701  0.3184
 9495TIP3    H149900   2.493   1.334   0.569 -0.1900 -1.4937 -1.4802
 9495TIP3    H249901   2.408   1.307   0.691  1.1023  2.3881  0.4481
 9496TIP3   OH249902   0.382   1.657  15.836 -0.2440  0.1001  0.6364
 9496TIP3    H149903   0.421   1.648  15.923  0.2936 -1.9845  0.2423
 9496TIP3    H249904   0.293   1.623  15.846  0.0611 -0.8660  0.2555
 9497TIP3   OH249905   5.701   4.405   3.458  0.0941  0.0212 -0.8473
 9497TIP3    H149906   5.690   4.435   3.548 -2.2262  0.4500 -1.1901
 9497TIP3    H249907   5.642   4.330   3.450 -0.2829  0.4270 -2.1764
 9498TIP3   OH249908   1.817   0.608   1.193 -0.0783 -0.5897 -0.0013
 9498TIP3    H149909   1.869   0.671   1.143  1.6484 -0.3794  1.9062
 9498TIP3    H249910   1.873   0.584   1.267 -1.9445 -1.9320  1.0692
 9499TIP3   OH249911   6.543   6.287   4.282  0.6213  0.2739 -0.2604
 9499TIP3    H149912   6.479   6.350   4.249  1.0334  1.1336  0.5286
 9499TIP3    H249913   6.500   6.202   4.275  0.0305  0.6439 -1.2834
 9500TIP3   OH249914   2.726   2.355   4.178 -0.0094 -0.3785  0.1311
 9500TIP3    H149915   2.798   2.327   4.234  0.4275 -2.1819 -1.2443
 9500TIP3    H249916   2.769   2.397   4.103 -0.4924  0.1657  0.1492
 9501TIP3   OH249917   2.078   6.525   6.419  0.5721 -0.1057 -0.4145
 9501TIP3    H149918   2.102   6.529   6.511  1.6180 -0.9915 -0.6192
 9501TIP3    H249919   2.007   6.461   6.415  0.7900 -0.3573 -0.2709
 9502TIP3   OH249920   3.427   0.901  14.093  0.2031  0.0212 -0.0304
 9502TIP3    H149921   3.417   0.996  14.095  0.7292  0.0680  0.8284
 9502TIP3    H249922   3.462   0.883  14.006 -1.1666  0.4668 -0.6939
 9503TIP3   OH249923   6.489   3.636  15.995  0.2822  0.0711  0.4084
 9503TIP3    H149924   6.479   3.551  15.952 -0.6643  0.9248 -1.1812
 9503TIP3    H249925   6.472   3.700  15.925  1.6468  1.5844  1.3930
 9504TIP3   OH249926   4.220   0.839   3.476 -0.0212  0.3121  0.0868
 9504TIP3    H149927   4.281   0.771   3.448 -1.8005 -0.5426 -2.0581
 9504TIP3    H249928   4.228   0.907   3.408  1.0595  1.8920  1.7032
 9505TIP3   OH249929   6.239   3.032   0.153  0.1769  0.0118  0.3426
 9505TIP3    H149930   6.213   3.104   0.095  0.8544  1.0417  1.2803
 9505TIP3    H249931   6.279   3.075   0.228 -0.7594 -1.2850  1.6490
 9506TIP3   OH249932   5.322   6.223   3.718  0.4704  0.3414  0.5078
 9506TIP3    H149933   5.272   6.231   3.799  1.8020  2.4423  1.1938
 9506TIP3    H249934   5.328   6.312   3.685  1.0024 -0.3257 -1.2753
 9507TIP3   OH249935   1.826   1.831  15.317  0.1705 -0.0823  0.7423
 9507TIP3    H149936   1.752   1.887  15.339 -0.8641 -0.6543 -1.0678
 9507TIP3    H249937   1.901   1.891  15.310 -0.6094  0.8536  0.2536
 9508TIP3   OH249938   3.769   0.214   5.893  0.1671  0.1579  0.2170
 9508TIP3    H149939   3.725   0.186   5.812  1.9434  0.7963 -1.0218
 9508TIP3    H249940   3.727   0.297   5.915  0.2043  0.3754 -0.5044
 9509TIP3   OH249941   4.206   6.610  11.565  0.1376 -0.3495 -0.0816
 9509TIP3    H149942   4.164   6.696  11.567  0.2250 -0.2872 -0.6834
 9509TIP3    H249943   4.294   6.626  11.599 -0.1229 -0.3640  0.6040
 9510TIP3   OH249944   5.821   6.453  12.567 -0.5366 -0.0783 -0.0603
 9510TIP3    H149945   5.914   6.453  12.543 -0.7192  1.5329 -0.8803
 9510TIP3    H249946   5.798   6.545  12.575 -2.3542 -0.4117 -0.9781
 9511TIP3   OH249947   4.262   4.837   4.179  0.0292  0.6357 -0.5091
 9511TIP3    H149948   4.321   4.814   4.107 -0.6646 -0.5689 -0.7010
 9511TIP3    H249949   4.215   4.757   4.200  0.3172  0.9086  1.4126
 9512TIP3   OH249950   3.848   4.424  12.548 -0.5141 -0.1837 -0.3979
 9512TIP3    H149951   3.783   4.382  12.491 -0.0816 -1.6959  0.1768
 9512TIP3    H249952   3.881   4.353  12.604  0.8488  0.7663  0.0658
 9513TIP3   OH249953   5.313   4.810   4.392 -0.7536 -0.5678  0.4212
 9513TIP3    H149954   5.388   4.750   4.390 -1.9141 -2.1141  0.8885
 9513TIP3    H249955   5.332   4.872   4.462 -1.0320 -2.5527  2.3541
 9514TIP3   OH249956   5.960   1.049   0.317  0.6605 -0.8861  0.0267
 9514TIP3    H149957   5.942   1.092   0.233  1.4979 -0.3809  0.0981
 9514TIP3    H249958   5.925   0.960   0.306  2.3525 -1.4325 -1.5327
 9515TIP3   OH249959   5.698   6.340  13.885 -0.7695  0.0227 -0.8312
 9515TIP3    H149960   5.746   6.414  13.848 -1.5515  0.4366 -1.0425
 9515TIP3    H249961   5.607   6.356  13.860 -1.2480  0.0326  0.7964
 9516TIP3   OH249962   0.628   5.975   5.814  0.2279 -0.1490 -0.2985
 9516TIP3    H149963   0.603   6.024   5.893  0.4791 -1.1366  0.4149
 9516TIP3    H249964   0.626   5.883   5.842 -0.4348 -0.5661 -1.6629
 9517TIP3   OH249965   6.115   1.284  14.476 -0.3238 -0.6213 -0.3481
 9517TIP3    H149966   6.172   1.208  14.465 -0.7760 -1.6397  3.1350
 9517TIP3    H249967   6.031   1.255  14.440 -0.4995 -1.8380  0.9484
 9518TIP3   OH249968   0.193   6.480   2.222 -0.6197  0.1146  0.1373
 9518TIP3    H149969   0.184   6.562   2.270 -0.2552  0.1408  0.1625
 9518TIP3    H249970   0.280   6.485   2.181 -1.6564  0.9465 -2.1374
 9519TIP3   OH249971   4.066   0.734   4.150 -0.3821 -0.7349  0.6647
 9519TIP3    H149972   4.045   0.645   4.119 -1.4510 -0.2253 -0.1570
 9519TIP3    H249973   3.981   0.776   4.161  0.1201  0.6020 -0.2520
 9520TIP3   OH249974   5.451   6.290  13.771 -0.3860  0.3102 -0.8408
 9520TIP3    H149975   5.428   6.346  13.696  1.8691  0.2591 -1.6525
 9520TIP3    H249976   5.454   6.202  13.734 -0.8320  0.0668 -0.2986
 9521TIP3   OH249977   2.885   6.369   4.179  0.0344  0.3202 -0.4401
 9521TIP3    H149978   2.794   6.384   4.153  0.0446  0.6125 -0.3193
 9521TIP3    H249979   2.891   6.409   4.266  0.1319 -0.2017 -0.2036
 9522TIP3   OH249980   1.113   2.991   3.845 -0.4492  0.7853 -0.2262
 9522TIP3    H149981   1.077   2.949   3.924  0.1875  2.2354  0.8687
 9522TIP3    H249982   1.047   2.974   3.777 -1.0826 -0.3687  0.6406
 9523TIP3   OH249983   3.972   4.885   4.938 -0.2509 -0.0269  0.9303
 9523TIP3    H149984   3.990   4.971   4.975  1.1325  2.0973 -3.8494
 9523TIP3    H249985   3.897   4.899   4.879  1.6721 -1.1861 -2.0512
 9524TIP3   OH249986   0.654   0.904  14.320 -0.3130  0.3192 -0.0337
 9524TIP3    H149987   0.661   0.988  14.276 -0.6300  0.2053 -0.3055
 9524TIP3    H249988   0.743   0.886  14.353 -0.7444  1.9393  2.2488
 9525TIP3   OH249989   0.838   5.788  16.706  0.0480 -0.3737  0.1856
 9525TIP3    H149990   0.796   5.860  16.753  0.1615 -1.0690  1.3741
 9525TIP3    H249991   0.931   5.812  16.705 -0.0363 -0.0397 -0.2859
 9526TIP3   OH249992   6.732   2.720   2.521  0.5680 -0.4622  0.0368
 9526TIP3    H149993   6.811   2.676   2.489  1.1930  0.2169  0.6161
 9526TIP3    H249994   6.709   2.673   2.601  0.5701 -0.4535  0.0426
 9527TIP3   OH249995   2.120   4.586   3.247  0.1543 -0.1417 -0.0780
 9527TIP3    H149996   2.119   4.648   3.319  0.9069  0.4428 -0.5634
 9527TIP3    H249997   2.211   4.557   3.240 -0.3464 -2.1075  0.8054
 9528TIP3   OH249998   2.359   1.795   5.736 -0.3723  0.8213  0.1513
 9528TIP3    H149999   2.362   1.861   5.666  0.8637  1.1863  0.5169
 9528TIP3    H250000   2.403   1.719   5.698 -1.6349  0.2445 -0.2043
 9529TIP3   OH250001   1.338   0.378   5.445  0.1889  0.5171  0.1495
 9529TIP3    H150002   1.318   0.438   5.373 -1.0015 -0.4820 -0.3960
 9529TIP3    H250003   1.431   0.357   5.434  0.5020  1.8652  0.0719
 9530TIP3   OH250004   5.891   5.216   5.003  0.0158  0.2062  0.5032
 9530TIP3    H150005   5.849   5.142   4.958 -0.6822  0.4638  0.7207
 9530TIP3    H250006   5.976   5.181   5.031 -0.1427 -0.3956  0.2601
 9531TIP3   OH250007   4.617   2.606   5.882  0.1163 -0.3700 -0.0192
 9531TIP3    H150008   4.525   2.596   5.904  0.3531  0.6621  1.6115
 9531TIP3    H250009   4.651   2.667   5.947  1.5035  0.8605 -1.7764
 9532TIP3   OH250010   2.294   6.124  17.072  0.2553 -0.2459  0.1982
 9532TIP3    H150011   2.288   6.039  17.028  0.7263 -0.6348  0.8719
 9532TIP3    H250012   2.370   6.167  17.032  0.3037 -0.3356  0.1954
 9533TIP3   OH250013   5.722   6.620  13.474  0.1321 -0.2107 -0.2091
 9533TIP3    H150014   5.807   6.647  13.509  1.1745 -0.1603 -2.5989
 9533TIP3    H250015   5.722   6.525  13.482 -0.3556 -0.1038  1.3619
 9534TIP3   OH250016   0.599   2.326   3.854 -0.8076 -0.5209  0.3569
 9534TIP3    H150017   0.641   2.401   3.810 -2.4853 -0.7003 -1.7407
 9534TIP3    H250018   0.525   2.365   3.900 -1.1653 -0.7583 -0.0096
 9535TIP3   OH250019   5.318   3.185   4.985  0.5943  0.0797  0.1729
 9535TIP3    H150020   5.290   3.151   5.070 -0.5727 -0.9016 -0.5723
 9535TIP3    H250021   5.256   3.255   4.966  0.7853  0.2241  0.0852
 9536TIP3   OH250022   1.517   0.593   5.249 -0.5192 -0.3934  0.3939
 9536TIP3    H150023   1.587   0.625   5.192  0.9804 -0.3140  2.1656
 9536TIP3    H250024   1.561   0.535   5.311 -2.5479 -2.8487 -0.3038
 9537TIP3   OH250025   0.683   0.204   1.433  0.1455  0.0346 -0.1471
 9537TIP3    H150026   0.683   0.278   1.494 -0.4549  1.6766 -2.0448
 9537TIP3    H250027   0.610   0.150   1.462  1.0535 -0.2971  1.7323
 9538TIP3   OH250028   5.290   5.402   1.036  0.4608 -0.3468  0.2575
 9538TIP3    H150029   5.232   5.430   1.108 -1.0607 -0.0874 -0.9991
 9538TIP3    H250030   5.378   5.420   1.068 -0.1797  0.0308  1.9420
 9539TIP3   OH250031   3.665   5.153   1.995  0.0111  1.0641 -0.2545
 9539TIP3    H150032   3.697   5.071   2.032 -0.3345  0.1002 -2.0172
 9539TIP3    H250033   3.658   5.212   2.071  0.6998 -0.3651  0.9711
 9540TIP3   OH250034   2.350   5.588  13.616  0.1261 -0.2632 -0.3429
 9540TIP3    H150035   2.267   5.543  13.612  0.0511 -0.3317  1.4895
 9540TIP3    H250036   2.338   5.656  13.683  1.0837  0.7117 -1.1076
 9541TIP3   OH250037   4.246   0.753  12.541  0.1528 -0.1718 -0.1239
 9541TIP3    H150038   4.253   0.698  12.619  0.0065 -0.1737 -0.1136
 9541TIP3    H250039   4.336   0.757  12.508  0.6960  1.8759  1.4250
 9542TIP3   OH250040   1.182   1.986  14.513 -0.9324 -0.2075 -0.1901
 9542TIP3    H150041   1.109   2.047  14.521 -0.7599  0.1276 -1.0502
 9542TIP3    H250042   1.240   2.027  14.449 -0.2339 -0.7110  0.1155
 9543TIP3   OH250043   5.665   5.514   5.936  0.1538 -0.2446 -0.1388
 9543TIP3    H150044   5.699   5.565   5.863  0.8638 -0.3564  0.1044
 9543TIP3    H250045   5.742   5.474   5.975 -0.3730 -1.4100 -0.2470
 9544TIP3   OH250046   0.642   6.727   2.716  0.2664  0.0662  0.1406
 9544TIP3    H150047   0.588   6.657   2.752  2.5677 -1.0061  1.8028
 9544TIP3    H250048   0.732   6.698   2.733  1.3250  3.4348  0.9365
 9545TIP3   OH250049   5.418   5.161   0.943  0.0135 -0.5615  0.0673
 9545TIP3    H150050   5.350   5.093   0.931  0.3493 -0.9555  0.3655
 9545TIP3    H250051   5.375   5.228   0.996 -0.7454  0.0973 -1.3417
 9546TIP3   OH250052   5.375   5.264   0.409  0.2030  0.3874  0.0386
 9546TIP3    H150053   5.406   5.228   0.492  1.2250  2.5184  0.6706
 9546TIP3    H250054   5.337   5.349   0.433 -1.4610  0.1078 -1.4251
 9547TIP3   OH250055   1.784   2.583   3.160 -0.0125  0.1019 -0.3724
 9547TIP3    H150056   1.879   2.577   3.146  0.1030 -0.8548  0.6893
 9547TIP3    H250057   1.769   2.674   3.185  0.3641  0.7142 -2.1922
 9548TIP3   OH250058   6.006   0.951  13.830 -0.4656 -0.1515 -0.4455
 9548TIP3    H150059   6.072   1.021  13.831 -2.1582  1.5400 -1.2291
 9548TIP3    H250060   6.041   0.885  13.890  0.5814  1.9771  1.4644
 9549TIP3   OH250061   5.071   5.046  12.559 -0.1236  0.2658 -0.5317
 9549TIP3    H150062   5.130   5.118  12.533  1.6338 -0.1824  1.8546
 9549TIP3    H250063   5.026   5.079  12.637 -0.3269 -0.7055 -0.2268
 9550TIP3   OH250064   4.629   2.914  12.091 -0.2688 -0.0645 -0.2446
 9550TIP3    H150065   4.545   2.959  12.078  1.1164  2.7244 -0.3297
 9550TIP3    H250066   4.653   2.934  12.182  0.2703 -0.9429 -0.1816
 9551TIP3   OH250067   3.875   2.599  15.473  0.5253  0.1595 -0.3542
 9551TIP3    H150068   3.818   2.541  15.523  0.2563  0.4762 -0.2885
 9551TIP3    H250069   3.960   2.555  15.472 -0.1948 -1.3389 -2.1778
 9552TIP3   OH250070   6.245   4.795   5.529 -0.1528 -0.4116  0.1677
 9552TIP3    H150071   6.183   4.731   5.493  0.7775 -1.7374  0.8488
 9552TIP3    H250072   6.210   4.816   5.616  0.5253 -1.4388  0.7007
 9553TIP3   OH250073   3.748   0.680  14.312  0.2137  0.0382  0.0888
 9553TIP3    H150074   3.783   0.629  14.385  0.0139  0.6018  0.5837
 9553TIP3    H250075   3.723   0.764  14.350 -2.1678 -0.4959 -0.0938
 9554TIP3   OH250076   2.135   4.214  14.621 -0.3180  0.4148  0.1914
 9554TIP3    H150077   2.226   4.223  14.592 -0.2668 -0.9943 -0.1438
 9554TIP3    H250078   2.133   4.252  14.708  0.7313 -0.0607  0.4353
 9555TIP3   OH250079   1.429   4.196  14.137  0.3528 -0.2248 -0.1299
 9555TIP3    H150080   1.452   4.171  14.227  1.3295  2.8188  0.5670
 9555TIP3    H250081   1.426   4.291  14.138 -0.7985 -0.1197 -3.0951
 9556TIP3   OH250082   5.586   3.182   1.075  0.4627 -0.2913 -0.0395
 9556TIP3    H150083   5.539   3.251   1.122 -0.5753 -0.4054 -0.8544
 9556TIP3    H250084   5.615   3.122   1.143 -1.6545 -0.8447  0.4483
 9557TIP3   OH250085   2.153   5.541   5.114 -0.2472  0.0288 -0.1650
 9557TIP3    H150086   2.120   5.601   5.048 -0.7729 -0.1743 -0.0869
 9557TIP3    H250087   2.084   5.535   5.180  0.9950  1.6667  1.3863
 9558TIP3   OH250088   4.551   6.441  16.211 -0.1728 -0.1698  0.1953
 9558TIP3    H150089   4.501   6.409  16.287 -0.7538  1.1048  0.3675
 9558TIP3    H250090   4.558   6.365  16.154 -1.7374 -0.5728  0.4753
 9559TIP3   OH250091   2.950   1.306   5.323 -0.4582  0.1577 -0.2549
 9559TIP3    H150092   2.950   1.364   5.399 -0.0140 -1.0861  0.7229
 9559TIP3    H250093   3.000   1.353   5.257 -0.7992  1.2327  0.2312
 9560TIP3   OH250094   1.322   0.894  17.153 -0.2267  0.0932  0.7985
 9560TIP3    H150095   1.384   0.859  17.217  1.0203 -3.9415 -2.2555
 9560TIP3    H250096   1.377   0.944  17.092 -0.8801  1.0775  0.9962
 9561TIP3   OH250097   2.867   1.040   5.302  0.3420  0.0692 -0.1526
 9561TIP3    H150098   2.830   1.039   5.390  3.4039 -0.2590  1.2651
 9561TIP3    H250099   2.893   1.131   5.288  3.3730 -0.5037  1.0252
 9562TIP3   OH250100   5.637   3.748  11.697  0.1376 -0.4268 -0.0244
 9562TIP3    H150101   5.586   3.788  11.627 -0.6672 -0.1823  0.6872
 9562TIP3    H250102   5.720   3.724  11.656  0.3291  1.2290 -0.6670
 9563TIP3   OH250103   3.063   5.953   4.812 -0.2082  0.3166 -0.4449
 9563TIP3    H150104   3.074   5.858   4.805 -0.4293  0.3613 -1.5399
 9563TIP3    H250105   3.152   5.988   4.816 -0.1072  0.1232 -0.9813
 9564TIP3   OH250106   0.968   3.566   4.195 -0.4355  0.3438  0.1515
 9564TIP3    H150107   0.933   3.489   4.240 -0.3873  0.5620  0.5606
 9564TIP3    H250108   0.955   3.547   4.102  1.5148 -1.1338  0.1141
 9565TIP3   OH250109   4.624   3.937  10.445 -0.6195  0.0465  0.7776
 9565TIP3    H150110   4.534   3.970  10.458  0.0164  2.8622 -1.0567
 9565TIP3    H250111   4.675   3.985  10.511 -0.1437  0.2527  0.2589
 9566TIP3   OH250112   0.354   6.011   1.736  0.0343  0.1053 -0.2641
 9566TIP3    H150113   0.302   6.032   1.813  1.2419 -0.6321  0.7845
 9566TIP3    H250114   0.311   5.934   1.699  0.2803 -0.4221  0.5218
 9567TIP3   OH250115   1.651   5.086  13.016 -0.4782 -0.4408 -0.1092
 9567TIP3    H150116   1.595   5.118  13.087 -0.7220 -1.0066 -0.0402
 9567TIP3    H250117   1.634   5.145  12.943  0.2330  0.5315  0.4771
 9568TIP3   OH250118   0.605   2.673  13.474 -0.1212  0.5004 -0.0172
 9568TIP3    H150119   0.528   2.617  13.481  1.2002 -1.2103  3.1880
 9568TIP3    H250120   0.671   2.619  13.431 -0.2798  1.4867 -1.5578
 9569TIP3   OH250121   2.537   6.008  14.297 -0.7320  0.5752  0.1035
 9569TIP3    H150122   2.528   6.097  14.334 -3.7573  0.4519 -0.0774
 9569TIP3    H250123   2.490   6.012  14.214 -0.6474 -1.1261 -0.0535
 9570TIP3   OH250124   0.737   2.886   0.399  0.3402 -0.3527  0.0412
 9570TIP3    H150125   0.702   2.879   0.310 -0.1651  0.4477  0.1593
 9570TIP3    H250126   0.741   2.980   0.415  0.0095 -0.4933  1.0233
 9571TIP3   OH250127   2.965   2.872  13.951 -0.0452 -0.2589 -0.0518
 9571TIP3    H150128   2.985   2.782  13.927  0.4528  0.3903 -2.3958
 9571TIP3    H250129   2.870   2.873  13.965 -0.1347 -1.0535 -0.5611
 9572TIP3   OH250130   5.306   0.298   2.349  0.1798  0.1300  0.0637
 9572TIP3    H150131   5.310   0.344   2.265 -0.5907  0.0524 -0.0271
 9572TIP3    H250132   5.214   0.274   2.358  0.2518  0.1537  0.9438
 9573TIP3   OH250133   0.731   6.259  15.857  0.3817 -0.2476 -0.2708
 9573TIP3    H150134   0.707   6.190  15.919  2.1925 -0.7910 -0.1129
 9573TIP3    H250135   0.656   6.318  15.856 -0.6384 -1.4831  0.6512
 9574TIP3   OH250136   3.364   1.795   4.836 -0.0614  0.0246  0.0790
 9574TIP3    H150137   3.445   1.776   4.883  0.5448 -0.4231 -1.0921
 9574TIP3    H250138   3.307   1.835   4.901  0.3514 -1.5121  1.4427
 9575TIP3   OH250139   0.870   0.761  16.671 -0.2430  0.3137 -0.0893
 9575TIP3    H150140   0.833   0.840  16.632 -2.0188 -0.3235  0.2071
 9575TIP3    H250141   0.795   0.704  16.685  0.8990 -1.1220  0.4383
 9576TIP3   OH250142   2.164   3.278   0.318 -0.6504  0.5705  0.1599
 9576TIP3    H150143   2.190   3.283   0.411 -2.1293 -1.9207  0.8053
 9576TIP3    H250144   2.070   3.296   0.318 -1.0580 -1.3168 -0.5327
 9577TIP3   OH250145   0.799   5.875  12.754  0.8867 -0.7089  0.2134
 9577TIP3    H150146   0.822   5.893  12.845  2.0278 -1.5770  0.1179
 9577TIP3    H250147   0.882   5.854  12.712  0.2839 -0.9812 -0.8808
 9578TIP3   OH250148   5.124   3.378   4.859  0.1222 -0.1050 -0.1672
 9578TIP3    H150149   5.104   3.286   4.874  2.6074 -0.5094  1.3115
 9578TIP3    H250150   5.142   3.384   4.765  2.6327 -1.8174  0.1055
 9579TIP3   OH250151   2.796   5.592  13.547  0.4375  0.3477 -0.1393
 9579TIP3    H150152   2.757   5.604  13.633 -0.1200 -1.3911 -0.1204
 9579TIP3    H250153   2.724   5.607  13.485 -0.0139 -1.6094 -0.1490
 9580TIP3   OH250154   3.951   0.188   4.016  0.4494  0.3756 -0.2016
 9580TIP3    H150155   3.991   0.102   4.002 -1.2089 -0.7198  1.2600
 9580TIP3    H250156   3.965   0.206   4.109 -2.4275 -0.1583  0.4432
 9581TIP3   OH250157   3.227   2.301  13.574  0.5241 -0.5809 -0.1453
 9581TIP3    H150158   3.208   2.393  13.590 -0.2682 -0.4432 -1.6414
 9581TIP3    H250159   3.315   2.288  13.608  1.7474  1.4393 -2.2223
 9582TIP3   OH250160   1.155   5.512  16.396 -0.0055  0.3478  0.5053
 9582TIP3    H150161   1.086   5.569  16.430  0.2562  0.8358  0.2312
 9582TIP3    H250162   1.127   5.491  16.307 -0.0820  0.0793  0.5917
 9583TIP3   OH250163   5.100   6.034  16.439  0.3123 -0.3961 -0.4774
 9583TIP3    H150164   5.032   6.098  16.418 -2.0853 -2.8567 -0.6313
 9583TIP3    H250165   5.181   6.086  16.441 -1.3944  2.5190 -1.0826
 9584TIP3   OH250166   2.513   4.523   3.464  0.0163  0.1174 -0.5309
 9584TIP3    H150167   2.476   4.552   3.547  1.7109 -0.0617  0.3381
 9584TIP3    H250168   2.495   4.429   3.461  0.5147  0.0053 -0.0517
 9585TIP3   OH250169   6.523   1.894   2.922 -0.0352 -0.0024  0.1676
 9585TIP3    H150170   6.588   1.964   2.934 -1.1023  0.8252  1.5471
 9585TIP3    H250171   6.565   1.832   2.863  1.2508  1.4420 -0.5303
 9586TIP3   OH250172   3.326   2.016   5.906  0.0327  0.5308  0.5226
 9586TIP3    H150173   3.356   1.954   5.840  0.4340 -1.0176  2.0680
 9586TIP3    H250174   3.373   1.991   5.985 -0.5285  2.2256  1.4517
 9587TIP3   OH250175   5.627   3.288  16.567  0.0748 -0.5835  0.3595
 9587TIP3    H150176   5.705   3.279  16.622 -1.1806 -0.4914  2.2434
 9587TIP3    H250177   5.555   3.303  16.629 -1.0792  1.8847 -1.4317
 9588TIP3   OH250178   4.319   3.565   1.290  0.0832  0.2259 -0.0752
 9588TIP3    H150179   4.319   3.487   1.235 -1.8174 -0.6886  1.1266
 9588TIP3    H250180   4.279   3.537   1.372  1.3326  1.9556  1.2041
 9589TIP3   OH250181   4.981   2.681   0.804 -0.0997  0.2103 -0.4500
 9589TIP3    H150182   4.962   2.774   0.793 -0.4837 -0.0875 -2.5963
 9589TIP3    H250183   4.897   2.637   0.793  0.0179 -0.3953  0.8732
 9590TIP3   OH250184   5.411   2.003   4.318 -0.2633 -0.5652  0.3891
 9590TIP3    H150185   5.477   2.015   4.386  0.2253  0.1116 -0.1887
 9590TIP3    H250186   5.461   1.981   4.240 -0.6982  0.2082 -0.1113
 9591TIP3   OH250187   3.677   5.808   4.659  0.2533  0.0859 -0.1897
 9591TIP3    H150188   3.597   5.801   4.608 -0.2411  1.3334  0.3648
 9591TIP3    H250189   3.748   5.804   4.595 -0.3758  2.6158 -1.1215
 9592TIP3   OH250190   5.710   6.123  12.334 -0.2890  0.2648 -0.1669
 9592TIP3    H150191   5.630   6.110  12.283  0.2749  0.6991 -1.2001
 9592TIP3    H250192   5.729   6.037  12.371 -1.6446  0.3300  0.7324
 9593TIP3   OH250193   0.144   5.852  12.104  0.0053  0.0641  1.3325
 9593TIP3    H150194   0.135   5.848  12.199  3.1190 -2.5654  1.7131
 9593TIP3    H250195   0.230   5.891  12.089  0.1036 -0.6817 -0.3254
 9594TIP3   OH250196   0.352   3.770   0.140  0.3438  0.6173 -0.2238
 9594TIP3    H150197   0.417   3.722   0.192  0.7242  1.1699 -0.1796
 9594TIP3    H250198   0.276   3.775   0.197  0.8116  1.3550  0.3580
 9595TIP3   OH250199   3.324   5.760  11.266  0.3879 -0.1382 -0.3668
 9595TIP3    H150200   3.397   5.758  11.328 -1.1015  0.2498  1.4719
 9595TIP3    H250201   3.297   5.668  11.258  0.2912 -0.1346 -0.0834
 9596TIP3   OH250202   4.803   6.500  14.930  0.2747 -0.2260  0.5141
 9596TIP3    H150203   4.782   6.543  14.847  2.3612 -0.4712 -0.2093
 9596TIP3    H250204   4.802   6.406  14.909 -0.1382 -0.3369  1.0150
 9597TIP3   OH250205   5.906   2.380   5.932 -0.5199 -0.2868 -0.1428
 9597TIP3    H150206   5.923   2.397   6.025 -2.6201  0.3485  0.1804
 9597TIP3    H250207   5.817   2.345   5.930 -1.0839  1.0941 -2.0280
 9598TIP3   OH250208   6.599   3.610   4.299 -0.1955 -0.1573  0.7413
 9598TIP3    H150209   6.524   3.587   4.355  0.0067 -1.4860  0.4871
 9598TIP3    H250210   6.612   3.533   4.244  1.0920  0.2344  0.4792
 9599TIP3   OH250211   4.441   4.957  16.524  0.3880 -0.1267 -0.0985
 9599TIP3    H150212   4.453   5.037  16.575  0.5546 -0.9704  1.2361
 9599TIP3    H250213   4.521   4.907  16.539 -0.1620 -1.0151 -0.0378
 9600TIP3   OH250214   4.716   1.760  12.760  0.1687  0.0496  0.8166
 9600TIP3    H150215   4.642   1.806  12.721  0.6975 -0.6936 -1.1860
 9600TIP3    H250216   4.724   1.679  12.709  2.5090  0.2337  0.7881
 9601TIP3   OH250217   3.393   5.898   4.027  0.2900  0.1507  0.6269
 9601TIP3    H150218   3.467   5.841   4.048  0.3722 -0.9379 -2.1727
 9601TIP3    H250219   3.327   5.878   4.093  1.7106 -0.4172  1.9215
 9602TIP3   OH250220   1.117   2.257  11.680 -0.5658 -0.2727  0.1253
 9602TIP3    H150221   1.046   2.308  11.719 -0.9822  0.0443 -0.9869
 9602TIP3    H250222   1.080   2.225  11.597  0.8829  0.7354 -0.9683
 9603TIP3   OH250223   4.190   5.340  14.944 -0.6154 -0.0748  0.3675
 9603TIP3    H150224   4.149   5.275  15.001  0.8243 -0.7540  0.6760
 9603TIP3    H250225   4.265   5.295  14.905 -0.5551  0.9008 -0.7330
 9604TIP3   OH250226   2.845   6.068  16.027  0.2321 -0.1378  0.1765
 9604TIP3    H150227   2.790   6.146  16.030  1.2285  0.6037 -0.5114
 9604TIP3    H250228   2.799   6.009  15.967  1.1744  1.2800 -2.0205
 9605TIP3   OH250229   1.803   1.151   4.885 -0.0943 -0.8733 -0.3565
 9605TIP3    H150230   1.801   1.074   4.941 -0.1120  0.1099  1.0409
 9605TIP3    H250231   1.757   1.219   4.935 -0.0685  0.0528 -1.5392
 9606TIP3   OH250232   1.741   5.755   1.189 -0.2000  0.7846 -0.2951
 9606TIP3    H150233   1.739   5.712   1.274  0.2456 -0.5775 -0.9559
 9606TIP3    H250234   1.649   5.760   1.163 -0.2601  0.1992 -0.2138
 9607TIP3   OH250235   4.829   3.322  13.820 -0.3064  0.3494  0.3543
 9607TIP3    H150236   4.811   3.253  13.883  0.2746  0.2724  0.4415
 9607TIP3    H250237   4.771   3.303  13.746  0.6639 -0.9192 -0.1242
 9608TIP3   OH250238   4.511   3.985   0.676 -0.0966 -0.2321 -0.6252
 9608TIP3    H150239   4.502   4.072   0.637 -2.2950  0.0673  0.3856
 9608TIP3    H250240   4.573   3.998   0.748  1.6254 -0.1299 -2.0664
 9609TIP3   OH250241   5.601   2.313  14.204 -0.2430  0.1109  0.5387
 9609TIP3    H150242   5.601   2.370  14.127 -1.4078  0.4309  0.7651
 9609TIP3    H250243   5.678   2.257  14.191 -1.3243 -1.0161 -1.7258
 9610TIP3   OH250244   3.172   1.045  15.962 -0.3110  0.0948  0.3088
 9610TIP3    H150245   3.196   0.984  15.892 -1.5681 -0.1788  0.1021
 9610TIP3    H250246   3.200   1.001  16.043  1.3115  0.4927  0.0122
 9611TIP3   OH250247   1.587   2.470   6.488 -0.1031 -0.3981  0.7112
 9611TIP3    H150248   1.673   2.500   6.457 -0.4903 -1.5751 -1.7204
 9611TIP3    H250249   1.606   2.390   6.537  0.0837 -2.2361 -2.1328
 9612TIP3   OH250250   3.393   0.402  16.346  0.5735 -0.2551  0.3338
 9612TIP3    H150251   3.402   0.312  16.314  0.0767 -1.2514  2.8062
 9612TIP3    H250252   3.483   0.434  16.351  0.7368 -0.4820 -0.8305
 9613TIP3   OH250253   0.478   3.892  14.513 -1.0182 -0.3011  0.1018
 9613TIP3    H150254   0.395   3.933  14.487  0.5631  1.5632 -2.5642
 9613TIP3    H250255   0.525   3.962  14.558 -0.3499 -0.9117  0.3647
 9614TIP3   OH250256   3.503   2.975   6.347  0.4988  0.6585  0.4840
 9614TIP3    H150257   3.443   3.050   6.341  1.3433  1.2203 -2.4782
 9614TIP3    H250258   3.460   2.914   6.407 -2.1683  1.7895 -0.1548
 9615TIP3   OH250259   0.123   2.698  14.583 -0.0866  0.4742 -0.4218
 9615TIP3    H150260   0.148   2.790  14.582 -0.0346  0.4595 -0.5938
 9615TIP3    H250261   0.111   2.676  14.491 -1.2228  0.6062 -0.3138
 9616TIP3   OH250262   0.607   3.504  14.717 -0.4033  0.2564  0.3107
 9616TIP3    H150263   0.703   3.503  14.725 -0.4799 -0.6573  1.3236
 9616TIP3    H250264   0.590   3.565  14.645  0.9201  0.7408  0.3733
 9617TIP3   OH250265   5.135   3.104   3.156 -0.4698  0.1920 -0.1374
 9617TIP3    H150266   5.192   3.041   3.201 -1.8952 -0.7973  0.3297
 9617TIP3    H250267   5.051   3.059   3.147 -0.5188  0.6474 -3.0364
 9618TIP3   OH250268   5.421   4.589   0.715 -0.2320 -0.7602  0.0058
 9618TIP3    H150269   5.379   4.506   0.691  0.0535 -1.0454  0.4595
 9618TIP3    H250270   5.505   4.588   0.669 -0.8978  0.0195 -1.2660
 9619TIP3   OH250271   2.330   2.596  14.989  0.4743 -0.1435 -0.1877
 9619TIP3    H150272   2.286   2.680  14.978  0.7652  0.0445  0.0571
 9619TIP3    H250273   2.403   2.615  15.047 -1.3114 -1.1767  2.6140
 9620TIP3   OH250274   4.941   4.067  13.656 -0.3314  0.0536  0.0414
 9620TIP3    H150275   4.854   4.029  13.661  0.4460 -1.6430  2.0990
 9620TIP3    H250276   4.986   4.017  13.588 -0.6993  0.3663 -0.4327
 9621TIP3   OH250277   6.303   6.508  16.599  0.5430 -0.2884  0.4853
 9621TIP3    H150278   6.294   6.596  16.563  1.6950  0.0047  0.8542
 9621TIP3    H250279   6.276   6.450  16.528  2.0294  0.3039 -0.6157
 9622TIP3   OH250280   2.334   5.006  16.706 -0.1152  0.0214 -0.5557
 9622TIP3    H150281   2.303   4.963  16.626 -2.0473 -1.1754  0.7352
 9622TIP3    H250282   2.425   4.976  16.715 -1.0153 -3.0447 -0.3356
 9623TIP3   OH250283   5.758   1.688  15.568 -0.0786  0.1721 -0.1185
 9623TIP3    H150284   5.802   1.754  15.514 -0.8171  1.5208  0.8799
 9623TIP3    H250285   5.713   1.632  15.505  2.4431 -0.8669 -1.1415
 9624TIP3   OH250286   2.436   0.796   0.850  0.2772  0.0705 -0.3766
 9624TIP3    H150287   2.376   0.734   0.809 -0.4401  0.0047  0.7056
 9624TIP3    H250288   2.409   0.797   0.942  0.7242  1.4633 -0.2349
 9625TIP3   OH250289   2.741   0.652  13.117 -0.0855 -0.0375  0.5276
 9625TIP3    H150290   2.800   0.606  13.177 -0.5106  0.2838  1.2133
 9625TIP3    H250291   2.657   0.652  13.162 -0.6184 -0.4973 -0.4455
 9626TIP3   OH250292   1.714   0.929  14.227 -0.4520 -0.8497 -0.7271
 9626TIP3    H150293   1.628   0.947  14.266 -0.2089  0.9135 -0.9103
 9626TIP3    H250294   1.746   0.852  14.273 -1.8222 -1.0993 -0.1456
 9627TIP3   OH250295   2.489   3.788  14.803 -0.2174 -0.2924  0.2055
 9627TIP3    H150296   2.555   3.853  14.829 -0.5374  0.2369 -0.2813
 9627TIP3    H250297   2.431   3.781  14.879 -0.4764  0.3777  0.0755
 9628TIP3   OH250298   4.442   1.333   5.595  0.3767  0.0530  0.2992
 9628TIP3    H150299   4.379   1.298   5.531 -0.2754  0.0286  0.9338
 9628TIP3    H250300   4.527   1.305   5.562  0.0809  0.2537 -0.6921
 9629TIP3   OH250301   1.351   0.322  15.288  0.2429 -0.1791 -0.2100
 9629TIP3    H150302   1.257   0.311  15.276 -0.2131  2.5136  0.3272
 9629TIP3    H250303   1.378   0.380  15.216  1.1717  0.3822  0.5674
 9630TIP3   OH250304   0.433   6.543   2.444 -0.4284  0.1895 -0.0446
 9630TIP3    H150305   0.477   6.628   2.444 -2.4319  1.3085 -0.6996
 9630TIP3    H250306   0.344   6.563   2.476 -1.5926 -1.2443 -2.1760
 9631TIP3   OH250307   4.164   0.340  13.962 -0.0103 -0.4947 -0.1088
 9631TIP3    H150308   4.168   0.356  13.868  0.1878  0.8421  0.1029
 9631TIP3    H250309   4.072   0.318  13.979 -0.2344  0.0904 -0.5164
 9632TIP3   OH250310   0.564   3.601   5.164 -0.2887  0.1083 -0.1863
 9632TIP3    H150311   0.583   3.524   5.217 -2.5828 -1.2216 -1.1324
 9632TIP3    H250312   0.592   3.577   5.076 -0.4125  0.6178 -0.3680
 9633TIP3   OH250313   1.946   2.350   2.504  0.0923 -0.2831 -0.0189
 9633TIP3    H150314   1.886   2.424   2.493 -0.1834 -0.4779  0.1672
 9633TIP3    H250315   1.987   2.365   2.589  0.7369  0.1540 -0.3975
 9634TIP3   OH250316   3.810   4.100   3.938  0.1905  0.9513 -0.3616
 9634TIP3    H150317   3.765   4.133   4.017  0.8639 -0.2424  0.5643
 9634TIP3    H250318   3.783   4.008   3.933  1.3955  0.5966 -0.6060
 9635TIP3   OH250319   3.540   0.809  14.641 -0.3022 -0.0790  0.3080
 9635TIP3    H150320   3.564   0.862  14.717  0.3872 -0.9432  0.7099
 9635TIP3    H250321   3.447   0.826  14.628 -0.2802  0.5727  0.9373
 9636TIP3   OH250322   6.390   2.417   2.561  0.2580  0.1697  0.0523
 9636TIP3    H150323   6.386   2.324   2.584  2.5450 -0.1835 -0.7654
 9636TIP3    H250324   6.314   2.431   2.504  0.7112 -1.6180 -1.0797
 9637TIP3   OH250325   0.748   3.762   0.061 -0.0006  0.5339 -0.2998
 9637TIP3    H150326   0.786   3.733   0.145  1.0702  0.9920 -0.6024
 9637TIP3    H250327   0.693   3.689   0.033 -1.4817  0.9194  1.4615
 9638TIP3   OH250328   2.892   2.237   5.410 -0.4333  0.0332  0.1782
 9638TIP3    H150329   2.902   2.142   5.404  1.6607  0.1303  1.2504
 9638TIP3    H250330   2.914   2.257   5.501 -0.1280  1.6287 -0.2237
 9639TIP3   OH250331   6.295   4.948   2.825 -0.0789 -0.2599 -0.5332
 9639TIP3    H150332   6.313   5.028   2.873 -0.1943  0.9504 -2.3878
 9639TIP3    H250333   6.379   4.924   2.785  0.2588 -1.8063  0.9778
 9640TIP3   OH250334   1.320   3.277   3.347 -0.6981  0.0568  0.1156
 9640TIP3    H150335   1.249   3.252   3.287 -1.2472  2.2642 -0.2443
 9640TIP3    H250336   1.284   3.261   3.434 -1.4765  0.6937 -0.0754
 9641TIP3   OH250337   3.232   6.397   1.245  0.2254  0.1178  0.3669
 9641TIP3    H150338   3.208   6.463   1.310 -2.7826 -1.0203  0.5441
 9641TIP3    H250339   3.284   6.445   1.180 -1.5386  2.6053  0.6706
 9642TIP3   OH250340   1.160   3.787   5.549 -0.1201 -0.1149  0.4777
 9642TIP3    H150341   1.190   3.876   5.530 -0.9075 -0.0623 -0.6005
 9642TIP3    H250342   1.072   3.799   5.585  0.2851 -0.3947  1.6216
 9643TIP3   OH250343   3.035   6.148   3.792  0.1981  0.3274 -0.0669
 9643TIP3    H150344   3.059   6.237   3.766 -0.5135  0.4728 -0.2779
 9643TIP3    H250345   3.095   6.126   3.862 -0.9533  1.7914  1.4713
 9644TIP3   OH250346   4.655   0.312  15.544  1.3095 -0.8408  0.2401
 9644TIP3    H150347   4.647   0.406  15.529  1.0257 -0.4943  2.2676
 9644TIP3    H250348   4.604   0.271  15.474 -3.3765  0.7076  2.3283
 9645TIP3   OH250349   1.019   2.749  15.612  0.1180  0.0954  0.4940
 9645TIP3    H150350   0.970   2.732  15.532  1.2718 -0.8474 -0.0436
 9645TIP3    H250351   1.036   2.843  15.611 -0.7379  0.2567  0.1623
 9646TIP3   OH250352   4.156   6.439  14.159 -0.5791  0.2317  0.1427
 9646TIP3    H150353   4.186   6.524  14.129 -1.2574  0.4086 -0.0310
 9646TIP3    H250354   4.220   6.377  14.124 -0.5107  0.5907 -0.3690
 9647TIP3   OH250355   0.436   4.042   1.751  0.0778 -0.0032 -0.0439
 9647TIP3    H150356   0.531   4.047   1.759  0.0695 -0.8421  0.8397
 9647TIP3    H250357   0.405   4.127   1.783  0.5383  0.5173 -0.9342
 9648TIP3   OH250358   2.342   3.232  13.748 -0.6674  0.0494 -0.2234
 9648TIP3    H150359   2.359   3.260  13.659 -0.1881 -1.1595 -0.5313
 9648TIP3    H250360   2.288   3.302  13.786 -2.5084 -0.2928 -2.0575
 9649TIP3   OH250361   2.471   1.082  13.557  0.2948 -0.0529  0.3889
 9649TIP3    H150362   2.476   1.116  13.467  0.8853  1.0945  0.8295
 9649TIP3    H250363   2.562   1.080  13.587 -0.0045  1.0734  1.4776
 9650TIP3   OH250364   2.850   0.942  15.792  0.0366  0.0297  0.3235
 9650TIP3    H150365   2.937   0.956  15.753 -0.8226  1.1968 -1.3098
 9650TIP3    H250366   2.812   0.872  15.738  0.5651 -1.8024  2.1748
 9651TIP3   OH250367   4.480   2.909   1.837 -0.3160 -0.0499  0.3956
 9651TIP3    H150368   4.421   2.839   1.810  2.5719 -1.4556 -3.3433
 9651TIP3    H250369   4.545   2.866   1.893  1.1442 -0.3938 -1.4512
 9652TIP3   OH250370   2.262   1.825  15.017 -0.0010  0.0689 -0.5423
 9652TIP3    H150371   2.289   1.777  15.095  1.0182 -0.7306 -1.3505
 9652TIP3    H250372   2.286   1.915  15.035  0.6087 -0.1738 -0.0905
 9653TIP3   OH250373   4.368   6.679  13.599  0.3397  0.3595 -0.5643
 9653TIP3    H150374   4.397   6.604  13.650  0.3984  0.7187 -0.0700
 9653TIP3    H250375   4.377   6.650  13.508 -0.1765 -0.4371 -0.3796
 9654TIP3   OH250376   5.974   1.376  11.006  0.1341  0.9110  0.0900
 9654TIP3    H150377   6.040   1.442  10.985 -0.3187  1.1819 -0.5081
 9654TIP3    H250378   5.891   1.424  11.008 -0.1438  0.4398  0.0998
 9655TIP3   OH250379   1.174   4.222   2.609  0.0207  0.0597  0.2091
 9655TIP3    H150380   1.187   4.130   2.632 -2.3606 -0.5741 -0.6451
 9655TIP3    H250381   1.246   4.268   2.650  2.2480 -2.3838 -0.6929
 9656TIP3   OH250382   3.322   5.133   5.188 -0.0963 -0.5778  0.4684
 9656TIP3    H150383   3.390   5.067   5.205  1.7449  1.4080  1.3063
 9656TIP3    H250384   3.266   5.093   5.121  1.8689 -2.3285 -0.2533
 9657TIP3   OH250385   2.472   3.340  11.667 -0.0415  0.1849 -0.3378
 9657TIP3    H150386   2.558   3.323  11.707 -0.2266  0.4642  0.1877
 9657TIP3    H250387   2.470   3.284  11.590  0.7919  0.4952 -0.5975
 9658TIP3   OH250388   4.099   4.677  11.710 -0.0660  0.3756  0.0567
 9658TIP3    H150389   4.178   4.670  11.657  0.4357 -1.8502  1.0011
 9658TIP3    H250390   4.129   4.661  11.800 -1.6578 -1.3480  0.3358
 9659TIP3   OH250391   5.905   2.441  14.159 -0.1992  0.5646  0.2287
 9659TIP3    H150392   5.863   2.359  14.133  0.2803  0.2725  0.3588
 9659TIP3    H250393   5.933   2.480  14.076  0.0231  0.3499  0.2030
 9660TIP3   OH250394   0.440   5.540  17.182  0.1421 -0.0045  0.3390
 9660TIP3    H150395   0.522   5.587  17.168 -0.4019  0.7148 -0.5991
 9660TIP3    H250396   0.379   5.580  17.120 -0.5877 -1.3474  0.1518
 9661TIP3   OH250397   1.102   1.303  11.324 -0.0111 -0.3446  0.1105
 9661TIP3    H150398   1.124   1.395  11.312 -1.0121 -0.2195 -0.9263
 9661TIP3    H250399   1.175   1.267  11.374  3.0311 -0.1676 -3.7506
 9662TIP3   OH250400   1.571   1.280  10.663  0.4080  0.1354 -0.1005
 9662TIP3    H150401   1.478   1.300  10.672 -0.0207 -1.4102 -0.7537
 9662TIP3    H250402   1.615   1.363  10.680 -1.1694  1.3470 -1.5741
 9663TIP3   OH250403   4.862   4.354  16.515  0.0071 -0.4697 -0.8797
 9663TIP3    H150404   4.857   4.394  16.602  2.0082 -1.3510 -0.3149
 9663TIP3    H250405   4.906   4.420  16.461  0.2537 -0.5631 -0.7957
 9664TIP3   OH250406   4.389   3.378  12.361  0.1272  0.2602 -0.5948
 9664TIP3    H150407   4.421   3.292  12.387 -0.0764  0.3091 -0.1790
 9664TIP3    H250408   4.461   3.438  12.382  0.3596  0.1631 -1.1005
 9665TIP3   OH250409   0.566   1.914  11.217 -0.2002  0.3487  0.2724
 9665TIP3    H150410   0.647   1.942  11.175  0.6895  2.8661  3.2298
 9665TIP3    H250411   0.584   1.825  11.246  1.4711  0.7532  0.6216
 9666TIP3   OH250412   1.337   3.128   1.096  0.2667 -0.4211 -0.0943
 9666TIP3    H150413   1.242   3.124   1.088 -0.2333  4.3025  0.8325
 9666TIP3    H250414   1.363   3.202   1.041  2.9024  0.5767  2.2395
 9667TIP3   OH250415   2.676   1.886  10.894  0.3459  0.1483 -0.1098
 9667TIP3    H150416   2.721   1.840  10.964  0.7344  0.4180 -0.1745
 9667TIP3    H250417   2.591   1.910  10.931 -0.1298 -1.2013 -0.3054
 9668TIP3   OH250418   3.560   3.797   1.684 -0.3968 -0.2101  0.3039
 9668TIP3    H150419   3.641   3.749   1.666 -0.9988 -2.4249  2.7794
 9668TIP3    H250420   3.521   3.811   1.598  0.2533 -3.5743 -0.6889
 9669TIP3   OH250421   0.871   5.089   4.344 -0.1457 -0.1596  0.3065
 9669TIP3    H150422   0.940   5.111   4.282  1.9289 -1.9315  1.8432
 9669TIP3    H250423   0.872   4.993   4.348 -2.9670 -0.2956  0.1641
 9670TIP3   OH250424   1.472   0.106   0.207  0.5417 -0.5333  0.0847
 9670TIP3    H150425   1.565   0.118   0.226  0.1681  0.4289  1.4781
 9670TIP3    H250426   1.432   0.096   0.293 -0.5849 -1.4757 -0.5324
 9671TIP3   OH250427   1.686   0.425  15.291  0.3193  0.0000 -0.0639
 9671TIP3    H150428   1.731   0.427  15.207  2.6560 -1.1647  1.0690
 9671TIP3    H250429   1.595   0.448  15.270  1.5120  3.5075 -2.3721
 9672TIP3   OH250430   5.359   5.741  13.110  0.0060 -0.2146  0.0296
 9672TIP3    H150431   5.319   5.780  13.032  1.4482  0.2598 -0.5097
 9672TIP3    H250432   5.293   5.752  13.178  0.1687  3.0185 -0.1451
 9673TIP3   OH250433   5.474   6.409   2.709  0.0333  0.5103 -0.0021
 9673TIP3    H150434   5.394   6.461   2.695 -0.7216 -0.7674 -0.6709
 9673TIP3    H250435   5.508   6.394   2.621 -1.0523 -2.0208 -0.0755
 9674TIP3   OH250436   0.400   2.124  14.532 -0.1501 -0.3760  0.4360
 9674TIP3    H150437   0.492   2.121  14.505 -0.2134  0.1795  0.1513
 9674TIP3    H250438   0.362   2.197  14.482  0.0169  1.5276  2.8806
 9675TIP3   OH250439   0.575   0.679  16.579 -0.5329 -0.5068 -0.0776
 9675TIP3    H150440   0.538   0.710  16.662  0.6841 -2.0680  1.1096
 9675TIP3    H250441   0.519   0.605  16.555  0.0040 -1.0025  0.1691
 9676TIP3   OH250442   3.273   2.747   1.777 -0.0140  0.5273  0.3207
 9676TIP3    H150443   3.252   2.707   1.692  0.9700  0.1523  0.2403
 9676TIP3    H250444   3.246   2.838   1.767 -1.4049  0.1234  0.1754
 9677TIP3   OH250445   5.879   1.286   1.178 -0.1525  0.3738  0.0787
 9677TIP3    H150446   5.850   1.221   1.242 -1.0582  1.7053  1.0825
 9677TIP3    H250447   5.806   1.294   1.117 -0.9078  1.8335  1.1057
 9678TIP3   OH250448   0.927   6.406  11.465  0.1733  0.1807 -0.3986
 9678TIP3    H150449   0.943   6.462  11.389  0.4864  0.7059  0.0470
 9678TIP3    H250450   0.839   6.429  11.494  0.1151  0.0942 -0.5077
 9679TIP3   OH250451   0.520   2.204   1.848  0.0892  0.9953 -0.4596
 9679TIP3    H150452   0.552   2.294   1.855  3.7019 -0.2151  1.0502
 9679TIP3    H250453   0.502   2.178   1.938 -3.3302  0.8103 -1.0592
 9680TIP3   OH250454   2.467   4.811  14.042 -0.8748  0.4855 -0.1957
 9680TIP3    H150455   2.425   4.769  13.966 -0.0999  2.4560 -1.8274
 9680TIP3    H250456   2.438   4.903  14.037 -0.8032  0.6661  1.9433
 9681TIP3   OH250457   0.867   5.407   6.004 -0.0390 -0.4015  0.3389
 9681TIP3    H150458   0.840   5.486   6.051 -0.3983 -1.5100  2.1042
 9681TIP3    H250459   0.910   5.353   6.070  2.2191 -0.7920 -1.3147
 9682TIP3   OH250460   4.675   0.563  11.493  0.8853  0.2037  0.1016
 9682TIP3    H150461   4.658   0.588  11.402  0.2317 -2.8160 -0.7177
 9682TIP3    H250462   4.745   0.498  11.487 -0.1962 -1.1700  1.5659
 9683TIP3   OH250463   6.223   2.996   2.621 -0.5117 -0.3002 -0.1170
 9683TIP3    H150464   6.180   2.911   2.610 -0.8983 -0.1661  0.3247
 9683TIP3    H250465   6.180   3.034   2.697  0.7232 -0.3594  0.6274
 9684TIP3   OH250466   3.404   0.313   0.739  0.1722  0.5842 -0.2941
 9684TIP3    H150467   3.390   0.403   0.768 -2.6090  1.3549 -3.3042
 9684TIP3    H250468   3.342   0.262   0.790  1.0916  0.4917  0.7595
 9685TIP3   OH250469   6.648   0.439  15.570  0.1554 -0.4792 -0.0333
 9685TIP3    H150470   6.564   0.485  15.561  0.9271  1.2300  1.1325
 9685TIP3    H250471   6.690   0.480  15.645  1.4282 -2.3116  0.3103
 9686TIP3   OH250472   4.532   2.923   4.146  0.2030  0.1903 -0.5761
 9686TIP3    H150473   4.582   2.848   4.113  1.6128  0.5503  0.6106
 9686TIP3    H250474   4.595   2.996   4.142  0.1994  0.4241  2.0511
 9687TIP3   OH250475   4.615   2.699   0.197 -0.1241 -0.1388  0.0208
 9687TIP3    H150476   4.524   2.702   0.227  0.3434  0.7046  1.4271
 9687TIP3    H250477   4.649   2.787   0.212  1.3826 -0.8571  1.0506
 9688TIP3   OH250478   4.991   2.881   2.421  0.4082  0.3584  0.2510
 9688TIP3    H150479   5.016   2.961   2.375  0.0411  1.0206  1.1617
 9688TIP3    H250480   4.992   2.905   2.514  1.5343 -1.0447  0.6489
 9689TIP3   OH250481   1.725   1.222  12.219  0.2136  0.4502 -0.1630
 9689TIP3    H150482   1.739   1.251  12.129  2.2263 -2.1346 -0.8157
 9689TIP3    H250483   1.739   1.127  12.215 -0.5296  0.1344  2.7334
 9690TIP3   OH250484   1.256   5.308  11.914 -0.0373  0.1872 -0.3338
 9690TIP3    H150485   1.248   5.343  12.003  0.4205  0.2698 -0.3241
 9690TIP3    H250486   1.336   5.348  11.879 -0.8992  1.1502 -1.2455
 9691TIP3   OH250487   0.245   5.713   3.861 -0.4238 -0.0294  0.1904
 9691TIP3    H150488   0.174   5.649   3.873 -0.8048  0.2179 -0.6413
 9691TIP3    H250489   0.203   5.785   3.814  0.2386  0.4078  0.2666
 9692TIP3   OH250490   0.310   6.627  12.445 -0.4298 -0.4962 -0.0910
 9692TIP3    H150491   0.389   6.582  12.417 -1.2194 -1.3404 -1.0317
 9692TIP3    H250492   0.246   6.558  12.461 -0.2596 -0.0520  3.3134
 9693TIP3   OH250493   5.210   2.955   0.264 -0.0524 -0.2747 -0.3709
 9693TIP3    H150494   5.293   2.931   0.307 -0.2168  0.1178  0.1887
 9693TIP3    H250495   5.144   2.938   0.331 -0.3093  0.4109 -0.4423
 9694TIP3   OH250496   4.989   2.964   3.668  0.2341 -0.7704  0.2085
 9694TIP3    H150497   4.971   2.874   3.640  0.6552 -0.2973 -1.7533
 9694TIP3    H250498   5.080   2.979   3.640  0.2896  0.1524  0.8646
 9695TIP3   OH250499   6.081   6.700   4.111 -0.1184  0.3185 -0.6247
 9695TIP3    H150500   6.014   6.729   4.173  1.2132 -0.9572  1.5031
 9695TIP3    H250501   6.136   6.777   4.096 -0.8127  0.7988 -0.7502
 9696TIP3   OH250502   4.597   1.901   3.866  0.1589  0.3726 -0.3939
 9696TIP3    H150503   4.652   1.900   3.787  0.6422  0.6559 -0.0707
 9696TIP3    H250504   4.652   1.862   3.933 -0.1947  0.2776 -0.1625
 9697TIP3   OH250505   2.606   2.897  16.478 -0.4103 -0.0249  0.2359
 9697TIP3    H150506   2.527   2.949  16.491 -0.6971 -0.5527  0.6405
 9697TIP3    H250507   2.647   2.894  16.565  0.1907  0.4619 -0.0252
 9698TIP3   OH250508   5.501   6.254  13.170 -0.1531  0.3169  0.1200
 9698TIP3    H150509   5.553   6.175  13.187  0.0099  0.2332 -0.7010
 9698TIP3    H250510   5.564   6.318  13.137 -0.4049  0.5509  0.0891
 9699TIP3   OH250511   6.283   5.515   2.429 -0.2741 -0.0042 -0.2347
 9699TIP3    H150512   6.222   5.580   2.465  0.4307 -0.0814  1.1585
 9699TIP3    H250513   6.328   5.479   2.505 -0.8634 -2.3868 -0.9299
 9700TIP3   OH250514   2.361   4.956  11.366 -0.6489 -0.4828  0.6453
 9700TIP3    H150515   2.335   4.864  11.356  0.2417 -0.6305 -0.6698
 9700TIP3    H250516   2.387   4.983  11.278 -2.8803  1.6989  0.5294
 9701TIP3   OH250517   2.129   0.244  15.503 -0.0260  0.3575 -0.3224
 9701TIP3    H150518   2.042   0.206  15.490  0.1405 -0.3095  0.4195
 9701TIP3    H250519   2.180   0.215  15.427 -1.0492  2.7023 -2.0259
 9702TIP3   OH250520   6.110   5.924   5.397 -0.5361  0.4244  0.1340
 9702TIP3    H150521   6.174   5.927   5.468  0.2744 -0.7454 -0.5251
 9702TIP3    H250522   6.061   6.006   5.406  0.1496  0.7154  1.4743
 9703TIP3   OH250523   5.685   3.960   1.384  0.4133  0.0471 -0.9556
 9703TIP3    H150524   5.608   3.940   1.438  0.4503 -0.3819 -1.0583
 9703TIP3    H250525   5.648   3.990   1.300  0.3569  0.4914 -0.7722
 9704TIP3   OH250526   4.706   2.233  15.942 -0.1308  0.0490  0.4768
 9704TIP3    H150527   4.732   2.142  15.931 -4.4650 -1.4866  0.9302
 9704TIP3    H250528   4.660   2.255  15.860 -0.8231  1.1240  1.1236
 9705TIP3   OH250529   2.523   5.332   4.952 -0.6039 -0.0090  0.0015
 9705TIP3    H150530   2.564   5.250   4.925 -0.0455 -0.6860  2.6726
 9705TIP3    H250531   2.435   5.328   4.913 -0.2016 -1.3244 -0.8342
 9706TIP3   OH250532   0.911   1.731   4.121 -0.0448  0.3259  0.1933
 9706TIP3    H150533   0.987   1.691   4.163 -0.8652  1.0645  2.5202
 9706TIP3    H250534   0.836   1.687   4.161 -0.8926  0.1308 -1.5156
 9707TIP3   OH250535   0.138   3.140   4.256  0.5384 -0.2354 -0.6372
 9707TIP3    H150536   0.064   3.121   4.199  0.5831 -0.1442 -0.7267
 9707TIP3    H250537   0.168   3.055   4.286 -0.1846 -0.2258  0.1432
 9708TIP3   OH250538   1.545   4.068   2.708  0.5118  0.4003  0.3059
 9708TIP3    H150539   1.470   4.096   2.761 -0.7683  0.1180 -1.2734
 9708TIP3    H250540   1.586   4.150   2.680  0.5106  0.5610  0.7560
 9709TIP3   OH250541   1.157   1.325  14.437  0.5442  0.2731  0.1740
 9709TIP3    H150542   1.070   1.288  14.421  0.1908  0.9691  0.4599
 9709TIP3    H250543   1.217   1.260  14.400 -0.0504 -0.7218  0.8844
 9710TIP3   OH250544   2.704   6.185   5.746 -0.5835  0.0014 -0.1074
 9710TIP3    H150545   2.743   6.266   5.713 -2.0264  0.7435 -0.0729
 9710TIP3    H250546   2.704   6.195   5.841 -0.7645 -0.0296 -0.1026
 9711TIP3   OH250547   1.955   0.642  15.882  0.8176 -0.0589  0.1762
 9711TIP3    H150548   1.968   0.646  15.787 -0.2015  0.7553  0.0618
 9711TIP3    H250549   1.989   0.725  15.915 -0.6561  0.5344  0.2757
 9712TIP3   OH250550   0.225   0.632   4.718 -0.2864 -0.2004 -0.0252
 9712TIP3    H150551   0.233   0.600   4.808  0.7831  0.7748  0.2396
 9712TIP3    H250552   0.151   0.694   4.721  0.7790  1.0832  0.5742
 9713TIP3   OH250553   3.671   5.369   1.814  0.2062 -0.4778  0.0161
 9713TIP3    H150554   3.696   5.277   1.824 -2.9133 -1.2056  2.4215
 9713TIP3    H250555   3.748   5.418   1.844  0.9301 -2.3479  1.3914
 9714TIP3   OH250556   5.143   2.145  12.658 -0.4205  0.4434 -0.5620
 9714TIP3    H150557   5.083   2.087  12.610 -1.2986  1.4672 -0.7431
 9714TIP3    H250558   5.162   2.216  12.596 -0.3149  0.9658  0.0639
 9715TIP3   OH250559   4.050   6.236  10.519 -0.2142  0.1480 -0.5442
 9715TIP3    H150560   4.000   6.168  10.565  1.7752  0.2430  1.9582
 9715TIP3    H250561   3.989   6.310  10.512 -0.8368 -0.1542  1.3210
 9716TIP3   OH250562   3.406   2.094   4.055  0.0910 -0.1788 -0.0269
 9716TIP3    H150563   3.335   2.120   4.114  0.7347 -1.7416  1.5407
 9716TIP3    H250564   3.429   2.006   4.084  1.8594 -0.1741 -1.2934
 9717TIP3   OH250565   2.382   0.031  12.845 -0.3184  0.4083 -0.2395
 9717TIP3    H150566   2.344   0.053  12.930  0.2969 -0.8258  0.3765
 9717TIP3    H250567   2.306   0.009  12.790 -0.8752  2.8680 -0.5765
 9718TIP3   OH250568   6.083   6.282  10.816 -0.3590 -0.9306  0.1563
 9718TIP3    H150569   6.121   6.344  10.754 -0.1484 -2.3514 -1.2059
 9718TIP3    H250570   6.134   6.294  10.896 -0.4061  0.7000 -0.0286
 9719TIP3   OH250571   1.475   2.344   0.080  0.5639  0.3342 -0.0862
 9719TIP3    H150572   1.387   2.306   0.074  0.4701  0.3587  1.0441
 9719TIP3    H250573   1.470   2.405   0.154  1.4889  0.4645 -0.1271
 9720TIP3   OH250574   1.003   0.080   1.004  0.5545 -0.4637 -0.1308
 9720TIP3    H150575   0.996   0.021   1.080 -0.2188  0.9408  0.9346
 9720TIP3    H250576   0.926   0.136   1.011  0.4231 -0.3640 -2.0475
 9721TIP3   OH250577   6.406   0.043  13.611 -0.1352 -0.0117 -0.3520
 9721TIP3    H150578   6.489   0.018  13.650 -0.2485 -2.7091 -1.6462
 9721TIP3    H250579   6.341   0.027  13.680  0.1282 -0.5758 -0.2303
 9722TIP3   OH250580   3.501   2.432  13.072 -0.0585  0.7261  0.1272
 9722TIP3    H150581   3.553   2.458  12.997  1.1813  1.0529  1.0735
 9722TIP3    H250582   3.560   2.378  13.125 -0.8089  0.7410  1.0105
 9723TIP3   OH250583   4.579   3.894  14.566  0.2734 -0.6297  0.2565
 9723TIP3    H150584   4.672   3.896  14.541  0.2425 -1.4139  0.0839
 9723TIP3    H250585   4.532   3.913  14.485  0.3152  1.6526  0.6906
 9724TIP3   OH250586   1.661   5.487  12.498  0.0768 -0.1806  0.6122
 9724TIP3    H150587   1.715   5.469  12.420  1.1190  1.8956  0.7998
 9724TIP3    H250588   1.640   5.580  12.492 -0.7498 -0.2227  2.2679
 9725TIP3   OH250589   5.395   0.592   1.105 -0.4212 -0.1961 -0.5345
 9725TIP3    H150590   5.416   0.625   1.018  0.7307  2.5046  0.6502
 9725TIP3    H250591   5.481   0.576   1.146 -0.9428 -1.7187  0.0524
 9726TIP3   OH250592   5.255   3.067  16.066 -0.3189  0.1792 -0.1057
 9726TIP3    H150593   5.278   3.055  15.974 -0.4587  2.8771 -0.5581
 9726TIP3    H250594   5.164   3.096  16.065  0.2534  2.1451  0.6960
 9727TIP3   OH250595   5.990   6.104   1.156 -0.6669  0.3228  0.8680
 9727TIP3    H150596   5.923   6.048   1.116  0.6632 -1.0118  0.4001
 9727TIP3    H250597   6.073   6.065   1.127  0.3184  2.1598  1.0888
 9728TIP3   OH250598   0.208   3.264  15.452 -0.4218  0.9883  0.1355
 9728TIP3    H150599   0.286   3.321  15.453 -0.4776  1.1679 -1.7522
 9728TIP3    H250600   0.137   3.321  15.480  0.2302  0.4958  3.2068
 9729TIP3   OH250601   0.846   3.368  12.560 -0.1702  0.0272  0.4922
 9729TIP3    H150602   0.894   3.361  12.477  0.8313 -1.2771  1.1541
 9729TIP3    H250603   0.818   3.460  12.563 -2.2902 -0.3834 -2.3795
 9730TIP3   OH250604   1.819   5.000   1.546 -0.2774  0.8466  0.4113
 9730TIP3    H150605   1.911   5.014   1.527 -0.3741  1.9090  0.6990
 9730TIP3    H250606   1.817   4.923   1.603  0.2722 -0.3074 -1.0530
 9731TIP3   OH250607   5.616   0.927  12.313  0.5261 -0.3779  0.0245
 9731TIP3    H150608   5.676   0.932  12.238  1.3970 -0.3187  0.7061
 9731TIP3    H250609   5.669   0.891  12.384 -0.2109 -0.1769  0.6947
 9732TIP3   OH250610   3.044   3.971   1.790  0.0914  0.0302  0.5071
 9732TIP3    H150611   2.950   3.967   1.773  0.2436 -0.1793 -0.3202
 9732TIP3    H250612   3.083   3.923   1.718  0.8853  0.8689  0.3659
 9733TIP3   OH250613   6.213   2.099   4.435 -0.4033 -0.3899 -0.1190
 9733TIP3    H150614   6.241   2.009   4.453 -1.6082 -0.8836 -0.6131
 9733TIP3    H250615   6.282   2.134   4.379 -0.2563 -1.2331 -0.4876
 9734TIP3   OH250616   5.338   3.513   0.473  0.0754 -0.3482  0.3657
 9734TIP3    H150617   5.295   3.430   0.454  0.5109 -0.1683 -1.5633
 9734TIP3    H250618   5.428   3.501   0.442  0.3633  0.5879  0.7939
 9735TIP3   OH250619   6.711   2.613   0.371 -1.0653  0.2434  0.1320
 9735TIP3    H150620   6.686   2.605   0.279 -0.1924  0.2704 -0.1191
 9735TIP3    H250621   6.659   2.547   0.416 -2.2679  0.9223 -0.2129
 9736TIP3   OH250622   5.946   1.968   3.844  0.0781  0.2125 -0.4519
 9736TIP3    H150623   6.008   2.028   3.886  0.7455 -1.4525  1.0726
 9736TIP3    H250624   5.861   1.993   3.879  0.2650  0.6334 -0.2905
 9737TIP3   OH250625   0.267   6.308  11.570  0.2938 -0.0052  0.6054
 9737TIP3    H150626   0.282   6.355  11.487 -0.5949 -0.5210  0.1388
 9737TIP3    H250627   0.173   6.316  11.586  0.5522  0.6226  1.9067
 9738TIP3   OH250628   0.114   6.196   6.078 -0.1434 -0.1289 -0.2802
 9738TIP3    H150629   0.166   6.239   6.145  0.6037 -0.6134 -0.5316
 9738TIP3    H250630   0.141   6.104   6.082 -0.1262 -0.1717 -1.2025
 9739TIP3   OH250631   5.904   5.371  14.586 -0.2278 -0.6928 -0.4478
 9739TIP3    H150632   5.886   5.381  14.493 -1.1354  0.2648 -0.1992
 9739TIP3    H250633   5.971   5.437  14.605 -2.1459  1.2303  0.0989
 9740TIP3   OH250634   1.137   5.742   0.211  0.1333 -0.1001  0.1803
 9740TIP3    H150635   1.197   5.793   0.265  1.6520 -0.2866 -1.2601
 9740TIP3    H250636   1.143   5.653   0.245 -0.5181  0.1553  1.0061
 9741TIP3   OH250637   3.380   0.693   1.860 -0.5461  0.3009 -0.1434
 9741TIP3    H150638   3.402   0.719   1.949  0.8039 -3.6558  0.8886
 9741TIP3    H250639   3.428   0.754   1.804  0.0169  1.7618  1.8582
 9742TIP3   OH250640   0.067   2.259   2.601  0.3109 -0.2238  0.3366
 9742TIP3    H150641   0.079   2.165   2.592  0.1776 -0.3027  0.9609
 9742TIP3    H250642  -0.002   2.281   2.538 -0.7402 -0.7949  1.2567
 9743TIP3   OH250643   2.487   4.184   5.188 -0.7523  0.1022  0.4856
 9743TIP3    H150644   2.494   4.121   5.260 -2.1480 -0.0606  0.4972
 9743TIP3    H250645   2.486   4.131   5.109  0.3288  0.2580  0.3450
 9744TIP3   OH250646   2.403   4.331  10.942  0.1204 -0.1074  0.3791
 9744TIP3    H150647   2.419   4.424  10.925  0.2754 -0.2610 -0.3740
 9744TIP3    H250648   2.491   4.293  10.954  0.1385 -0.3372 -0.3771
 9745TIP3   OH250649   4.916   4.342  13.212  0.7653 -0.7254  0.1429
 9745TIP3    H150650   4.971   4.365  13.137  0.1267  0.4272  0.0155
 9745TIP3    H250651   4.929   4.248  13.222  2.5602 -0.5469 -0.0424
 9746TIP3   OH250652   3.131   1.541  17.076 -0.2898 -1.1904  0.5043
 9746TIP3    H150653   3.141   1.454  17.113 -0.0585 -1.8299 -0.9869
 9746TIP3    H250654   3.216   1.583  17.087  0.3426 -2.0374 -0.8771
 9747TIP3   OH250655   0.204   3.896   0.449 -0.4328  0.2218 -0.0183
 9747TIP3    H150656   0.294   3.926   0.444 -0.0677 -1.0137 -1.7930
 9747TIP3    H250657   0.157   3.949   0.385 -0.6771  0.0110 -0.0169
 9748TIP3   OH250658   5.270   2.736   2.466  0.4677  0.2803 -1.0026
 9748TIP3    H150659   5.264   2.794   2.542 -0.7731  0.1160 -0.9524
 9748TIP3    H250660   5.191   2.756   2.415  1.6913  1.0293 -2.7267
 9749TIP3   OH250661   2.620   3.412  10.782 -0.3204 -0.0681 -0.6932
 9749TIP3    H150662   2.628   3.502  10.750  0.9729  0.4213  0.8887
 9749TIP3    H250663   2.705   3.393  10.821 -1.8354 -0.4177  2.8531
 9750TIP3   OH250664   5.009   1.515   0.172 -0.2584 -0.1342  0.2842
 9750TIP3    H150665   4.982   1.540   0.083  2.2320 -0.9557 -0.8031
 9750TIP3    H250666   5.024   1.599   0.217  0.5784  0.3331 -0.8107
 9751TIP3   OH250667   3.701   0.226   4.606 -0.3121 -0.4354 -0.0124
 9751TIP3    H150668   3.683   0.151   4.550 -0.3761 -0.1112 -0.4257
 9751TIP3    H250669   3.645   0.296   4.573 -0.8231 -0.4212  0.8530
 9752TIP3   OH250670   5.767   1.919   3.105  0.0366  0.0923  0.1593
 9752TIP3    H150671   5.800   1.856   3.040 -2.0120  0.2120 -1.0847
 9752TIP3    H250672   5.754   1.867   3.184  1.2438 -0.3712  0.0778
 9753TIP3   OH250673   4.650   3.878   5.082 -0.3573  0.1839  0.4921
 9753TIP3    H150674   4.620   3.863   4.992 -0.7057  1.3583  0.3923
 9753TIP3    H250675   4.717   3.811   5.096  0.1127  0.3391 -0.8370
 9754TIP3   OH250676   6.198   1.083   4.177  0.6723 -0.2620 -0.5577
 9754TIP3    H150677   6.193   1.100   4.271  0.6871  1.1991 -0.7977
 9754TIP3    H250678   6.130   1.017   4.161  1.3317 -1.2867  0.6085
 9755TIP3   OH250679   6.732   0.751  12.810  0.1143  0.0060 -0.0112
 9755TIP3    H150680   6.782   0.824  12.773  0.9843  0.5618  2.1114
 9755TIP3    H250681   6.798   0.693  12.847 -0.5965 -1.6755 -1.2362
 9756TIP3   OH250682   5.036   2.342   3.170 -0.2292 -0.5787 -0.6647
 9756TIP3    H150683   5.110   2.402   3.170 -1.1694  0.6232 -0.9236
 9756TIP3    H250684   4.965   2.391   3.211 -0.3815 -2.3915  1.4190
 9757TIP3   OH250685   2.195   0.083  16.349  0.5159  0.3390 -0.1193
 9757TIP3    H150686   2.235   0.091  16.262  1.0193  1.4906  0.1981
 9757TIP3    H250687   2.122   0.024  16.336  1.5949 -0.8592 -0.9771
 9758TIP3   OH250688   3.083   3.632  14.042 -0.0894  0.0019  0.2267
 9758TIP3    H150689   3.136   3.615  14.119  2.0270  0.8753 -0.9389
 9758TIP3    H250690   3.145   3.631  13.969 -1.6408  1.2489 -1.2165
 9759TIP3   OH250691   5.145   5.696  14.200 -0.4859 -0.0766  0.3643
 9759TIP3    H150692   5.236   5.694  14.231 -1.0735 -0.5609  2.1646
 9759TIP3    H250693   5.118   5.605  14.199 -0.8021  0.0243 -0.6663
 9760TIP3   OH250694   1.354   4.867  13.552 -0.2650  0.5470 -0.5984
 9760TIP3    H150695   1.304   4.826  13.623 -0.8177 -0.3311 -1.4602
 9760TIP3    H250696   1.355   4.960  13.574  1.2261  0.1149  1.5632
 9761TIP3   OH250697   4.954   4.961  15.072 -0.0451  0.0102 -1.2001
 9761TIP3    H150698   4.989   5.028  15.132 -1.1499  0.8257 -1.4368
 9761TIP3    H250699   4.861   4.983  15.064 -1.0177 -2.9315  0.5510
 9762TIP3   OH250700   5.256   1.295  15.553  0.4745  0.3401 -0.8731
 9762TIP3    H150701   5.317   1.259  15.487  0.7304 -1.2552  0.1773
 9762TIP3    H250702   5.176   1.313  15.504  0.2477 -1.9667 -1.4436
 9763TIP3   OH250703   3.932   4.025  15.235 -0.0809  0.0692  0.3849
 9763TIP3    H150704   4.014   4.035  15.187 -0.6414 -0.5291 -0.7350
 9763TIP3    H250705   3.863   4.036  15.169 -0.8612 -1.5316  0.8546
 9764TIP3   OH250706   2.507   6.732  16.420  0.6217  0.0460  0.1739
 9764TIP3    H150707   2.464   6.702  16.341  1.5047 -0.0390 -0.2947
 9764TIP3    H250708   2.450   6.704  16.492  0.0491 -0.2877 -0.4088
 9765TIP3   OH250709   3.130   5.397   4.711 -0.1267  0.3844  0.7958
 9765TIP3    H150710   3.037   5.374   4.708 -0.4192  1.5752 -1.1049
 9765TIP3    H250711   3.176   5.313   4.709 -1.1504 -0.1931  0.8610
 9766TIP3   OH250712   6.736   1.458  11.201  0.0472  0.6261  0.1635
 9766TIP3    H150713   6.676   1.468  11.127  1.3054  2.0449 -0.7229
 9766TIP3    H250714   6.712   1.528  11.261 -0.1771  0.2363  0.5302
 9767TIP3   OH250715   1.339   3.892   5.141 -0.0907 -0.0650 -0.0998
 9767TIP3    H150716   1.417   3.946   5.130  0.0239 -0.3315 -0.6601
 9767TIP3    H250717   1.352   3.847   5.224 -0.0130  0.4845  0.1856
 9768TIP3   OH250718   4.632   6.128   3.399  0.6771  0.2226 -0.4509
 9768TIP3    H150719   4.629   6.033   3.409  2.0682  0.0221 -1.6287
 9768TIP3    H250720   4.722   6.152   3.422  1.2430  0.8313 -2.9401
 9769TIP3   OH250721   0.249   5.880  12.428  0.0718  0.4528  0.1876
 9769TIP3    H150722   0.200   5.955  12.395  0.6994  2.1735  2.8315
 9769TIP3    H250723   0.300   5.915  12.501  1.1969 -2.3703  0.8946
 9770TIP3   OH250724   0.133   4.070   5.984  0.3433  0.2304  0.2035
 9770TIP3    H150725   0.199   4.011   5.947  0.8751  0.1601  1.2359
 9770TIP3    H250726   0.139   4.149   5.931 -0.4098 -0.6220 -1.2296
 9771TIP3   OH250727   1.097   0.605   3.764 -0.0686 -0.2846  0.4139
 9771TIP3    H150728   1.045   0.638   3.838  0.1905 -1.6509  1.2460
 9771TIP3    H250729   1.185   0.595   3.800  0.1599 -0.5436 -0.2124
 9772TIP3   OH250730   5.924   1.978  16.681  0.2069  0.4581 -0.0000
 9772TIP3    H150731   6.014   1.947  16.667  1.0622  2.7602  0.0362
 9772TIP3    H250732   5.882   1.966  16.596 -0.5341 -3.5322  0.6969
 9773TIP3   OH250733   6.244   6.521   1.505 -0.4364  0.3543 -0.6926
 9773TIP3    H150734   6.308   6.530   1.576  0.8764 -0.8488 -1.6750
 9773TIP3    H250735   6.288   6.559   1.429 -1.8631  1.7084 -0.8890
 9774TIP3   OH250736   3.310   1.376   5.994  0.2929  0.4922 -0.8554
 9774TIP3    H150737   3.281   1.350   6.081 -0.1609  1.5689 -0.6741
 9774TIP3    H250738   3.265   1.316   5.934 -0.1160  0.3499 -0.4093
 9775TIP3   OH250739   4.752   0.550  14.096 -0.5782  0.4456 -0.4119
 9775TIP3    H150740   4.699   0.517  14.023  0.0806 -0.9037 -0.2987
 9775TIP3    H250741   4.752   0.479  14.160 -1.1895  1.6332  0.9493
 9776TIP3   OH250742   5.302   6.228  16.397  0.2729 -0.2655 -0.6030
 9776TIP3    H150743   5.368   6.237  16.467 -0.1740 -2.3494  0.1568
 9776TIP3    H250744   5.255   6.311  16.398  2.3989  1.0282 -0.6956
 9777TIP3   OH250745   4.826   5.779  13.068 -0.3526  0.2454 -0.7753
 9777TIP3    H150746   4.773   5.749  12.994 -1.0238  0.1965 -0.2774
 9777TIP3    H250747   4.862   5.863  13.038  0.9528 -0.6718 -1.8910
 9778TIP3   OH250748   3.586   5.791   0.298  0.5470  0.0865 -0.2837
 9778TIP3    H150749   3.500   5.794   0.341 -0.6993  1.3727 -2.6693
 9778TIP3    H250750   3.647   5.765   0.368 -1.7297 -0.7610  1.5139
 9779TIP3   OH250751   5.376   1.715   3.167  0.0497  0.3839  0.0255
 9779TIP3    H150752   5.385   1.810   3.168  0.2449  0.5033 -3.0001
 9779TIP3    H250753   5.435   1.685   3.237 -0.6561  2.4490  1.6208
 9780TIP3   OH250754   6.262   4.522  12.255 -0.6233  0.6103 -0.3652
 9780TIP3    H150755   6.246   4.427  12.257 -1.3596  0.7237 -0.7049
 9780TIP3    H250756   6.175   4.561  12.257 -0.3078  1.3128  1.0236
 9781TIP3   OH250757   2.372   5.029  16.984  0.5676 -0.0114  0.4982
 9781TIP3    H150758   2.330   5.013  16.900  1.9990 -1.9531  0.0709
 9781TIP3    H250759   2.431   5.103  16.968 -0.8413  1.1450  0.4642
 9782TIP3   OH250760   3.969   3.530   3.592  0.1359  0.5575 -0.3874
 9782TIP3    H150761   4.024   3.462   3.632  0.6610  1.8165  1.1178
 9782TIP3    H250762   4.013   3.551   3.510  0.0573 -0.7821 -0.8010
 9783TIP3   OH250763   5.736   0.909  16.292 -0.0437 -0.3770 -0.0626
 9783TIP3    H150764   5.805   0.935  16.353 -0.0917  0.1200 -0.2132
 9783TIP3    H250765   5.765   0.942  16.207 -1.6347  2.2039  0.2597
 9784TIP3   OH250766   3.237   3.246  12.403 -0.0984  0.1191  0.1305
 9784TIP3    H150767   3.273   3.290  12.480 -0.1631 -1.1293  0.9121
 9784TIP3    H250768   3.298   3.266  12.333  0.0295  1.1863  0.5292
 9785TIP3   OH250769   5.220   1.023  12.152 -0.0998  0.0222 -0.1394
 9785TIP3    H150770   5.174   1.029  12.235  0.1168 -0.8564  0.0502
 9785TIP3    H250771   5.303   0.979  12.172 -0.6833 -1.5792 -1.0464
 9786TIP3   OH250772   0.005   0.159  11.061 -0.2623 -0.4261  0.0397
 9786TIP3    H150773  -0.070   0.099  11.066  0.2113 -1.0968 -0.6625
 9786TIP3    H250774   0.065   0.117  11.000 -0.6391  1.5781 -1.8156
 9787TIP3   OH250775   5.314   5.893  15.426 -0.1579 -0.3834  0.3289
 9787TIP3    H150776   5.389   5.952  15.424 -0.6429  0.2893  0.9772
 9787TIP3    H250777   5.242   5.945  15.389 -0.1737 -1.2187 -0.8271
 9788TIP3   OH250778   5.064   5.124   3.452 -0.0007  0.2339 -0.4612
 9788TIP3    H150779   5.097   5.067   3.382  0.1165  0.0602 -0.2635
 9788TIP3    H250780   4.996   5.073   3.495  1.4852 -0.5715  1.0311
 9789TIP3   OH250781   6.258   3.251   6.720  0.3683 -0.0752 -0.2281
 9789TIP3    H150782   6.198   3.324   6.730  0.6906  0.3234 -1.0686
 9789TIP3    H250783   6.340   3.281   6.759  0.2438 -0.3296  0.2331
 9790TIP3   OH250784   1.408   6.110  11.338  0.0394  0.4763 -0.7857
 9790TIP3    H150785   1.348   6.073  11.403 -1.1178 -0.2405 -2.2280
 9790TIP3    H250786   1.486   6.055  11.344 -0.1497  0.2592 -0.1808
 9791TIP3   OH250787   3.215   1.990  14.415 -0.1214  0.0662  0.0704
 9791TIP3    H150788   3.193   1.948  14.498  0.9027 -0.3575  0.1420
 9791TIP3    H250789   3.302   1.957  14.394 -0.7447 -0.6314 -1.6836
 9792TIP3   OH250790   2.335   4.197  16.233 -0.7657  0.1889 -0.2580
 9792TIP3    H150791   2.272   4.130  16.207 -1.0310  0.2573  0.2069
 9792TIP3    H250792   2.411   4.149  16.264 -1.1017  0.0957  0.4366
 9793TIP3   OH250793   2.370   6.456   3.875  0.4516 -1.1406  0.0919
 9793TIP3    H150794   2.318   6.501   3.808  2.2532  0.7966 -0.0978
 9793TIP3    H250795   2.460   6.483   3.857  1.2863 -2.6685  1.7343
 9794TIP3   OH250796   1.534   4.057   1.798  0.3107  0.3483  0.1513
 9794TIP3    H150797   1.607   4.119   1.787  0.6452  0.1089  0.9316
 9794TIP3    H250798   1.508   4.067   1.890  1.2157 -1.5572  0.6691
 9795TIP3   OH250799   5.532   1.420  13.347 -0.4306  0.0171  0.2779
 9795TIP3    H150800   5.592   1.346  13.346 -1.6345 -0.9933 -0.3534
 9795TIP3    H250801   5.588   1.497  13.336  0.6332 -0.9778 -1.9754
 9796TIP3   OH250802   4.340   1.132  13.457 -0.1829 -0.0565  0.2398
 9796TIP3    H150803   4.270   1.155  13.396 -0.0322  1.2008  0.5120
 9796TIP3    H250804   4.415   1.111  13.402 -0.1424  0.7500 -0.0357
 9797TIP3   OH250805   4.943   1.521   2.306  0.3478 -0.8500  0.3818
 9797TIP3    H150806   5.032   1.547   2.281  0.4875 -1.0652  0.6533
 9797TIP3    H250807   4.911   1.594   2.360  0.8218 -1.3235  1.3268
 9798TIP3   OH250808   4.791   4.253  12.900  0.4906 -0.0353 -0.0185
 9798TIP3    H150809   4.869   4.306  12.917 -0.2910  0.9941  0.3996
 9798TIP3    H250810   4.727   4.282  12.966 -0.4048 -0.5443 -0.6481
 9799TIP3   OH250811   0.707   5.313   3.322  0.0978  0.0758 -0.0363
 9799TIP3    H150812   0.638   5.335   3.384  0.1013  1.0228 -0.3555
 9799TIP3    H250813   0.667   5.324   3.236  0.6591  0.7302 -0.2275
 9800TIP3   OH250814   6.475   4.109   5.245  0.4475 -0.2194 -1.2873
 9800TIP3    H150815   6.499   4.031   5.295 -0.1310  0.1336 -0.4435
 9800TIP3    H250816   6.513   4.182   5.293  0.4236  0.0813 -1.7101
 9801TIP3   OH250817   4.183   4.352   2.457  0.0536 -0.2589 -0.1956
 9801TIP3    H150818   4.136   4.285   2.506 -0.0002 -0.7944 -0.9577
 9801TIP3    H250819   4.116   4.392   2.401 -0.3160  1.7232  1.5522
 9802TIP3   OH250820   3.487   5.669  11.058 -0.4822 -0.0090 -0.1489
 9802TIP3    H150821   3.442   5.705  10.982  0.5709  0.4305 -0.5913
 9802TIP3    H250822   3.431   5.690  11.132 -2.1328 -1.5064 -0.9128
 9803TIP3   OH250823   0.276   6.630  14.839 -0.6202  0.6606 -0.0532
 9803TIP3    H150824   0.263   6.609  14.746 -2.9777  1.6034 -0.0139
 9803TIP3    H250825   0.220   6.706  14.855 -1.0020 -0.0171  2.3304
 9804TIP3   OH250826   6.000   0.607  12.012 -0.0362 -0.0056  0.4422
 9804TIP3    H150827   5.952   0.654  12.080 -3.7877 -2.4958 -0.1912
 9804TIP3    H250828   6.089   0.643  12.016 -1.3765  3.6150  3.0745
 9805TIP3   OH250829   4.580   1.262   4.982  0.3012 -0.2870 -0.0811
 9805TIP3    H150830   4.604   1.175   5.015 -0.2546 -0.2076  0.5431
 9805TIP3    H250831   4.634   1.323   5.031 -1.7147 -0.0332  2.0031
 9806TIP3   OH250832   1.096   5.893   5.182  0.0634  0.3134 -0.0845
 9806TIP3    H150833   1.171   5.834   5.185 -0.5237 -0.5865 -1.9681
 9806TIP3    H250834   1.095   5.926   5.093 -1.1807  1.1292  0.2102
 9807TIP3   OH250835   2.228   5.450  17.102 -0.3130  0.1017  0.5291
 9807TIP3    H150836   2.242   5.361  17.134  0.0186  0.4110  1.2621
 9807TIP3    H250837   2.315   5.489  17.101 -0.5161  0.5622  0.6614
 9808TIP3   OH250838   6.729   2.364  12.124 -0.0027  0.0316  0.1968
 9808TIP3    H150839   6.791   2.328  12.059  1.5243  1.5202  0.7542
 9808TIP3    H250840   6.682   2.432  12.076 -0.2728 -0.2056  0.1262
 9809TIP3   OH250841   6.329   6.711   4.832  0.0541 -0.1508 -0.2350
 9809TIP3    H150842   6.283   6.629   4.851  0.1133 -0.2030 -0.3136
 9809TIP3    H250843   6.414   6.683   4.800 -0.0371 -0.0624 -0.5536
 9810TIP3   OH250844   4.715   5.418  16.151 -0.1782  0.1751  0.2658
 9810TIP3    H150845   4.622   5.426  16.130  0.1506  1.1277 -0.9720
 9810TIP3    H250846   4.745   5.341  16.103 -0.5922 -0.9905  1.7940
 9811TIP3   OH250847   0.147   0.985  13.828 -0.0886  0.0675 -0.0596
 9811TIP3    H150848   0.074   0.925  13.813  1.1076 -1.6305  0.6276
 9811TIP3    H250849   0.171   0.972  13.920 -0.1906  2.0980  0.3077
 9812TIP3   OH250850   2.930   0.159  16.472  0.1221  0.3486  0.0376
 9812TIP3    H150851   2.933   0.249  16.439 -1.8914  0.6233  0.4818
 9812TIP3    H250852   2.894   0.167  16.560  2.8266 -0.6588  1.3522
 9813TIP3   OH250853   5.534   4.255   3.663 -0.1849 -0.4078 -0.8756
 9813TIP3    H150854   5.536   4.188   3.730  2.8232  1.2635  0.9136
 9813TIP3    H250855   5.461   4.312   3.687  2.0674  1.3857  2.5053
 9814TIP3   OH250856   6.427   3.350   2.457  0.3028  0.6385 -0.3116
 9814TIP3    H150857   6.395   3.407   2.387  0.2544  1.3994  0.3129
 9814TIP3    H250858   6.368   3.367   2.530  0.1126 -0.4415 -0.2056
 9815TIP3   OH250859   6.488   1.338  13.959 -0.2879 -0.4481 -0.0234
 9815TIP3    H150860   6.403   1.325  14.001 -0.0133 -2.5894 -0.0207
 9815TIP3    H250861   6.467   1.361  13.868 -0.8821 -0.8612  0.0052
 9816TIP3   OH250862   1.491   6.567   2.436 -0.0285  0.2217  0.3186
 9816TIP3    H150863   1.453   6.481   2.457 -0.7155  0.6244  0.7717
 9816TIP3    H250864   1.578   6.565   2.475 -0.5381  0.2131  1.5074
 9817TIP3   OH250865   6.523   1.348   0.586  0.2924 -0.2387 -0.1235
 9817TIP3    H150866   6.455   1.365   0.521 -0.7446 -0.5834  0.8416
 9817TIP3    H250867   6.598   1.318   0.535 -0.1775  0.4202 -1.2314
 9818TIP3   OH250868   6.113   5.609   5.965  0.2339  0.1644  0.0268
 9818TIP3    H150869   6.160   5.582   6.044  1.8318  1.3938 -0.4473
 9818TIP3    H250870   6.149   5.696   5.945 -2.6968  1.4946 -0.0298
 9819TIP3   OH250871   2.463   4.862   3.571  0.4052  0.4115  0.3159
 9819TIP3    H150872   2.420   4.777   3.584  1.0549  0.2718  1.7071
 9819TIP3    H250873   2.487   4.891   3.659  2.5945  0.7646 -0.3324
 9820TIP3   OH250874   0.831   1.498   3.457  0.0284 -0.0660  0.0799
 9820TIP3    H150875   0.858   1.407   3.441 -0.8035 -0.3874  0.4151
 9820TIP3    H250876   0.913   1.548   3.459  0.4076 -0.5892 -1.4547
 9821TIP3   OH250877   6.526   5.646  16.970 -0.0454 -0.3105  0.4736
 9821TIP3    H150878   6.569   5.573  17.013 -0.6299 -1.5785 -0.9854
 9821TIP3    H250879   6.432   5.627  16.978 -0.1925 -0.0142 -0.3859
 9822TIP3   OH250880   4.138   5.207  15.798  0.1023 -0.3734 -0.0560
 9822TIP3    H150881   4.055   5.253  15.816 -0.4498 -1.8870  1.6002
 9822TIP3    H250882   4.206   5.267  15.827 -0.4710  0.4485 -0.3915
 9823TIP3   OH250883   6.494   4.330   5.393 -0.5943 -0.0955 -0.5603
 9823TIP3    H150884   6.541   4.408   5.421 -1.8179  0.1732  0.8590
 9823TIP3    H250885   6.405   4.342   5.426 -1.4761 -0.9609 -2.4476
 9824TIP3   OH250886   4.757   4.521  14.089  0.3186  0.2282  0.4610
 9824TIP3    H150887   4.795   4.609  14.087 -0.0891  0.4211  0.8827
 9824TIP3    H250888   4.813   4.469  14.032  0.6447  0.7312  0.3169
 9825TIP3   OH250889   5.559   0.334   3.046 -0.0748 -0.5567  0.0038
 9825TIP3    H150890   5.640   0.283   3.049  0.1912 -0.2067 -0.9438
 9825TIP3    H250891   5.553   0.376   3.132  0.4274 -1.0718  0.2933
 9826TIP3   OH250892   1.477   0.429  14.485  0.4570 -0.3177  0.0255
 9826TIP3    H150893   1.398   0.399  14.530  0.5525 -2.2354 -0.9715
 9826TIP3    H250894   1.453   0.513  14.446 -0.9004 -0.5861  0.2484
 9827TIP3   OH250895   1.005   2.834   2.793 -0.3432 -0.3969 -0.4620
 9827TIP3    H150896   1.064   2.829   2.869  0.5631  0.4162 -1.0865
 9827TIP3    H250897   0.972   2.745   2.783  1.8128 -1.2180 -0.8814
 9828TIP3   OH250898   2.681   5.999   4.509  0.0886  0.6914  0.9415
 9828TIP3    H150899   2.667   6.088   4.477 -0.1791 -0.1807 -1.5546
 9828TIP3    H250900   2.612   5.947   4.468  0.8673 -0.8634  1.5079
 9829TIP3   OH250901   3.176   4.991  12.806  0.4657  0.3413 -0.2538
 9829TIP3    H150902   3.209   5.075  12.838  3.1068 -0.1349 -1.4511
 9829TIP3    H250903   3.210   4.927  12.868 -1.0754  0.0634  0.3434
 9830TIP3   OH250904   2.927   0.941  14.556  0.2192  0.1794  0.0381
 9830TIP3    H150905   2.995   1.001  14.587 -0.4855  0.9964  0.0274
 9830TIP3    H250906   2.915   0.880  14.629  0.3353  0.5756  0.3949
 9831TIP3   OH250907   1.692   5.729  11.208 -0.0028  0.1534 -0.7098
 9831TIP3    H150908   1.776   5.758  11.172  0.6386 -0.6873  0.0520
 9831TIP3    H250909   1.657   5.669  11.142  0.1713  0.2222 -0.8654
 9832TIP3   OH250910   4.091   5.253   2.993  0.0381  0.8597 -0.3019
 9832TIP3    H150911   4.035   5.325   2.966  0.3567  1.2934  0.1665
 9832TIP3    H250912   4.142   5.289   3.066  0.9576  0.4993 -0.7453
 9833TIP3   OH250913   1.580   3.178  15.273  0.5364 -0.2044  0.1868
 9833TIP3    H150914   1.484   3.177  15.282  0.5689 -1.3837  0.5841
 9833TIP3    H250915   1.595   3.179  15.179  0.1412  0.5370  0.1238
 9834TIP3   OH250916   3.345   5.605   5.745 -0.2097 -0.3363 -0.0490
 9834TIP3    H150917   3.358   5.564   5.659  0.5318 -0.3008  0.0422
 9834TIP3    H250918   3.419   5.666   5.754  1.0661 -2.0051  1.6009
 9835TIP3   OH250919   4.737   2.165  13.513  0.3563 -0.4732  0.0685
 9835TIP3    H150920   4.672   2.096  13.504  1.1811 -1.1740 -0.6613
 9835TIP3    H250921   4.756   2.168  13.607 -2.0340  0.9989  0.5779
 9836TIP3   OH250922   3.646   5.165  14.696  0.7844 -0.3609 -0.1888
 9836TIP3    H150923   3.576   5.229  14.708  0.9915 -0.0969 -0.3778
 9836TIP3    H250924   3.690   5.160  14.781  2.6712  1.9924 -0.9273
 9837TIP3   OH250925   2.675   0.214   5.296  0.1668 -0.4687 -0.1882
 9837TIP3    H150926   2.739   0.259   5.351  0.2445  0.9079 -1.3525
 9837TIP3    H250927   2.717   0.207   5.210 -0.0104 -2.4285 -0.1572
 9838TIP3   OH250928   3.786   3.053   3.983  0.3326 -0.9482  0.4451
 9838TIP3    H150929   3.727   3.115   4.026 -0.3066 -1.4691  0.3322
 9838TIP3    H250930   3.743   2.968   3.992  1.0617 -1.3388  0.3484
 9839TIP3   OH250931   1.298   2.619  12.853 -0.0481 -0.0975  0.5938
 9839TIP3    H150932   1.207   2.650  12.855 -0.1891 -0.3014 -1.2923
 9839TIP3    H250933   1.317   2.597  12.945 -1.8940 -0.0648  1.0285
 9840TIP3   OH250934   3.706   0.988  16.044  0.0566  0.1718 -0.5823
 9840TIP3    H150935   3.673   0.939  15.969  0.0629  1.7781 -1.7114
 9840TIP3    H250936   3.646   1.063  16.052 -0.3050 -0.2751  1.4331
 9841TIP3   OH250937   3.253   1.130  13.340 -0.3861 -0.3903  0.1946
 9841TIP3    H150938   3.322   1.069  13.366  2.5834  1.5581 -2.3760
 9841TIP3    H250939   3.206   1.086  13.269 -1.0798 -1.2481  1.1548
 9842TIP3   OH250940   5.824   1.402  16.338 -0.1265 -0.4634  0.2284
 9842TIP3    H150941   5.745   1.375  16.291 -1.1618  3.0500 -0.3407
 9842TIP3    H250942   5.795   1.415  16.428  0.4261 -1.4630  0.5628
 9843TIP3   OH250943   5.367   5.097  12.839  0.0094  0.5662  0.4718
 9843TIP3    H150944   5.287   5.045  12.842  0.1628  0.3510  0.8143
 9843TIP3    H250945   5.391   5.111  12.930 -0.5169  2.0106  0.4134
 9844TIP3   OH250946   6.235   3.204   4.628 -0.1119 -0.1990  0.2966
 9844TIP3    H150947   6.273   3.116   4.628 -1.6683 -0.9040 -0.1534
 9844TIP3    H250948   6.162   3.199   4.689 -1.2941  0.2525 -1.0125
 9845TIP3   OH250949   5.039   3.227  16.117 -0.2879 -0.0078  0.3961
 9845TIP3    H150950   4.956   3.259  16.152 -0.0943  1.5752 -0.5289
 9845TIP3    H250951   5.089   3.306  16.097  0.7736 -0.9192 -0.6631
 9846TIP3   OH250952   0.177   4.382  16.718  0.5812 -0.2258 -0.0598
 9846TIP3    H150953   0.199   4.453  16.778 -0.8465  0.3860 -0.2138
 9846TIP3    H250954   0.115   4.421  16.657 -0.8820 -1.7881  0.3432
 9847TIP3   OH250955   3.725   5.988   0.938 -0.1394  0.2746  0.5759
 9847TIP3    H150956   3.782   6.054   0.978 -0.7861  1.2504 -0.0469
 9847TIP3    H250957   3.654   6.039   0.898 -0.4671 -0.7813 -0.2479
 9848TIP3   OH250958   0.528   1.194   3.290 -0.2697 -0.2181 -0.7504
 9848TIP3    H150959   0.482   1.263   3.338  0.8508 -0.8014  1.2755
 9848TIP3    H250960   0.604   1.238   3.250 -0.9727  0.1841 -1.6885
 9849TIP3   OH250961   0.917   2.508   5.192 -0.1657 -0.0702  0.3392
 9849TIP3    H150962   0.874   2.550   5.117  1.1770  1.8216  0.5437
 9849TIP3    H250963   0.913   2.574   5.262  2.6770  0.0989  0.4746
 9850TIP3   OH250964   4.447   3.098   0.297 -0.0660 -0.0641 -0.0297
 9850TIP3    H150965   4.352   3.105   0.309  0.0273  2.1576 -0.0471
 9850TIP3    H250966   4.478   3.188   0.306  2.0615 -0.7561  0.0109
 9851TIP3   OH250967   5.770   3.717   3.753 -0.5067  0.1479 -0.4094
 9851TIP3    H150968   5.861   3.702   3.777  0.0216  1.3666 -1.5021
 9851TIP3    H250969   5.774   3.790   3.692 -2.1911 -0.0467 -0.7866
 9852TIP3   OH250970   1.529   4.942   3.068 -0.0017 -0.4454 -0.1634
 9852TIP3    H150971   1.621   4.935   3.046  0.3322  0.4397  0.8758
 9852TIP3    H250972   1.515   4.880   3.139  0.2401  0.6992  0.9242
 9853TIP3   OH250973   3.926   6.347   2.973 -0.4364 -0.0142 -0.3695
 9853TIP3    H150974   3.958   6.318   3.059 -1.5190  0.5528  0.2495
 9853TIP3    H250975   3.957   6.438   2.967  1.2516 -0.6202 -1.4309
 9854TIP3   OH250976   4.375   2.943   0.815  0.0790 -0.5618 -0.2057
 9854TIP3    H150977   4.455   2.937   0.763 -0.2880 -2.3699 -0.6432
 9854TIP3    H250978   4.395   2.897   0.896  0.1824  0.9719  0.6606
 9855TIP3   OH250979   6.308   0.975  15.603 -0.1599 -0.0693  0.4244
 9855TIP3    H150980   6.262   0.923  15.537 -1.3126 -0.0963  1.2215
 9855TIP3    H250981   6.399   0.945  15.599  0.0649  0.7076 -1.9143
 9856TIP3   OH250982   4.054   6.274   5.178 -0.1298  0.2430 -0.8605
 9856TIP3    H150983   4.108   6.286   5.256 -1.6255 -0.0531  0.2744
 9856TIP3    H250984   4.005   6.356   5.169 -2.3007 -0.8087  0.4559
 9857TIP3   OH250985   3.288   4.214  13.077  0.8013 -0.4389  0.4186
 9857TIP3    H150986   3.326   4.126  13.080  1.3998 -0.1555  1.7737
 9857TIP3    H250987   3.364   4.273  13.075  0.4164  0.0767  0.5855
 9858TIP3   OH250988   5.255   6.331  13.228 -0.3083 -0.1601  0.5009
 9858TIP3    H150989   5.347   6.309  13.216 -0.6505 -0.4804 -2.0758
 9858TIP3    H250990   5.251   6.425  13.212 -0.3563 -0.0133  1.3157
 9859TIP3   OH250991   1.192   3.545  15.855  0.1399 -0.0275 -0.3436
 9859TIP3    H150992   1.122   3.485  15.830 -0.4544  1.2387 -1.9000
 9859TIP3    H250993   1.160   3.631  15.827  1.5005  0.8459  0.6875
 9860TIP3   OH250994   6.435   5.084   3.700 -0.3719 -0.4626  0.1180
 9860TIP3    H150995   6.492   5.103   3.774  1.3323 -1.2788 -0.9219
 9860TIP3    H250996   6.487   5.027   3.644 -1.4723  0.3967 -1.8861
 9861TIP3   OH250997   1.034   6.136  16.409  0.7758  0.9652 -0.2687
 9861TIP3    H150998   0.972   6.208  16.421 -2.5170 -1.6795  0.2566
 9861TIP3    H250999   1.012   6.099  16.324  0.9010 -0.6609  0.3681
 9862TIP3   OH251000   2.420   0.781  17.112  0.4213  0.0077  0.3726
 9862TIP3    H151001   2.469   0.698  17.109  0.7995  0.2216  0.5338
 9862TIP3    H251002   2.424   0.814  17.022 -0.8245 -0.7670  0.0098
 9863TIP3   OH251003   6.067   0.687   3.715 -0.4521 -0.1530 -0.4028
 9863TIP3    H151004   6.081   0.738   3.635 -0.8609 -0.4454 -0.6599
 9863TIP3    H251005   6.155   0.681   3.754 -0.2854  0.1748 -0.7117
 9864TIP3   OH251006   5.437   1.953  14.579 -0.6319 -0.0656  0.6674
 9864TIP3    H151007   5.453   2.017  14.649  2.4322  0.1969 -0.1497
 9864TIP3    H251008   5.440   2.004  14.499  0.5449 -1.0016  0.0830
 9865TIP3   OH251009   2.717   6.011   2.099 -0.3441  0.2266  0.2716
 9865TIP3    H151010   2.744   5.945   2.034 -0.5192 -0.1451  0.5686
 9865TIP3    H251011   2.669   5.960   2.165 -1.6961  0.8425 -0.1947
 9866TIP3   OH251012   4.197   1.197   0.858 -0.4994  0.1132 -0.2370
 9866TIP3    H151013   4.278   1.161   0.894 -0.6488 -0.2501 -0.2611
 9866TIP3    H251014   4.165   1.257   0.926 -0.6270 -0.3459  0.1149
 9867TIP3   OH251015   5.752   3.078  16.424  0.5225  0.7796  0.1916
 9867TIP3    H151016   5.713   3.150  16.474 -0.8348  1.0036 -1.1042
 9867TIP3    H251017   5.731   3.098  16.333  1.8430 -0.2552 -0.3808
 9868TIP3   OH251018   1.823   3.741  15.673  0.1919 -0.0642 -0.1954
 9868TIP3    H151019   1.843   3.834  15.663  2.3754 -0.1459  2.3734
 9868TIP3    H251020   1.892   3.697  15.622 -1.8361 -0.3921 -2.8756
 9869TIP3   OH251021   6.435   4.077  12.510  0.3477  0.3389 -0.0704
 9869TIP3    H151022   6.398   3.990  12.520 -0.6342  0.8300  0.7208
 9869TIP3    H251023   6.441   4.112  12.599  0.8732  1.0186 -0.3599
 9870TIP3   OH251024   5.334   1.385   5.252  0.1487  0.1460 -0.2018
 9870TIP3    H151025   5.360   1.437   5.175  0.8897 -0.5479 -0.4393
 9870TIP3    H251026   5.392   1.416   5.321  0.9011 -0.6544 -0.4571
 9871TIP3   OH251027   0.645   5.673  15.078  0.7838 -1.2255  0.4564
 9871TIP3    H151028   0.594   5.592  15.072 -0.7543 -0.2516 -0.1541
 9871TIP3    H251029   0.661   5.697  14.987 -1.6355  0.8428  0.4614
 9872TIP3   OH251030   4.802   5.625  16.714  0.2126 -0.2770  0.8584
 9872TIP3    H151031   4.787   5.718  16.733  0.5514 -0.0805  0.2116
 9872TIP3    H251032   4.745   5.579  16.774 -1.4731  0.3959 -0.1506
 9873TIP3   OH251033   3.932   1.292   3.496 -0.5175 -0.4371  1.0434
 9873TIP3    H151034   3.858   1.244   3.459 -0.4346 -0.4104  0.8422
 9873TIP3    H251035   3.900   1.381   3.508 -0.3382 -0.2926  0.4262
 9874TIP3   OH251036   1.185   1.878   1.427 -0.4174 -0.4118 -0.8848
 9874TIP3    H151037   1.277   1.900   1.410 -0.4174  0.3817  0.0780
 9874TIP3    H251038   1.188   1.787   1.459  0.0322 -0.3812 -0.8259
 9875TIP3   OH251039   2.417   2.839  12.049 -0.3062  0.2809 -0.0771
 9875TIP3    H151040   2.497   2.808  12.008  1.1298 -0.2940  2.8782
 9875TIP3    H251041   2.393   2.917  11.999  3.1051  1.5140 -0.0599
 9876TIP3   OH251042   4.547   6.142  11.278 -0.4723 -0.3435 -0.6376
 9876TIP3    H151043   4.496   6.219  11.303  2.2097  0.7455  2.0068
 9876TIP3    H251044   4.596   6.170  11.201  1.0713  0.9775  0.7531
 9877TIP3   OH251045   1.494   3.201   1.978 -0.4788 -0.0064  0.4045
 9877TIP3    H151046   1.425   3.137   1.997 -0.6736 -0.2950 -1.1575
 9877TIP3    H251047   1.559   3.151   1.928 -0.2505  0.8227 -0.1341
 9878TIP3   OH251048   0.575   6.069  14.095 -0.3561  0.2615 -0.2397
 9878TIP3    H151049   0.573   6.070  13.999 -3.8393 -0.2426 -0.2907
 9878TIP3    H251050   0.634   5.997  14.117 -0.4994 -0.4580 -2.0402
 9879TIP3   OH251051   0.566   6.008   4.241 -0.6012  0.0830  0.0075
 9879TIP3    H151052   0.650   6.017   4.196 -0.0233 -0.1077  1.0297
 9879TIP3    H251053   0.558   5.914   4.256 -0.9587  0.1112  0.0004
 9880TIP3   OH251054   5.457   4.752  16.581  0.2454 -0.2909  0.2691
 9880TIP3    H151055   5.470   4.760  16.675 -0.4427  1.0533  0.2789
 9880TIP3    H251056   5.520   4.685  16.553  1.6716  0.5095  1.4230
 9881TIP3   OH251057   5.838   3.812   2.803 -0.0625  0.2224 -0.2909
 9881TIP3    H151058   5.909   3.812   2.739 -1.0548  0.4433 -1.4276
 9881TIP3    H251059   5.874   3.765   2.878  2.7032  3.7278  0.8334
 9882TIP3   OH251060   1.395   2.443   6.273 -0.4548 -0.2806  0.0307
 9882TIP3    H151061   1.439   2.404   6.349 -1.4045 -1.8989 -0.2084
 9882TIP3    H251062   1.302   2.424   6.287 -0.9289  1.5909 -0.3242
 9883TIP3   OH251063   5.982   4.043  16.802  0.7074 -0.1370  0.2931
 9883TIP3    H151064   5.936   3.967  16.766 -1.2572  0.5347  1.2157
 9883TIP3    H251065   5.932   4.065  16.881  2.0378  1.2945  0.7747
 9884TIP3   OH251066   3.073   1.768  13.356 -0.0633  0.6926  0.1050
 9884TIP3    H151067   3.133   1.837  13.328  1.5616 -0.6261  0.2286
 9884TIP3    H251068   3.053   1.720  13.277 -1.3881  1.4107 -0.0222
 9885TIP3   OH251069   5.604   0.976  13.341 -0.5348 -0.4019  0.5153
 9885TIP3    H151070   5.651   0.970  13.258  0.2412  1.0295  0.8195
 9885TIP3    H251071   5.512   0.979  13.317 -0.3097  0.1585 -0.3187
 9886TIP3   OH251072   0.830   5.655  10.079  0.3256 -0.3468 -0.6245
 9886TIP3    H151073   0.907   5.617  10.121  0.4821  0.7602  0.1153
 9886TIP3    H251074   0.839   5.631   9.987  2.4750  1.1803 -0.8823
 9887TIP3   OH251075   1.012   5.473  10.216  0.8269 -0.2490  0.3005
 9887TIP3    H151076   1.089   5.518  10.251 -0.2157 -0.2448  2.8686
 9887TIP3    H251077   1.012   5.388  10.260  0.3383 -0.9995 -1.0852
 9888TIP3   OH251078   6.589   1.565  12.051 -0.5583  0.6920 -0.7171
 9888TIP3    H151079   6.644   1.596  11.980  0.7872  0.5447  0.2269
 9888TIP3    H251080   6.633   1.594  12.131 -0.5412 -1.4483  0.1439
 9889TIP3   OH251081   4.085   4.283  11.938 -0.6134 -0.0938  0.1995
 9889TIP3    H151082   4.072   4.195  11.975 -1.5769  0.6680  1.7710
 9889TIP3    H251083   4.007   4.299  11.886 -1.0319  0.3286  0.9558
 9890TIP3   OH251084   4.190   4.930   2.925  0.3239  0.6989  0.0511
 9890TIP3    H151085   4.185   4.836   2.936  0.6038  0.4055 -1.9289
 9890TIP3    H251086   4.233   4.962   3.005  0.1480 -0.8221  0.7756
 9891TIP3   OH251087   6.527   6.174  14.731 -0.2095 -0.3941 -0.2689
 9891TIP3    H151088   6.468   6.248  14.725 -0.0945 -0.0780  1.7344
 9891TIP3    H251089   6.608   6.204  14.690 -0.0628  0.7190  0.7889
 9892TIP3   OH251090   5.476   0.719  16.217 -0.1286  0.0579  0.4601
 9892TIP3    H151091   5.567   0.748  16.225 -0.1565 -0.0104  1.0477
 9892TIP3    H251092   5.451   0.743  16.128  1.2353 -2.1030 -0.6015
 9893TIP3   OH251093   2.448   5.155   5.686  0.2175  0.5026 -0.5145
 9893TIP3    H151094   2.510   5.142   5.614  0.3094 -0.1992 -0.3151
 9893TIP3    H251095   2.497   5.204   5.752 -0.6343  3.5520 -1.9712
 9894TIP3   OH251096   6.042   4.435  15.364  0.1007  0.3663 -0.1551
 9894TIP3    H151097   6.134   4.424  15.389  0.9371  0.6199 -2.8277
 9894TIP3    H251098   6.039   4.520  15.320 -1.4807  0.4513  0.0617
 9895TIP3   OH251099   3.457   4.962  17.042  0.1714  0.0308  0.1388
 9895TIP3    H151100   3.510   5.033  17.079 -1.1477  1.4025 -0.5034
 9895TIP3    H251101   3.518   4.913  16.987  0.9292  1.1596 -0.0513
 9896TIP3   OH251102   6.680   1.710   3.386 -0.0623  0.2207  0.0347
 9896TIP3    H151103   6.641   1.796   3.370 -0.9877 -0.0516  0.7842
 9896TIP3    H251104   6.686   1.703   3.481  0.8594 -0.1781 -0.0355
 9897TIP3   OH251105   1.437   3.751   5.644 -0.3167  0.0675  0.7357
 9897TIP3    H151106   1.356   3.742   5.693  0.1083 -0.6240  1.3431
 9897TIP3    H251107   1.479   3.665   5.653 -0.5376 -0.3309 -1.4120
 9898TIP3   OH251108   0.437   2.979   5.425 -0.2364 -0.3149  0.1280
 9898TIP3    H151109   0.421   3.067   5.391  1.8799  0.2023  0.3235
 9898TIP3    H251110   0.445   2.924   5.348  2.8333  0.5422 -0.3094
 9899TIP3   OH251111   1.492   3.226  16.752  0.2804 -0.2619 -0.1222
 9899TIP3    H151112   1.476   3.146  16.702 -0.1027  0.5140 -1.2699
 9899TIP3    H251113   1.577   3.211  16.793  0.3267 -1.1567 -0.5108
 9900TIP3   OH251114   1.548   6.210  12.895 -0.8124  0.6113  0.6340
 9900TIP3    H151115   1.476   6.235  12.953  0.2422  1.0116  1.8309
 9900TIP3    H251116   1.510   6.145  12.835 -2.2512  1.1080  0.9632
 9901TIP3   OH251117   5.237   4.704   6.254  0.1534 -0.4900 -0.4977
 9901TIP3    H151118   5.287   4.711   6.336  2.7401 -1.1510 -1.9082
 9901TIP3    H251119   5.147   4.685   6.282  1.2374 -2.2404  2.1813
 9902TIP3   OH251120   2.960   4.819  16.746 -0.0780  0.3296 -0.6606
 9902TIP3    H151121   2.895   4.886  16.767  1.1979  1.6862 -0.8358
 9902TIP3    H251122   2.960   4.815  16.650 -2.1306 -2.0149 -0.6499
 9903TIP3   OH251123   2.344   0.937   4.284 -0.1053  0.1593 -0.1279
 9903TIP3    H151124   2.319   0.845   4.296  1.9316 -0.3910  0.3095
 9903TIP3    H251125   2.307   0.982   4.360  0.8569 -0.7564  0.9193
 9904TIP3   OH251126   1.148   4.414  14.200  0.0142 -0.1642 -0.1561
 9904TIP3    H151127   1.076   4.471  14.174  0.8960  1.0360 -0.0558
 9904TIP3    H251128   1.149   4.345  14.134  0.6959  1.4923 -1.9550
 9905TIP3   OH251129   5.224   6.234   4.730  0.3141 -0.2069 -0.1832
 9905TIP3    H151130   5.274   6.299   4.680 -0.1404  0.1618 -0.1613
 9905TIP3    H251131   5.142   6.225   4.683 -0.8940  1.4832  1.4259
 9906TIP3   OH251132   6.144   4.500   0.800  0.0610 -0.2495 -0.1042
 9906TIP3    H151133   6.085   4.448   0.745  0.6667 -2.6330  1.3774
 9906TIP3    H251134   6.146   4.586   0.758 -3.0375 -0.6032 -1.2084
 9907TIP3   OH251135   5.725   2.327   5.603  0.6519 -0.3678 -0.2648
 9907TIP3    H151136   5.710   2.303   5.695  1.3071  0.3816  0.0505
 9907TIP3    H251137   5.644   2.303   5.558  0.3293 -0.7527  0.5065
 9908TIP3   OH251138   2.386   1.692  16.724 -0.4093 -0.5028 -0.2507
 9908TIP3    H151139   2.357   1.677  16.634 -0.8865  2.3592 -0.6659
 9908TIP3    H251140   2.480   1.710  16.717 -0.6740  0.9434 -0.3934
 9909TIP3   OH251141   2.161   5.210  15.754  0.7420  0.4634  0.1537
 9909TIP3    H151142   2.161   5.126  15.799  0.0219  0.6766  0.5588
 9909TIP3    H251143   2.069   5.225  15.732  0.8453  1.2198  0.2325
 9910TIP3   OH251144   0.943   3.375   1.108 -0.5869  0.1886 -0.7101
 9910TIP3    H151145   1.023   3.406   1.066  0.7237  1.0835  2.2184
 9910TIP3    H251146   0.945   3.413   1.196 -2.0756 -3.1870  0.9649
 9911TIP3   OH251147   5.617   4.010   4.136 -0.1814  0.3636  0.5634
 9911TIP3    H151148   5.668   4.022   4.057  0.1286 -0.5820  0.6088
 9911TIP3    H251149   5.543   3.956   4.109 -0.2877  0.3709  0.8337
 9912TIP3   OH251150   3.185   1.499  15.995  0.4699 -0.1178  0.0497
 9912TIP3    H151151   3.251   1.453  16.046  0.1788  0.9574  1.4531
 9912TIP3    H251152   3.109   1.441  15.997  0.7975 -0.5641 -0.0989
 9913TIP3   OH251153   2.329   2.011   5.542  0.4666 -0.0264 -0.4343
 9913TIP3    H151154   2.399   2.047   5.487  0.2270  0.9404 -0.1244
 9913TIP3    H251155   2.250   2.056   5.513  0.2185 -0.0174  0.2318
 9914TIP3   OH251156   5.026   1.122  14.211 -0.0210 -0.1188 -0.1167
 9914TIP3    H151157   5.093   1.068  14.170  0.7547 -0.8203  1.9774
 9914TIP3    H251158   5.061   1.211  14.206  1.4097 -0.5432  1.4780
 9915TIP3   OH251159   6.415   6.581   0.288  0.3778  0.0362 -0.1295
 9915TIP3    H151160   6.359   6.601   0.364 -0.9847 -1.6792 -0.6301
 9915TIP3    H251161   6.487   6.530   0.324 -1.0608 -2.1098 -0.1197
 9916TIP3   OH251162   4.268   3.480  12.836 -0.0884  0.1888 -0.4796
 9916TIP3    H151163   4.212   3.499  12.911  0.5465 -1.4228  0.4706
 9916TIP3    H251164   4.219   3.416  12.785  0.2100 -0.0409 -0.4832
 9917TIP3   OH251165   0.706   3.986  13.346  0.0074 -0.0515  0.4244
 9917TIP3    H151166   0.730   3.944  13.429  2.7134  3.0148  1.4214
 9917TIP3    H251167   0.612   3.969  13.337  0.0224 -2.2026  3.0481
 9918TIP3   OH251168   1.136   4.490   3.711  0.1043  0.0505  0.3717
 9918TIP3    H151169   1.147   4.397   3.690  0.6656 -0.1893  1.5878
 9918TIP3    H251170   1.171   4.498   3.800 -1.0412  1.1929  0.7530
 9919TIP3   OH251171   1.930   1.171  11.184 -0.2112  0.2396 -0.0427
 9919TIP3    H151172   1.845   1.138  11.156 -0.3934  1.4266 -0.9692
 9919TIP3    H251173   1.923   1.266  11.175  1.4342  0.3211 -0.8456
 9920TIP3   OH251174   5.948   6.775  12.911 -0.0534 -0.6145 -0.0398
 9920TIP3    H151175   6.022   6.826  12.943 -0.2621 -0.6280  0.4682
 9920TIP3    H251176   5.976   6.684  12.918 -0.4939 -0.6808  1.1533
 9921TIP3   OH251177   5.761   1.443  13.753 -0.0020 -0.2270 -0.2623
 9921TIP3    H151178   5.822   1.406  13.689  0.5017 -1.3957  0.8610
 9921TIP3    H251179   5.724   1.368  13.798 -1.1480  0.5341  0.1225
 9922TIP3   OH251180   4.403   0.122   5.386 -0.1524 -0.4438 -0.3167
 9922TIP3    H151181   4.387   0.146   5.295 -0.1406 -0.2392 -0.2669
 9922TIP3    H251182   4.393   0.027   5.389 -0.6724 -0.3946 -0.4274
 9923TIP3   OH251183   2.399   0.907   5.623  0.0334 -0.9203 -0.3801
 9923TIP3    H151184   2.339   0.916   5.697  0.1193  1.0621 -0.5099
 9923TIP3    H251185   2.350   0.942   5.548  1.0208 -0.0691 -0.6503
 9924TIP3   OH251186   1.503   0.155  14.804  0.7006  0.0170  0.7538
 9924TIP3    H151187   1.423   0.208  14.799  0.2692 -0.3881  2.5728
 9924TIP3    H251188   1.556   0.184  14.730 -1.0755  0.3805 -0.4434
 9925TIP3   OH251189   4.139   3.494  10.486  0.4598  0.3082  0.3741
 9925TIP3    H151190   4.092   3.574  10.508  1.2533  0.6329  0.9384
 9925TIP3    H251191   4.073   3.425  10.488  0.4344  0.2837  3.8858
 9926TIP3   OH251192   3.752   3.597   5.109  0.8563 -0.1474 -0.3377
 9926TIP3    H151193   3.823   3.550   5.153  0.8736  0.9811  0.8962
 9926TIP3    H251194   3.677   3.586   5.168  0.4525  0.0760 -0.8073
 9927TIP3   OH251195   2.737   5.155  16.556  0.7646  0.0498 -0.2695
 9927TIP3    H151196   2.664   5.132  16.499 -1.7764  0.4697  2.5610
 9927TIP3    H251197   2.751   5.077  16.610 -0.6536  1.3482  2.1418
 9928TIP3   OH251198   4.699   6.236  12.026  0.1406  0.7566 -0.0543
 9928TIP3    H151199   4.616   6.234  12.074  0.7055 -1.2334  0.9729
 9928TIP3    H251200   4.706   6.325  11.994 -2.4376  0.9654 -0.2686
 9929TIP3   OH251201   2.475   1.701  13.966 -0.4922  0.2852  0.0494
 9929TIP3    H151202   2.383   1.675  13.972  0.1455 -2.1850  0.2274
 9929TIP3    H251203   2.500   1.679  13.876 -0.0889  0.9912 -0.0168
 9930TIP3   OH251204   2.349   6.454   0.944 -0.1307 -0.0010 -0.5692
 9930TIP3    H151205   2.429   6.504   0.929  0.6385 -0.5995  1.2547
 9930TIP3    H251206   2.280   6.506   0.905  0.9613  1.2573 -0.8845
 9931TIP3   OH251207   1.698   2.261   0.343  0.0251  0.3275  0.2133
 9931TIP3    H151208   1.714   2.231   0.432 -1.2835 -0.3373  0.2473
 9931TIP3    H251209   1.619   2.214   0.316  0.8591 -0.1332 -1.5991
 9932TIP3   OH251210   0.361   2.950   0.983 -0.2353  0.1627  0.8146
 9932TIP3    H151211   0.401   2.873   1.023 -0.2520  1.0652  2.6945
 9932TIP3    H251212   0.434   3.001   0.950 -0.0641  0.2248  1.2767
 9933TIP3   OH251213   6.711   2.078  17.166  0.3470  0.1596  0.2652
 9933TIP3    H151214   6.756   2.095  17.249 -1.4780 -0.0208  1.3367
 9933TIP3    H251215   6.761   2.127  17.101  0.4293  2.3144  1.8500
 9934TIP3   OH251216   5.202   0.430   1.253  0.4540 -0.2661 -0.1547
 9934TIP3    H151217   5.245   0.515   1.251  1.1882 -0.6223  0.1392
 9934TIP3    H251218   5.228   0.388   1.171 -2.6245  1.0619 -1.9775
 9935TIP3   OH251219   3.701   0.315  11.504 -0.6938  0.0629 -0.4588
 9935TIP3    H151220   3.717   0.273  11.420  2.1237 -1.3639  0.6561
 9935TIP3    H251221   3.623   0.369  11.490 -0.7547 -0.6906 -3.7235
 9936TIP3   OH251222   2.386   1.674   3.957 -0.2033 -0.1462  0.5628
 9936TIP3    H151223   2.314   1.647   4.014 -0.8511 -0.4290 -0.3814
 9936TIP3    H251224   2.457   1.697   4.018 -1.0304 -0.0013  1.4977
 9937TIP3   OH251225   2.265   1.043  16.061 -0.1276 -0.1329  0.1899
 9937TIP3    H151226   2.272   0.965  16.115  0.0940  0.0866  0.4803
 9937TIP3    H251227   2.185   1.087  16.091 -0.9177 -0.8511 -0.7770
 9938TIP3   OH251228   0.372   5.149  11.892 -1.0809 -0.6607  0.2269
 9938TIP3    H151229   0.359   5.128  11.799  0.0629  0.9120 -0.3410
 9938TIP3    H251230   0.284   5.158  11.927 -1.5338 -1.3320 -0.6768
 9939TIP3   OH251231   0.430   1.402  16.674  0.1783  0.5864  0.2954
 9939TIP3    H151232   0.380   1.328  16.638  3.3070 -0.6174 -2.0168
 9939TIP3    H251233   0.476   1.366  16.750  2.1998 -0.1465 -1.2043
 9940TIP3   OH251234   1.041   3.912   3.561  0.0501  0.0162  0.1977
 9940TIP3    H151235   0.965   3.886   3.508  0.6206 -0.6948 -0.2967
 9940TIP3    H251236   1.116   3.870   3.517  1.0506  2.4987 -0.6264
 9941TIP3   OH251237   4.044   0.161  12.833 -0.3651  0.1434  0.2673
 9941TIP3    H151238   4.025   0.088  12.773 -1.5521  0.3552  0.3729
 9941TIP3    H251239   4.138   0.175  12.823  0.0340 -1.8527  0.7558
 9942TIP3   OH251240   4.027   6.241   2.733  0.1709 -0.0162 -0.1653
 9942TIP3    H151241   3.957   6.231   2.668  0.5419  0.6391 -0.6779
 9942TIP3    H251242   3.983   6.281   2.809 -0.6041 -2.2295  0.6313
 9943TIP3   OH251243   6.709   6.765   0.394  0.2083  0.0885 -0.1010
 9943TIP3    H151244   6.743   6.854   0.406 -1.7988  0.8549  0.2929
 9943TIP3    H251245   6.650   6.773   0.319  0.4360 -1.0691 -0.4232
 9944TIP3   OH251246   2.457   6.063  10.768 -0.4101 -0.2125  0.1696
 9944TIP3    H151247   2.365   6.053  10.742 -0.2189  1.8737 -1.6386
 9944TIP3    H251248   2.506   6.033  10.691  0.2861  2.3892 -0.4748
 9945TIP3   OH251249   6.377   1.883  13.101  0.1219  0.2853  0.2917
 9945TIP3    H151250   6.328   1.948  13.052 -2.1114 -1.6358 -0.1900
 9945TIP3    H251251   6.401   1.928  13.183  0.2294  2.2095 -0.7354
 9946TIP3   OH251252   6.593   0.002   3.921  0.5215 -0.2415 -0.1338
 9946TIP3    H151253   6.568   0.071   3.982 -1.3145 -1.7815  0.9674
 9946TIP3    H251254   6.521  -0.061   3.924  1.2103 -1.2829 -2.5633
 9947TIP3   OH251255   4.948   2.507  17.037  0.0145  0.8091  0.4773
 9947TIP3    H151256   4.867   2.527  17.083 -0.1663 -0.9461  0.9747
 9947TIP3    H251257   5.017   2.517  17.103 -0.0516  0.0499  0.6655
 9948TIP3   OH251258   3.853   0.180   5.309  0.6338 -0.9444  0.0020
 9948TIP3    H151259   3.762   0.180   5.280  0.6065  0.7591  0.0078
 9948TIP3    H251260   3.904   0.170   5.228  0.4659 -3.0201  0.0994
 9949TIP3   OH251261   4.213   3.199  11.643  0.8657  0.1972 -0.1671
 9949TIP3    H151262   4.143   3.259  11.617  0.5107  0.0350  0.4099
 9949TIP3    H251263   4.168   3.118  11.664  1.1913  0.1969  0.5415
 9950TIP3   OH251264   2.529   2.606  14.806 -0.7288  0.2958  0.7694
 9950TIP3    H151265   2.445   2.601  14.851  0.3697  1.0951  3.1079
 9950TIP3    H251266   2.582   2.538  14.847  0.1430  0.6617  0.2769
 9951TIP3   OH251267   0.393   1.766  13.882 -0.5907  0.0025 -0.1983
 9951TIP3    H151268   0.443   1.844  13.906 -1.6291  0.6919 -0.2152
 9951TIP3    H251269   0.314   1.800  13.839 -0.6542 -1.0850 -0.9971
 9952TIP3   OH251270   0.218   2.039   4.864  0.1647 -0.2867 -0.1295
 9952TIP3    H151271   0.183   1.965   4.912  0.3730 -0.4481 -0.2232
 9952TIP3    H251272   0.190   2.024   4.773  0.4054 -0.3778 -0.1915
 9953TIP3   OH251273   2.565   2.918   3.847 -0.2110  0.1704 -0.5732
 9953TIP3    H151274   2.475   2.899   3.872 -0.7511  2.2290 -0.7286
 9953TIP3    H251275   2.575   2.878   3.760 -0.3878 -1.5205  0.1513
 9954TIP3   OH251276   5.612   6.573  11.194  0.5861  0.5455 -0.1910
 9954TIP3    H151277   5.593   6.485  11.162 -0.4808  0.7941 -0.2620
 9954TIP3    H251278   5.529   6.604  11.230  1.2468  1.0771  0.9107
 9955TIP3   OH251279   5.033   1.306   1.831  0.7361 -0.1164  0.4295
 9955TIP3    H151280   4.946   1.293   1.795 -0.3428  1.0018  2.4654
 9955TIP3    H251281   5.044   1.401   1.836  2.2425 -0.2308 -0.1610
 9956TIP3   OH251282   4.233   3.889  14.732  0.7101  0.5131  0.2223
 9956TIP3    H151283   4.291   3.965  14.734  0.3804  0.8896 -1.8987
 9956TIP3    H251284   4.170   3.904  14.803 -0.0222  2.8270 -0.8223
 9957TIP3   OH251285   4.095   5.369   0.543  0.3314 -0.3572  0.1798
 9957TIP3    H151286   4.107   5.435   0.611  2.9166  0.3902 -0.8462
 9957TIP3    H251287   4.076   5.420   0.464  0.8845 -0.9136 -0.3272
 9958TIP3   OH251288   2.981   0.416   5.743  0.4710 -0.0196  0.0013
 9958TIP3    H151289   2.886   0.408   5.736  0.4563  0.2448 -0.0849
 9958TIP3    H251290   3.000   0.392   5.834  0.4573 -1.3499 -0.3243
 9959TIP3   OH251291   5.553   6.423  10.860  0.0397  0.4834 -0.5280
 9959TIP3    H151292   5.584   6.510  10.836  1.0146  1.1764  2.7262
 9959TIP3    H251293   5.487   6.401  10.794 -0.3112  3.7177 -1.3871
 9960TIP3   OH251294   2.392   1.985   0.277 -0.3879 -0.0350  0.0964
 9960TIP3    H151295   2.300   1.962   0.289 -0.2968 -1.1106 -1.0042
 9960TIP3    H251296   2.438   1.931   0.341 -0.3898 -0.9681 -0.6658
 9961TIP3   OH251297   0.925   1.375  12.771 -0.4543  0.2184 -0.0510
 9961TIP3    H151298   0.856   1.338  12.826 -1.2768  0.1942 -1.0605
 9961TIP3    H251299   1.007   1.349  12.814 -1.0286 -1.4703  0.0835
 9962TIP3   OH251300   0.254   2.727   2.619  0.4108  0.1922 -0.2521
 9962TIP3    H151301   0.262   2.632   2.613 -0.6979  0.1486 -1.7323
 9962TIP3    H251302   0.296   2.760   2.540  1.1022  0.9794  0.4235
 9963TIP3   OH251303   6.169   4.307  16.638  0.6551  0.1317  0.3432
 9963TIP3    H151304   6.145   4.287  16.548 -0.0821 -1.1203  0.7828
 9963TIP3    H251305   6.088   4.295  16.688  0.9932  1.0222  1.1522
 9964TIP3   OH251306   3.480   3.954   2.798 -0.3857  0.1161  0.2060
 9964TIP3    H151307   3.558   3.931   2.747 -0.8427  1.3463 -1.1036
 9964TIP3    H251308   3.491   3.907   2.881  1.4081 -0.2661 -0.2092
 9965TIP3   OH251309   3.423   0.679  16.636  0.3256  0.0105 -0.1581
 9965TIP3    H151310   3.510   0.664  16.672  0.5081  0.4583 -0.3963
 9965TIP3    H251311   3.432   0.760  16.586  0.3320 -1.0878 -2.0343
 9966TIP3   OH251312   1.016   3.337  12.339  0.0542 -0.1340  0.3503
 9966TIP3    H151313   1.000   3.242  12.340  0.6864 -0.2625 -0.7769
 9966TIP3    H251314   1.105   3.346  12.306 -0.2481  0.8898 -0.2215
 9967TIP3   OH251315   4.962   0.053   0.101  0.5011  0.2932  0.1929
 9967TIP3    H151316   5.054   0.059   0.075  0.5007  0.4863  0.2342
 9967TIP3    H251317   4.938   0.143   0.124  0.5867  0.0725  1.1576
 9968TIP3   OH251318   2.410   5.903  11.857 -0.4234  0.4823  0.1907
 9968TIP3    H151319   2.466   5.848  11.803  0.4998 -0.5050  2.0854
 9968TIP3    H251320   2.456   5.987  11.861  0.5902 -0.0968  1.1328
 9969TIP3   OH251321   0.415   4.974  13.075 -0.0321 -0.7311 -0.3139
 9969TIP3    H151322   0.334   5.022  13.092  0.3816 -0.1712  0.0728
 9969TIP3    H251323   0.400   4.933  12.989  0.1685  1.3041 -1.3774
 9970TIP3   OH251324   3.865   3.054  13.384 -0.0617  0.5649 -0.8417
 9970TIP3    H151325   3.823   3.113  13.447  0.6434  0.3359 -0.1328
 9970TIP3    H251326   3.923   3.110  13.333 -0.5414  0.7306 -1.2120
 9971TIP3   OH251327   1.070   0.283  17.039 -0.1553  0.2118 -0.2625
 9971TIP3    H151328   1.128   0.240  17.101 -2.8874  1.5247  3.5561
 9971TIP3    H251329   1.089   0.377  17.048 -0.7704  0.4611 -1.3022
 9972TIP3   OH251330   1.889   2.785   3.481  0.2692 -0.2599  0.6223
 9972TIP3    H151331   1.978   2.751   3.485  0.3537  0.0241  1.5090
 9972TIP3    H251332   1.837   2.712   3.446  0.8310 -0.4503  0.1644
 9973TIP3   OH251333   4.853   1.947  12.906  0.1499  0.0208  0.0852
 9973TIP3    H151334   4.948   1.949  12.919  0.1772  1.6704 -0.1923
 9973TIP3    H251335   4.837   1.868  12.854  1.3683 -0.2630  0.1210
 9974TIP3   OH251336   4.028   1.385  12.616 -0.1330  0.4803 -0.4244
 9974TIP3    H151337   4.061   1.359  12.701 -0.1358  1.5666 -0.0738
 9974TIP3    H251338   3.934   1.400  12.630 -0.3854 -0.5446 -0.9184
 9975TIP3   OH251339   4.636   6.775  16.526 -0.1553 -0.6092 -0.1133
 9975TIP3    H151340   4.724   6.800  16.496 -0.8327  1.3273 -0.6485
 9975TIP3    H251341   4.651   6.706  16.591  1.7748 -0.0335  0.1062
 9976TIP3   OH251342   2.716   1.610   0.286 -0.5823  0.0728 -0.3621
 9976TIP3    H151343   2.733   1.609   0.192 -0.7634  1.9358 -0.4504
 9976TIP3    H251344   2.776   1.545   0.322  1.0841  0.8693 -1.5397
 9977TIP3   OH251345   1.161   3.961   6.254  0.0247  0.3064 -1.3819
 9977TIP3    H151346   1.086   3.951   6.312  1.4853 -1.8978  0.3075
 9977TIP3    H251347   1.188   4.053   6.265 -1.1376  0.5529 -0.3991
 9978TIP3   OH251348   0.067   5.872  11.051 -0.2278  0.2273  0.0718
 9978TIP3    H151349   0.023   5.815  10.988 -0.7517  0.8163 -0.1070
 9978TIP3    H251350   0.097   5.813  11.120 -0.3255 -0.3233 -0.3460
 9979TIP3   OH251351   1.591   3.531  14.659  0.1639  0.0119  0.5516
 9979TIP3    H151352   1.577   3.481  14.579 -0.3361 -0.0253  0.6576
 9979TIP3    H251353   1.573   3.469  14.730 -0.7902  0.4100  0.6840
 9980TIP3   OH251354   1.113   2.522  13.461  0.1864 -0.9093 -0.0476
 9980TIP3    H151355   1.170   2.598  13.469 -0.8673 -0.2337  1.3527
 9980TIP3    H251356   1.144   2.461  13.527  1.8755 -2.3467 -2.0236
 9981TIP3   OH251357   0.441   4.513   1.032 -0.0687 -0.5861  0.0288
 9981TIP3    H151358   0.427   4.430   1.077 -2.0160 -0.3642 -0.0935
 9981TIP3    H251359   0.484   4.490   0.950  1.6757 -1.1862  1.0440
 9982TIP3   OH251360   4.063   2.421  15.452  0.4070  0.0338 -0.0963
 9982TIP3    H151361   4.148   2.408  15.494 -0.1255  0.6257  1.2378
 9982TIP3    H251362   4.033   2.332  15.430  1.5042 -0.1527 -0.8980
 9983TIP3   OH251363   3.084   6.672  14.127 -0.2498  0.6617  0.5517
 9983TIP3    H151364   3.175   6.703  14.118 -0.2739  0.2772 -1.5028
 9983TIP3    H251365   3.090   6.577  14.116 -1.0819  0.8177 -1.5679
 9984TIP3   OH251366   1.261   0.543  16.171 -0.3167 -0.1564 -0.0012
 9984TIP3    H151367   1.299   0.455  16.173  0.0845 -0.0043 -0.7157
 9984TIP3    H251368   1.251   0.563  16.078 -1.7579 -0.0203  0.1519
 9985TIP3   OH251369   3.019   0.157   4.052 -0.0368  0.3115  0.0910
 9985TIP3    H151370   3.075   0.225   4.017 -0.1356  0.0738 -0.5324
 9985TIP3    H251371   3.077   0.081   4.063 -0.3602 -0.1333 -1.1609
 9986TIP3   OH251372   5.904   3.406  14.416  0.1346 -0.0427  0.4125
 9986TIP3    H151373   5.935   3.489  14.452 -0.0680 -0.3206  1.2548
 9986TIP3    H251374   5.809   3.417  14.409  0.0117 -0.4543  1.2458
 9987TIP3   OH251375   1.746   0.904   5.718  0.0367 -0.7650 -0.7154
 9987TIP3    H151376   1.757   0.870   5.629 -0.0427 -2.2229 -0.2060
 9987TIP3    H251377   1.708   0.830   5.766  1.3499 -0.4655  0.8515
 9988TIP3   OH251378   3.641   3.023   4.880 -0.3648  0.0521 -0.6502
 9988TIP3    H151379   3.561   2.970   4.878  0.6813 -2.2621  3.9417
 9988TIP3    H251380   3.644   3.057   4.969  2.6092  2.1224 -1.4150
 9989TIP3   OH251381   6.332   3.212  11.994  0.2760  0.4142 -0.2575
 9989TIP3    H151382   6.285   3.230  12.075 -1.4602 -1.9242 -0.6580
 9989TIP3    H251383   6.294   3.273  11.931  0.1695  0.8242  0.1937
 9990TIP3   OH251384   4.712   6.569   0.061  0.1061 -0.1534  0.4749
 9990TIP3    H151385   4.756   6.595   0.142  0.9496 -0.8419  0.2595
 9990TIP3    H251386   4.681   6.480   0.079  2.3840 -1.2700 -0.7062
 9991TIP3   OH251387   4.611   4.656   1.836  0.2366 -0.8382  0.1479
 9991TIP3    H151388   4.521   4.644   1.805  0.0814  1.2931 -0.3559
 9991TIP3    H251389   4.664   4.647   1.757  0.1929  0.5710 -0.0708
 9992TIP3   OH251390   1.330   3.003   0.645  0.2001 -0.0535 -0.2672
 9992TIP3    H151391   1.264   2.939   0.621  0.0727  0.2603 -0.7719
 9992TIP3    H251392   1.281   3.083   0.666  0.4770  0.9369 -2.9698
 9993TIP3   OH251393   5.295   3.377   5.248 -0.4196 -0.0214 -0.3177
 9993TIP3    H151394   5.220   3.328   5.281  0.2624 -0.7605  0.1745
 9993TIP3    H251395   5.370   3.320   5.263  0.2692  0.7615 -0.6597
 9994TIP3   OH251396   5.253   6.245  11.451  0.0862  0.5998 -0.0197
 9994TIP3    H151397   5.276   6.174  11.510  2.4479 -0.1748 -1.6782
 9994TIP3    H251398   5.227   6.317  11.508 -1.4422 -1.2361  1.7413
 9995TIP3   OH251399   5.789   1.214  15.228  0.5326 -0.3845  0.6597
 9995TIP3    H151400   5.752   1.259  15.152  3.2709 -1.5098 -1.5342
 9995TIP3    H251401   5.717   1.161  15.262 -0.6893 -0.2061 -1.4620
 9996TIP3   OH251402   4.788   4.673   4.191 -0.1634 -0.2123  0.2608
 9996TIP3    H151403   4.871   4.711   4.163 -0.2363  0.8468  1.4210
 9996TIP3    H251404   4.804   4.639   4.279 -0.9011 -0.1969  0.4138
 9997TIP3   OH251405   4.254   0.429  12.991 -0.7466  0.2403 -0.4027
 9997TIP3    H151406   4.181   0.447  13.051 -2.0340 -1.7803 -1.2574
 9997TIP3    H251407   4.235   0.483  12.914 -1.2313 -0.0971 -0.5266
 9998TIP3   OH251408   1.302   2.269  13.305  0.3377  0.2268  0.0322
 9998TIP3    H151409   1.215   2.237  13.327  0.9210 -0.2472  1.7704
 9998TIP3    H251410   1.361   2.198  13.330  1.2185  0.2643 -1.7299
 9999TIP3   OH251411   3.704   2.053   5.587  0.3161 -0.5898  0.1650
 9999TIP3    H151412   3.695   2.147   5.605  0.2323 -0.8783  1.8049
 9999TIP3    H251413   3.704   2.013   5.674  0.0891 -2.1360 -0.5316
10000TIP3   OH251414   2.125   2.806   4.847 -0.5405 -0.6630 -0.8987
10000TIP3    H151415   2.096   2.804   4.755 -2.4643 -2.3128 -0.3290
10000TIP3    H251416   2.112   2.897   4.874 -2.4469 -0.6860 -1.5632
10001TIP3   OH251417   4.206   3.160  14.857  0.1298  0.7375  0.0258
10001TIP3    H151418   4.162   3.152  14.773  0.5417  1.3245 -0.2530
10001TIP3    H251419   4.291   3.199  14.837  1.7652 -2.3834  0.2785
10002TIP3   OH251420   6.607   2.772  15.879  0.2094 -0.0066  0.4028
10002TIP3    H151421   6.635   2.775  15.970  0.3324 -2.2730  0.4954
10002TIP3    H251422   6.642   2.689  15.845 -2.2735 -0.6396 -0.8580
10003TIP3   OH251423   0.501   6.775   1.468  0.2686  0.1364 -0.3241
10003TIP3    H151424   0.508   6.680   1.477  2.0422  0.3747  1.7031
10003TIP3    H251425   0.521   6.793   1.376 -0.6066 -1.4487 -0.8578
10004TIP3   OH251426   4.291   2.748   2.542 -0.2675  0.2383  0.0834
10004TIP3    H151427   4.327   2.691   2.474 -1.3244 -1.1412  0.6398
10004TIP3    H251428   4.367   2.794   2.578  0.8526 -1.9006  0.5991
10005TIP3   OH251429   1.472   1.210   5.257 -0.2477 -0.4326  0.3931
10005TIP3    H151430   1.493   1.117   5.248 -1.0368 -0.5772 -0.1331
10005TIP3    H251431   1.454   1.222   5.350 -0.6682 -0.9337  0.3794
10006TIP3   OH251432   4.422   0.793   1.907 -0.4432  0.0123  0.1643
10006TIP3    H151433   4.454   0.870   1.860 -1.6663 -1.0153 -2.5796
10006TIP3    H251434   4.488   0.726   1.892 -0.2322  0.0055  1.0520
10007TIP3   OH251435   2.122   2.773   0.501 -0.1131  0.6093 -0.5792
10007TIP3    H151436   2.095   2.862   0.481 -0.9208  0.6954  0.8268
10007TIP3    H251437   2.041   2.722   0.500  0.0215  0.3242  0.8280
10008TIP3   OH251438   0.308   2.214   4.416  0.5156 -0.1740 -1.1270
10008TIP3    H151439   0.293   2.182   4.327  0.0032 -0.0165 -1.1032
10008TIP3    H251440   0.239   2.279   4.430  0.3794 -0.4436 -0.4954
10009TIP3   OH251441   5.336   1.680  16.853  0.2739 -0.5870  0.4423
10009TIP3    H151442   5.418   1.724  16.875  0.4860 -0.5358 -0.4208
10009TIP3    H251443   5.306   1.724  16.773 -0.3784 -0.8844  0.5185
10010TIP3   OH251444   4.045   3.962   4.708  0.1966 -0.2574 -0.2613
10010TIP3    H151445   4.067   3.989   4.797 -0.1623 -0.1358 -0.2066
10010TIP3    H251446   4.054   4.041   4.655 -2.9953  0.6138  0.2658
10011TIP3   OH251447   3.418   2.197   1.286  0.0375 -0.0532 -0.2027
10011TIP3    H151448   3.403   2.274   1.231 -0.5194 -0.3597 -0.4916
10011TIP3    H251449   3.512   2.183   1.282  0.2374  1.0014  0.3847
10012TIP3   OH251450   1.560   4.998   2.254 -0.1690  0.3644  0.2439
10012TIP3    H151451   1.551   5.084   2.295  2.1568  0.6873  0.2236
10012TIP3    H251452   1.545   4.936   2.325  1.0393  0.8731  0.9805
10013TIP3   OH251453   6.263   3.678   4.481 -0.4797 -0.6352  0.3959
10013TIP3    H151454   6.341   3.682   4.537  1.7364 -0.9031 -2.4679
10013TIP3    H251455   6.253   3.585   4.461 -0.8364 -0.4724 -0.1877
10014TIP3   OH251456   2.024   6.794   3.620 -0.4175  0.0283 -0.3431
10014TIP3    H151457   1.967   6.868   3.598 -0.7405 -0.5798 -1.6577
10014TIP3    H251458   2.113   6.827   3.603 -0.5543  0.1552 -0.8252
10015TIP3   OH251459   0.698   1.532   4.311  0.0208  0.1381 -0.5646
10015TIP3    H151460   0.746   1.578   4.380 -0.0174  1.0629 -1.1463
10015TIP3    H251461   0.730   1.442   4.316  1.3314  0.5809 -0.5000
10016TIP3   OH251462   6.654   3.610   2.964 -0.3762 -0.2063  0.1343
10016TIP3    H151463   6.682   3.599   3.055 -1.4249 -0.7763  0.4099
10016TIP3    H251464   6.727   3.578   2.912  0.3947  0.4946  0.7596
10017TIP3   OH251465   1.001   6.150  14.997 -0.2386 -0.0797 -0.0289
10017TIP3    H151466   0.990   6.068  14.951  1.5843 -0.7187  0.5876
10017TIP3    H251467   0.996   6.127  15.090 -1.7054  0.8384  0.1519
10018TIP3   OH251468   1.661   5.374  11.731  0.6794  0.0485 -0.2280
10018TIP3    H151469   1.663   5.309  11.660 -2.2934 -2.3837  1.6826
10018TIP3    H251470   1.720   5.339  11.797  1.2749  0.8454 -0.3210
10019TIP3   OH251471   6.441   2.874  15.517 -0.3881  0.3367  0.1205
10019TIP3    H151472   6.442   2.920  15.601 -1.1588  0.1272  0.2517
10019TIP3    H251473   6.367   2.913  15.470 -1.3739 -1.1087  0.4278
10020TIP3   OH251474   6.327   4.467  16.841 -0.3145 -0.0180  0.0140
10020TIP3    H151475   6.266   4.425  16.781 -0.6354 -0.6267  0.7505
10020TIP3    H251476   6.301   4.435  16.928 -0.5789  1.6969  0.6110
10021TIP3   OH251477   6.026   5.145   0.606 -0.2728  0.0735 -0.0547
10021TIP3    H151478   5.958   5.086   0.573 -1.3547  0.7305  0.9130
10021TIP3    H251479   6.065   5.098   0.680 -0.6364  0.2513  0.2568
10022TIP3   OH251480   5.506   0.278  15.944 -0.4691 -0.2293  0.1094
10022TIP3    H151481   5.470   0.195  15.973 -0.4744 -0.2802 -0.0453
10022TIP3    H251482   5.601   0.267  15.952 -0.4948  0.3498  1.7868
10023TIP3   OH251483   3.160   1.443   1.635 -0.3192  0.3182 -0.0040
10023TIP3    H151484   3.201   1.375   1.688 -1.1503 -0.4430 -0.3093
10023TIP3    H251485   3.158   1.520   1.692  1.0363  0.2404  0.1933
10024TIP3   OH251486   0.446   4.938   1.914 -0.5078  0.5452 -0.0417
10024TIP3    H151487   0.438   4.921   1.821  0.2628 -0.2971  0.0339
10024TIP3    H251488   0.497   5.019   1.920 -2.6356  1.9908 -0.3684
10025TIP3   OH251489   3.469   0.364   3.134  0.0028 -0.1221  0.0742
10025TIP3    H151490   3.482   0.453   3.168  0.0100  0.1821 -0.7161
10025TIP3    H251491   3.544   0.314   3.168 -0.8182 -0.2393  1.8550
10026TIP3   OH251492   6.791   3.010   4.729 -0.0795  0.0400 -0.2850
10026TIP3    H151493   6.785   2.914   4.721  0.5113  0.0315 -0.6446
10026TIP3    H251494   6.807   3.041   4.640  0.8449  0.3833 -0.0068
10027TIP3   OH251495   3.616   5.856  12.317  0.2345 -0.8036  0.6156
10027TIP3    H151496   3.656   5.809  12.390  1.9879 -0.1170  0.1320
10027TIP3    H251497   3.606   5.946  12.348  0.2219 -0.6929  0.2974
10028TIP3   OH251498   4.841   1.090  11.801 -0.7262  0.2391 -0.1896
10028TIP3    H151499   4.766   1.148  11.789 -0.4310  0.8336  0.7628
10028TIP3    H251500   4.900   1.138  11.860 -0.0978 -0.6744 -0.0508
10029TIP3   OH251501   2.711   1.565   2.838  0.6483 -0.1729  0.2444
10029TIP3    H151502   2.762   1.646   2.829 -0.1188  0.0613 -4.1993
10029TIP3    H251503   2.769   1.496   2.805 -0.3346 -0.5714 -0.7277
10030TIP3   OH251504   3.899   2.348  14.573 -0.0935 -0.3072 -0.1440
10030TIP3    H151505   3.871   2.256  14.568  0.8529 -0.5829 -0.7202
10030TIP3    H251506   3.868   2.378  14.658 -1.8385 -0.6744 -0.6178
10031TIP3   OH251507   5.509   1.548   1.237 -0.8507 -0.0444  0.0680
10031TIP3    H151508   5.432   1.573   1.187 -0.5325 -0.0263 -0.4245
10031TIP3    H251509   5.536   1.464   1.198 -2.0384 -1.3165  1.8331
10032TIP3   OH251510   3.708   3.116   6.457  0.2581  0.3322 -0.1626
10032TIP3    H151511   3.687   3.207   6.436  1.7797  0.2390 -2.3086
10032TIP3    H251512   3.650   3.064   6.402  2.7545  0.0828 -2.7677
10033TIP3   OH251513   2.711   5.036  10.593 -0.0488 -0.0445 -0.2869
10033TIP3    H151514   2.638   5.086  10.557  0.3570 -0.4508 -1.7280
10033TIP3    H251515   2.773   5.103  10.623 -0.6101  0.3026  0.1130
10034TIP3   OH251516   2.528   1.216   2.089 -0.4402  0.1218 -0.0728
10034TIP3    H151517   2.451   1.262   2.122 -0.7492 -0.1241 -0.4465
10034TIP3    H251518   2.517   1.213   1.994  0.0707  0.1568 -0.1393
10035TIP3   OH251519   0.372   2.522  12.423 -0.6299  0.7029  0.4971
10035TIP3    H151520   0.412   2.484  12.502 -0.6764 -0.0700  0.1593
10035TIP3    H251521   0.278   2.520  12.441 -0.6382  0.5633  0.4404
10036TIP3   OH251522   1.960   6.055   2.438 -0.0347  0.1272 -0.7379
10036TIP3    H151523   1.872   6.087   2.458 -0.6472 -2.0844  0.3617
10036TIP3    H251524   1.985   6.103   2.358 -1.3637  2.2936  0.0626
10037TIP3   OH251525   1.100   3.979  11.164  0.4309  0.1564  0.2161
10037TIP3    H151526   1.182   3.945  11.128  0.0332 -0.1594 -0.4112
10037TIP3    H251527   1.036   3.965  11.094 -0.2697 -0.0820  0.9007
10038TIP3   OH251528   2.982   4.170  11.784  0.8142  0.2766 -0.0119
10038TIP3    H151529   3.075   4.187  11.768  0.8625  0.5458  0.5342
10038TIP3    H251530   2.954   4.240  11.843  0.3136  0.0854 -0.0160
10039TIP3   OH251531   3.973   5.857   5.182 -0.6385 -0.7391  0.2706
10039TIP3    H151532   4.024   5.855   5.102 -1.6352 -0.9789 -0.3761
10039TIP3    H251533   4.025   5.808   5.245 -0.7944 -2.3759 -0.8228
10040TIP3   OH251534   1.743   2.565  15.348 -0.4042 -0.4845  0.1433
10040TIP3    H151535   1.657   2.587  15.385 -0.1256 -0.6218  0.9074
10040TIP3    H251536   1.785   2.650  15.335 -0.7932 -0.3975 -0.5963
10041TIP3   OH251537   1.446   6.183  11.054 -0.1386 -0.3484 -0.1522
10041TIP3    H151538   1.512   6.148  11.113 -1.6433 -1.2694  1.0293
10041TIP3    H251539   1.388   6.234  11.110 -1.1024 -0.5005 -0.9914
10042TIP3   OH251540   3.102   6.744  17.052 -0.6047 -0.1039  1.1887
10042TIP3    H151541   3.028   6.687  17.030 -1.7500  1.6280  0.3606
10042TIP3    H251542   3.173   6.683  17.074 -0.8563 -1.9623 -2.4489
10043TIP3   OH251543   5.780   5.752  15.859 -0.0276 -0.3930 -0.3036
10043TIP3    H151544   5.808   5.824  15.803 -0.6425  0.7281  0.7704
10043TIP3    H251545   5.860   5.727  15.907  0.3740 -0.9985 -1.2677
10044TIP3   OH251546   1.153   6.404  12.697 -0.0946 -0.1604 -0.3116
10044TIP3    H151547   1.112   6.328  12.737 -0.9473 -0.5238 -1.7734
10044TIP3    H251548   1.228   6.368  12.650  1.3775  0.3680  1.5372
10045TIP3   OH251549   4.297   0.036  16.857  0.3322  0.1512  0.1785
10045TIP3    H151550   4.342   0.065  16.777  0.4006  1.2973  0.6119
10045TIP3    H251551   4.335   0.090  16.926 -1.6152  1.0762  0.5815
10046TIP3   OH251552   1.877   1.699   0.118  0.1267  0.6472 -0.6262
10046TIP3    H151553   1.855   1.618   0.073  0.9768  0.6019 -0.9859
10046TIP3    H251554   1.956   1.678   0.167  0.0407  1.1072 -0.2866
10047TIP3   OH251555   1.971   6.647  14.914 -0.0430 -0.0227 -0.8679
10047TIP3    H151556   2.040   6.711  14.899 -0.0194  0.0131 -0.6207
10047TIP3    H251557   1.910   6.690  14.974  1.1200 -0.9835  1.1389
10048TIP3   OH251558   4.246   4.127  15.378  0.6608 -0.5767  0.0010
10048TIP3    H151559   4.334   4.165  15.371  0.5455 -0.3341 -0.1409
10048TIP3    H251560   4.259   4.045  15.426  1.3499 -1.8130 -2.1594
10049TIP3   OH251561   6.106   4.660   1.043 -0.1066  0.4499  0.3041
10049TIP3    H151562   6.164   4.735   1.055  0.4643 -0.1124  1.2550
10049TIP3    H251563   6.138   4.616   0.965  0.2318  0.6052  0.3571
10050TIP3   OH251564   2.538   2.903  14.768 -0.8051 -0.1728  0.6160
10050TIP3    H151565   2.575   2.816  14.751  0.7423  0.1103  2.2245
10050TIP3    H251566   2.576   2.929  14.852  1.6544  3.5161 -1.3617
10051TIP3   OH251567   2.201   1.188  14.884 -0.3297 -0.0071 -1.0715
10051TIP3    H151568   2.256   1.176  14.806 -0.6018  1.0967 -1.4495
10051TIP3    H251569   2.120   1.143  14.863  0.5618 -2.0906 -0.3115
10052TIP3   OH251570   2.434   0.952   0.442 -0.1453  0.3477  0.4037
10052TIP3    H151571   2.387   0.869   0.439  0.4394  0.0357 -1.7039
10052TIP3    H251572   2.526   0.926   0.450  0.0701  0.7643 -0.6421
10053TIP3   OH251573   3.039   5.785  13.109 -0.2877  0.1954  0.2865
10053TIP3    H151574   3.044   5.769  13.015 -1.3224  1.2825  0.0249
10053TIP3    H251575   3.130   5.782  13.139  0.3066  1.9952 -1.1476
10054TIP3   OH251576   2.814   0.163   2.348 -0.5367  0.0810 -0.3769
10054TIP3    H151577   2.844   0.241   2.395 -3.2270 -0.7361  3.1109
10054TIP3    H251578   2.745   0.195   2.290  1.6890  0.8542 -2.7908
10055TIP3   OH251579   4.190   0.266   3.392  0.4424 -0.0522  0.0063
10055TIP3    H151580   4.180   0.337   3.328  0.3474  0.3948  0.5086
10055TIP3    H251581   4.234   0.196   3.344 -2.2929 -0.9025 -1.4060
10056TIP3   OH251582   3.216   6.693   1.308 -0.0931 -1.2358  0.2125
10056TIP3    H151583   3.177   6.677   1.222 -0.3615 -0.8241  0.2554
10056TIP3    H251584   3.141   6.698   1.367  0.1717 -3.2404  0.7688
10057TIP3   OH251585   1.501   5.675   4.891  0.0254  0.1050  0.2518
10057TIP3    H151586   1.490   5.770   4.893  1.5667  0.3738 -1.1490
10057TIP3    H251587   1.549   5.655   4.971  0.3988  0.6337  0.1673
10058TIP3   OH251588   6.641   4.335   0.918 -0.2269 -0.0245 -0.0881
10058TIP3    H151589   6.561   4.370   0.957 -1.0055 -1.4535 -0.2913
10058TIP3    H251590   6.638   4.241   0.939  0.8137 -0.3006 -1.0693
10059TIP3   OH251591   3.639   6.099   4.403  0.0863 -0.3167  0.1272
10059TIP3    H151592   3.685   6.121   4.321 -0.7974 -2.0270 -0.8727
10059TIP3    H251593   3.709   6.088   4.467  0.8095  0.8619 -0.4270
10060TIP3   OH251594   5.452   0.230  15.263  0.5072 -0.6211  0.1928
10060TIP3    H151595   5.541   0.253  15.288  0.7345 -0.0841 -1.0458
10060TIP3    H251596   5.406   0.219  15.346  1.6449 -0.6037  0.8458
10061TIP3   OH251597   1.796   4.782  11.497  0.3280 -0.5952  0.2206
10061TIP3    H151598   1.853   4.712  11.532 -3.0155 -3.2615  0.8746
10061TIP3    H251599   1.760   4.824  11.575  1.0927  0.8726 -0.1839
10062TIP3   OH251600   5.782   3.327  15.113  0.3808 -0.2916 -0.2204
10062TIP3    H151601   5.758   3.337  15.021 -1.4825  0.3269  0.2978
10062TIP3    H251602   5.802   3.416  15.142 -0.8116 -0.2110  0.4078
10063TIP3   OH251603   0.801   2.189  16.867 -0.0548  0.2330  0.3306
10063TIP3    H151604   0.794   2.099  16.836  1.6137 -0.4039  1.6520
10063TIP3    H251605   0.811   2.242  16.788  0.3639 -0.8977 -0.3855
10064TIP3   OH251606   4.123   1.668  14.107  0.4650  0.3722 -0.3848
10064TIP3    H151607   4.061   1.616  14.056  1.9203 -0.6013 -1.2475
10064TIP3    H251608   4.120   1.755  14.065 -0.2002  0.3016 -0.4971
10065TIP3   OH251609   2.147   0.410  12.557 -0.0492  0.7931  0.6411
10065TIP3    H151610   2.195   0.493  12.568  0.6405  0.7613 -1.6446
10065TIP3    H251611   2.211   0.351  12.518 -1.1018 -0.2208  0.4163
10066TIP3   OH251612   4.703   1.045  16.548 -0.0070 -0.0522  0.1307
10066TIP3    H151613   4.650   0.975  16.586 -1.4018  1.4439  1.0722
10066TIP3    H251614   4.682   1.043  16.455  0.8354 -1.5609 -0.0635
10067TIP3   OH251615   1.846   2.467   4.161  0.8209  0.3755 -0.3165
10067TIP3    H151616   1.758   2.498   4.180  1.4375  2.4304 -0.5466
10067TIP3    H251617   1.889   2.461   4.246  0.4570 -0.7643 -0.1902
10068TIP3   OH251618   5.361   4.163  14.141  0.7303  0.2691 -0.2583
10068TIP3    H151619   5.346   4.256  14.125  0.9466  0.2407 -0.6403
10068TIP3    H251620   5.399   4.130  14.059 -0.6382 -0.4457 -0.6507
10069TIP3   OH251621   0.969   3.327  16.415 -0.1799  0.8198  0.4249
10069TIP3    H151622   0.904   3.350  16.349 -2.3668 -0.8552  1.8365
10069TIP3    H251623   0.931   3.355  16.498  0.2800 -1.2625  1.4193
10070TIP3   OH251624   3.494   5.185   6.265 -0.3096 -0.3783 -0.4589
10070TIP3    H151625   3.498   5.247   6.192 -1.3606  0.8696  0.5002
10070TIP3    H251626   3.526   5.235   6.340 -1.3702 -0.9201  0.3775
10071TIP3   OH251627   0.213   5.139  15.364 -0.6524 -0.3069  0.2587
10071TIP3    H151628   0.173   5.224  15.344 -0.3383 -0.0343  0.7462
10071TIP3    H251629   0.175   5.078  15.301 -2.0341 -0.1162  0.8770
10072TIP3   OH251630   2.555   3.928   4.118  0.0851  0.1285 -0.2955
10072TIP3    H151631   2.591   3.949   4.204 -0.2880  0.1160 -0.1348
10072TIP3    H251632   2.574   3.835   4.107  0.6649  0.2666 -0.4874
10073TIP3   OH251633   6.474   5.415   2.241 -0.3159  0.3260 -0.3164
10073TIP3    H151634   6.479   5.488   2.179 -0.3766  0.6855  0.0976
10073TIP3    H251635   6.399   5.436   2.296 -1.3466 -0.8432 -1.1980
10074TIP3   OH251636   3.418   2.264   4.549  0.5157  0.0528  0.5080
10074TIP3    H151637   3.351   2.315   4.595  0.2267  0.0176  0.1417
10074TIP3    H251638   3.458   2.209   4.616 -0.4787 -0.6149  0.5711
10075TIP3   OH251639   2.127   1.063   1.939 -0.2397 -0.9440 -0.4508
10075TIP3    H151640   2.198   1.043   2.000 -0.3991 -0.1633  0.0083
10075TIP3    H251641   2.065   0.991   1.949  0.7017 -1.8946 -1.2209
10076TIP3   OH251642   3.811   2.815   4.312  0.1301  0.5123  0.6312
10076TIP3    H151643   3.809   2.825   4.217  0.5103 -0.5231  0.4987
10076TIP3    H251644   3.751   2.742   4.329  0.4964  0.3222  1.1209
10077TIP3   OH251645   0.855   0.191  11.604  0.2753  0.5453  0.5440
10077TIP3    H151646   0.803   0.265  11.571 -0.3458 -0.5761 -1.1315
10077TIP3    H251647   0.847   0.124  11.536  0.9439 -1.0280  1.9528
10078TIP3   OH251648   4.683   3.124  13.208 -0.1419  0.0113 -0.3549
10078TIP3    H151649   4.741   3.129  13.132  0.4799  1.7048  0.1932
10078TIP3    H251650   4.700   3.037  13.244  0.9678 -0.0915 -1.0646
10079TIP3   OH251651   1.061   5.114  13.475  0.2522 -0.1376  0.1076
10079TIP3    H151652   1.017   5.072  13.549 -0.7811 -0.4059 -0.6366
10079TIP3    H251653   0.990   5.133  13.413  1.1681 -0.5003 -1.0868
10080TIP3   OH251654   4.819   6.773   4.554 -0.1241  0.0179  0.9180
10080TIP3    H151655   4.773   6.792   4.471 -1.0343  0.7584  1.5643
10080TIP3    H251656   4.908   6.803   4.539 -0.3484  0.3959  0.2842
10081TIP3   OH251657   2.777   3.657  11.521  0.0868 -0.5870  0.3708
10081TIP3    H151658   2.873   3.662  11.520  0.1818 -2.0061 -0.9726
10081TIP3    H251659   2.757   3.607  11.599  0.1982  2.3909  2.4729
10082TIP3   OH251660   6.377   2.120   0.716 -0.4021 -0.0123  0.0456
10082TIP3    H151661   6.307   2.065   0.680 -1.0635 -0.2256  1.5891
10082TIP3    H251662   6.405   2.174   0.642 -1.8936 -0.2336 -0.7298
10083TIP3   OH251663   5.007   0.139   4.355  0.1579  0.2280  0.0414
10083TIP3    H151664   5.077   0.074   4.342  0.2672  0.1871  0.7867
10083TIP3    H251665   4.928   0.097   4.321  0.3628 -0.0044 -0.1515
10084TIP3   OH251666   3.998   2.328   1.007  0.0344  0.3454 -0.2138
10084TIP3    H151667   4.016   2.304   0.916  1.1026  1.2633 -0.2710
10084TIP3    H251668   3.905   2.312   1.018 -0.3143  1.0912 -1.7536
10085TIP3   OH251669   3.288   6.655  14.759  0.3781 -0.1308  0.0838
10085TIP3    H151670   3.322   6.566  14.765 -1.3400 -0.7445  2.2138
10085TIP3    H251671   3.195   6.644  14.739 -0.0749  1.0995  1.3418
10086TIP3   OH251672   0.961   3.383  13.317 -0.3042  0.0286  0.0874
10086TIP3    H151673   0.968   3.333  13.236 -0.3244  1.6097 -0.9255
10086TIP3    H251674   1.011   3.463  13.301 -1.0416  0.7751  1.3126
10087TIP3   OH251675   6.292   0.475  13.019  0.3791  0.2911  0.1182
10087TIP3    H151676   6.362   0.489  12.955 -0.6181 -0.1516 -1.1237
10087TIP3    H251677   6.316   0.394  13.064  1.4692  1.0057  0.8422
10088TIP3   OH251678   6.184   3.017  12.667 -0.1918  0.6847  0.5595
10088TIP3    H151679   6.128   3.078  12.620 -0.4497  0.1771  0.2062
10088TIP3    H251680   6.126   2.948  12.698  0.2372  0.1314  0.1529
10089TIP3   OH251681   6.784   1.727   5.536  0.4132  0.4903  0.5413
10089TIP3    H151682   6.865   1.743   5.486 -0.9000  1.4180 -1.3967
10089TIP3    H251683   6.815   1.702   5.624  2.8070 -0.4308 -0.4792
10090TIP3   OH251684   5.745   0.287  14.389 -0.7535  0.0265  0.8927
10090TIP3    H151685   5.657   0.322  14.375 -1.2643 -0.1480  3.1705
10090TIP3    H251686   5.779   0.270  14.302 -2.9990  0.0453 -0.0472
10091TIP3   OH251687   2.545   2.860   1.303 -0.0639 -0.5462 -1.0048
10091TIP3    H151688   2.531   2.916   1.380  0.8804 -0.8888 -0.5621
10091TIP3    H251689   2.600   2.912   1.245  0.9475 -1.0493 -0.5226
10092TIP3   OH251690   1.421   4.344  12.463  0.2302 -0.0097 -0.1181
10092TIP3    H151691   1.327   4.352  12.447  0.1115 -1.1351 -0.0160
10092TIP3    H251692   1.457   4.426  12.429 -0.9508  1.1470  1.3082
10093TIP3   OH251693   2.243   6.434  15.169  0.1388 -0.3202  0.3079
10093TIP3    H151694   2.293   6.430  15.251  1.5329 -0.0056 -0.4934
10093TIP3    H251695   2.309   6.455  15.102 -0.6956 -2.0502 -1.1388
10094TIP3   OH251696   1.948   1.239   5.297 -0.0754 -0.4763  0.0187
10094TIP3    H151697   1.946   1.285   5.213 -0.9968 -0.3105  0.1229
10094TIP3    H251698   2.037   1.203   5.302  0.8826  1.8020  0.2386
10095TIP3   OH251699   5.331   5.507   5.499 -0.0942  0.2961  0.0642
10095TIP3    H151700   5.401   5.450   5.468 -1.1323 -0.8107 -0.3255
10095TIP3    H251701   5.354   5.594   5.465  0.6824 -0.1902 -0.6950
10096TIP3   OH251702   1.019   3.582   1.290  0.1206 -0.5947 -0.6428
10096TIP3    H151703   1.072   3.646   1.242 -0.8109 -0.5383 -1.6300
10096TIP3    H251704   1.013   3.618   1.379  0.7149  0.0104 -0.8396
10097TIP3   OH251705   2.468   5.914  15.791  0.0943  0.0449  0.1160
10097TIP3    H151706   2.513   5.970  15.854 -1.2203  0.7311  0.4772
10097TIP3    H251707   2.508   5.828  15.803  0.4764  0.3607  1.2735
10098TIP3   OH251708   5.610   6.029  11.102  0.4898  0.2581  0.0323
10098TIP3    H151709   5.684   6.030  11.041  2.5853  0.1522  2.4321
10098TIP3    H251710   5.592   6.122  11.119 -0.3262  0.2965 -0.9423
10099TIP3   OH251711   4.865   3.057  13.012  0.1561  0.0051  0.8912
10099TIP3    H151712   4.946   3.104  12.993 -0.4016  1.1934  1.3812
10099TIP3    H251713   4.892   2.987  13.071  0.8951  0.1109  0.6874
10100TIP3   OH251714   5.172   0.377   0.047 -0.5046  0.4116 -0.5751
10100TIP3    H151715   5.224   0.457   0.035 -1.2678  0.5504 -4.2995
10100TIP3    H251716   5.195   0.323  -0.029 -1.2224 -2.2515  1.0009
10101TIP3   OH251717   3.047   5.653   3.220 -0.2444 -0.2701 -0.1598
10101TIP3    H151718   3.063   5.702   3.301  1.5859 -1.8769  0.5276
10101TIP3    H251719   3.034   5.721   3.154 -2.5836  1.0864  1.5449
10102TIP3   OH251720   5.183   1.549   3.540 -0.3377 -0.2668 -0.6000
10102TIP3    H151721   5.257   1.545   3.602 -2.1298 -0.5083  1.6728
10102TIP3    H251722   5.164   1.457   3.520  0.4237 -0.1826 -1.8372
10103TIP3   OH251723   0.093   6.441   0.896  0.0116  0.3707 -0.0478
10103TIP3    H151724   0.104   6.352   0.862 -1.4228  1.1679 -2.8133
10103TIP3    H251725   0.182   6.475   0.903  0.4409 -0.3885 -1.5100
10104TIP3   OH251726   4.253   1.118  14.892 -0.3719  0.2574 -0.3135
10104TIP3    H151727   4.160   1.096  14.896 -0.6417  1.3350 -0.3215
10104TIP3    H251728   4.278   1.101  14.801 -0.3233 -0.8954 -0.0998
10105TIP3   OH251729   6.637   5.466  15.257  0.3094 -0.2408  0.0387
10105TIP3    H151730   6.607   5.414  15.332  0.8871 -0.6716 -0.0152
10105TIP3    H251731   6.652   5.553  15.292 -1.9198  0.2726 -0.1374
10106TIP3   OH251732   4.167   0.460  16.654 -0.3158  0.4460 -0.5470
10106TIP3    H151733   4.146   0.549  16.624 -0.6334  0.0879 -1.4253
10106TIP3    H251734   4.258   0.466  16.683 -1.0293  1.6116  1.6789
10107TIP3   OH251735   3.607   4.054  13.258  0.7364 -0.0230 -0.2991
10107TIP3    H151736   3.549   4.055  13.334 -0.1964 -0.2773 -0.9872
10107TIP3    H251737   3.662   4.131  13.270  0.7219 -0.1503  0.7161
10108TIP3   OH251738   0.439   2.524  16.436  0.7019  0.3827  0.0271
10108TIP3    H151739   0.419   2.438  16.473  1.1064 -0.0543 -0.7537
10108TIP3    H251740   0.401   2.522  16.348  1.2249  0.7860 -0.2155
10109TIP3   OH251741   1.619   1.433   0.335 -0.4153  0.3750 -0.6281
10109TIP3    H151742   1.608   1.475   0.420 -1.4256  1.6050 -1.3152
10109TIP3    H251743   1.545   1.373   0.328 -0.2244  0.1320 -0.5592
10110TIP3   OH251744   6.179   3.907   3.510  0.2828 -0.0770 -0.3051
10110TIP3    H151745   6.098   3.911   3.458  1.6087 -1.2958 -2.6315
10110TIP3    H251746   6.247   3.940   3.451  1.4013  2.0822  1.9811
10111TIP3   OH251747   1.830   1.106  13.823  0.0030  0.1241 -0.3118
10111TIP3    H151748   1.805   1.175  13.885  2.8488  1.7719 -0.8556
10111TIP3    H251749   1.792   1.135  13.740 -0.2549  0.1070 -0.2030
10112TIP3   OH251750   2.425   0.320  14.119 -0.0297  0.4292 -0.1312
10112TIP3    H151751   2.470   0.395  14.080 -0.2843  0.6755  0.0423
10112TIP3    H251752   2.391   0.271  14.045  0.4289  0.3036 -0.2573
10113TIP3   OH251753   0.960   1.669   0.069  0.4436  0.1251 -0.0730
10113TIP3    H151754   0.947   1.727   0.144  0.4273 -1.8654  1.5536
10113TIP3    H251755   0.872   1.640   0.046  0.4827  0.4506 -0.6515
10114TIP3   OH251756   5.294   0.492  13.056  0.0099 -0.1826  0.4986
10114TIP3    H151757   5.279   0.432  13.130  1.0619  0.7397  1.4919
10114TIP3    H251758   5.234   0.565  13.072  0.6923  0.3222  0.8089
10115TIP3   OH251759   1.641   0.265  12.070  0.4682 -0.1341 -0.8224
10115TIP3    H151760   1.735   0.244  12.075  0.3449 -0.4551  0.7602
10115TIP3    H251761   1.598   0.179  12.062  0.1832 -0.2894  1.5874
10116TIP3   OH251762   1.948   0.302  16.365 -0.3951 -0.0104  0.0558
10116TIP3    H151763   1.975   0.216  16.331 -0.9113  0.6313 -2.1231
10116TIP3    H251764   2.029   0.353  16.369 -0.5156  0.3984 -1.8418
10117TIP3   OH251765   1.363   0.420   5.867  0.0241 -0.4603 -0.4231
10117TIP3    H151766   1.390   0.489   5.929 -1.3790  1.1957 -1.5549
10117TIP3    H251767   1.273   0.401   5.890 -0.4767  0.0777 -1.8126
10118TIP3   OH251768   1.424   4.478   2.337  0.2951 -0.0442 -0.2400
10118TIP3    H151769   1.470   4.554   2.300  0.7208 -0.5950 -0.8744
10118TIP3    H251770   1.380   4.512   2.414  0.8520  0.7532 -0.2559
10119TIP3   OH251771   0.064   5.086  12.882  0.1261  0.0536  0.4482
10119TIP3    H151772  -0.020   5.087  12.837  0.8142 -0.6387 -0.9114
10119TIP3    H251773   0.082   4.994  12.900 -0.2751  0.3195  2.5176
10120TIP3   OH251774   0.227   1.269   1.564  0.4049  0.6413  0.8249
10120TIP3    H151775   0.290   1.340   1.554 -0.0774  0.8860 -0.6832
10120TIP3    H251776   0.244   1.211   1.489 -0.5972  0.2742  0.8668
10121TIP3   OH251777   2.560   3.814  11.846 -0.4475 -0.3131  0.0036
10121TIP3    H151778   2.493   3.873  11.810 -0.4616 -0.4525 -0.1988
10121TIP3    H251779   2.617   3.794  11.772 -0.7050 -0.9197 -0.0375
10122TIP3   OH251780   1.573   3.097  15.009 -0.0055  0.4569 -0.0137
10122TIP3    H151781   1.635   3.100  14.936  0.0097  1.1241  0.0166
10122TIP3    H251782   1.575   3.007  15.039  2.0600  0.7703  0.9562
10123TIP3   OH251783   2.697   6.342  10.334 -0.4142  0.0238  0.5219
10123TIP3    H151784   2.620   6.291  10.359 -0.2968 -0.7978 -0.6785
10123TIP3    H251785   2.770   6.301  10.381 -0.1953 -1.4890 -1.0352
10124TIP3   OH251786   4.811   4.955  16.239 -0.1300  0.3228 -0.3906
10124TIP3    H151787   4.723   4.989  16.226  0.1007  0.1076 -3.0797
10124TIP3    H251788   4.811   4.920  16.328 -1.9828  2.4722  0.5251
10125TIP3   OH251789   1.726   4.275   1.866  0.3463  0.1565 -0.4371
10125TIP3    H151790   1.713   4.348   1.806  0.8768  0.0540 -0.6859
10125TIP3    H251791   1.675   4.298   1.944  1.3425  1.2867 -0.0871
10126TIP3   OH251792   5.618   5.453  13.417  0.8213  0.0215  0.0852
10126TIP3    H151793   5.671   5.528  13.390  0.9429  0.2494  0.9448
10126TIP3    H251794   5.528   5.486  13.414  0.6385 -0.5530 -2.0051
10127TIP3   OH251795   5.634   6.151  11.557 -0.2377 -0.5335 -0.6794
10127TIP3    H151796   5.679   6.072  11.526  2.5185  0.3874  0.6416
10127TIP3    H251797   5.646   6.215  11.487 -1.4255 -0.8909 -1.2345
10128TIP3   OH251798   0.310   3.442   0.270 -0.2354 -0.3526  0.1619
10128TIP3    H151799   0.243   3.509   0.284 -0.3831 -0.5783  0.5476
10128TIP3    H251800   0.276   3.365   0.316 -1.0904 -1.3426 -1.9434
10129TIP3   OH251801   4.508   4.646  15.605 -0.2503 -0.7307 -0.2408
10129TIP3    H151802   4.595   4.607  15.619 -0.0323  0.1974  1.1988
10129TIP3    H251803   4.526   4.728  15.558 -0.4130 -0.8211 -0.4623
10130TIP3   OH251804   5.307   3.875   3.656  0.0538 -0.7036 -0.3237
10130TIP3    H151805   5.378   3.919   3.702 -0.0064 -1.1196  0.1694
10130TIP3    H251806   5.242   3.944   3.641 -0.1271 -0.6582  0.6204
10131TIP3   OH251807   5.865   0.984  14.683 -0.0714  0.3195 -0.2404
10131TIP3    H151808   5.954   1.001  14.714 -0.1442  0.3981 -0.0723
10131TIP3    H251809   5.831   1.071  14.661 -0.4079  0.3875  0.5228
10132TIP3   OH251810   3.669   0.709   2.624  0.4784  0.9302 -0.0124
10132TIP3    H151811   3.722   0.703   2.544 -0.4790  2.6684 -0.8366
10132TIP3    H251812   3.618   0.789   2.613 -2.6288 -0.8207  0.5350
10133TIP3   OH251813   1.821   5.397   2.386 -0.4033 -0.7359  0.0102
10133TIP3    H151814   1.888   5.461   2.411 -0.9356  0.3210 -1.1195
10133TIP3    H251815   1.746   5.451   2.359 -0.4285 -1.7743 -2.2015
10134TIP3   OH251816   3.697   4.653  16.120 -0.3992  0.4197 -0.0882
10134TIP3    H151817   3.736   4.736  16.092 -1.6294  1.1521  0.2536
10134TIP3    H251818   3.770   4.592  16.125  0.7775  1.8415  1.0096
10135TIP3   OH251819   6.250   5.981  12.690 -0.5221 -0.6843 -0.9829
10135TIP3    H151820   6.200   6.031  12.755  1.2635  0.2687 -0.2604
10135TIP3    H251821   6.264   5.896  12.731 -0.3185 -0.4563 -0.5742
10136TIP3   OH251822   2.586   0.203   3.729  0.1342 -0.6611  0.0131
10136TIP3    H151823   2.507   0.255   3.715  0.3731 -0.2198  0.2880
10136TIP3    H251824   2.658   0.263   3.710  0.4036 -1.2685 -0.9675
10137TIP3   OH251825   1.040   2.423  14.863  0.1640 -0.3412 -0.4492
10137TIP3    H151826   1.048   2.508  14.820 -0.8480 -0.7526 -1.5133
10137TIP3    H251827   1.102   2.367  14.816  0.2353 -0.3914 -0.2947
10138TIP3   OH251828   4.543   3.443   1.777 -0.1400 -0.0553 -0.3042
10138TIP3    H151829   4.597   3.424   1.853  1.7426 -1.0613 -1.8026
10138TIP3    H251830   4.455   3.417   1.803  0.5375 -0.8307  1.3621
10139TIP3   OH251831   4.431   4.855  13.087 -0.5251  0.0639  0.4100
10139TIP3    H151832   4.416   4.939  13.043 -3.8956 -1.2986 -1.4000
10139TIP3    H251833   4.510   4.820  13.045 -0.2665  1.3859 -0.2758
10140TIP3   OH251834   4.147   0.951   5.402 -0.6312  0.1361 -0.2542
10140TIP3    H151835   4.203   0.909   5.468 -0.6730  1.4396  0.6500
10140TIP3    H251836   4.059   0.949   5.441 -0.3786  2.5051  0.6105
10141TIP3   OH251837   1.764   4.909  11.837  0.1649 -0.3231 -0.0900
10141TIP3    H151838   1.737   4.821  11.813  0.7087 -0.7356  0.7363
10141TIP3    H251839   1.810   4.897  11.921 -0.8987  0.9211  0.6982
10142TIP3   OH251840   2.209   0.140   0.172 -0.2516  0.3506  0.5085
10142TIP3    H151841   2.189   0.053   0.206 -0.6468  1.1646  2.5337
10142TIP3    H251842   2.215   0.129   0.078 -0.2635 -1.8636  0.7216
10143TIP3   OH251843   4.304   2.517  14.279  0.3294 -0.8963  0.3911
10143TIP3    H151844   4.389   2.525  14.323  0.3633 -0.4380  0.2516
10143TIP3    H251845   4.262   2.602  14.295  0.5500 -0.5332 -0.8909
10144TIP3   OH251846   3.724   2.406   0.551  1.1646  0.4511 -0.1940
10144TIP3    H151847   3.746   2.315   0.567 -1.0803 -0.4136 -1.5512
10144TIP3    H251848   3.646   2.403   0.496  0.1340  3.1687  0.8970
10145TIP3   OH251849   0.325   6.399  15.051  0.4160  0.0581 -0.3357
10145TIP3    H151850   0.351   6.362  15.135 -0.4473 -1.2326 -0.6152
10145TIP3    H251851   0.298   6.324  14.998  1.4502  0.7855 -1.9771
10146TIP3   OH251852   3.606   3.575   2.811  0.1404  0.4551  0.6987
10146TIP3    H151853   3.540   3.620   2.758 -0.3186  0.7988  1.5353
10146TIP3    H251854   3.581   3.483   2.806  0.5369  0.3927 -0.2697
10147TIP3   OH251855   0.763   5.002   1.144 -0.1868 -0.5269 -0.2460
10147TIP3    H151856   0.844   5.001   1.093 -0.5149  1.2259 -0.8919
10147TIP3    H251857   0.769   4.926   1.202  2.1229 -0.2057  0.0219
10148TIP3   OH251858   6.488   5.871  16.299  0.0387  0.0976 -0.1734
10148TIP3    H151859   6.558   5.933  16.323  2.4798 -2.2308 -0.8756
10148TIP3    H251860   6.461   5.898  16.211  0.5217  0.6201 -0.1687
10149TIP3   OH251861   2.888   6.425   6.294 -0.3293  0.1026 -0.0758
10149TIP3    H151862   2.808   6.466   6.260  1.0984  1.7120 -1.6974
10149TIP3    H251863   2.932   6.494   6.343  2.8162  1.2528 -3.9958
10150TIP3   OH251864   0.257   5.436   0.973  0.2333  0.2897 -0.4618
10150TIP3    H151865   0.192   5.421   0.905 -0.4433 -0.4170  0.3087
10150TIP3    H251866   0.316   5.361   0.967 -0.2308 -0.1405  0.1536
10151TIP3   OH251867   3.797   5.622   5.144  0.3657  0.6226 -0.3553
10151TIP3    H151868   3.837   5.706   5.162 -1.1641  1.2163  0.5276
10151TIP3    H251869   3.847   5.585   5.071 -0.7345  3.6349 -2.8317
10152TIP3   OH251870   0.808   4.070  14.989  0.3779 -0.1242 -0.6835
10152TIP3    H151871   0.736   4.134  14.986 -0.1931 -0.7662 -1.1678
10152TIP3    H251872   0.765   3.987  15.010  0.9540 -0.5508 -1.1520
10153TIP3   OH251873   0.157   3.213   1.569 -0.6001 -0.2573 -0.5876
10153TIP3    H151874   0.144   3.302   1.602  0.3171 -0.0024 -0.8646
10153TIP3    H251875   0.243   3.188   1.604  1.1020  0.5607 -3.8433
10154TIP3   OH251876   6.323   3.871  16.925 -0.3891  0.2941  0.4775
10154TIP3    H151877   6.395   3.895  16.983 -0.7794  1.1670  0.6165
10154TIP3    H251878   6.304   3.951  16.876 -0.6698 -0.1778 -0.2104
10155TIP3   OH251879   4.485   4.482  13.747  0.1200 -0.2360  0.3014
10155TIP3    H151880   4.419   4.488  13.816 -0.1778  0.5660 -0.0372
10155TIP3    H251881   4.473   4.395  13.710 -2.3250  0.6266 -1.2341
10156TIP3   OH251882   3.879   1.726   5.533  0.3917 -0.7457 -0.4412
10156TIP3    H151883   3.816   1.788   5.496  1.2793 -0.0310 -0.7926
10156TIP3    H251884   3.964   1.757   5.503  1.2308  0.1336  2.4531
10157TIP3   OH251885   2.773   1.681   6.075 -0.2220 -0.3086 -0.2813
10157TIP3    H151886   2.716   1.657   6.149  1.4332 -2.4499  0.4226
10157TIP3    H251887   2.862   1.679   6.111  0.5335 -0.0235 -2.0130
10158TIP3   OH251888   1.185   0.633   2.181  0.0776  0.3217  0.0180
10158TIP3    H151889   1.153   0.722   2.166 -0.2744  0.0408 -0.9262
10158TIP3    H251890   1.105   0.581   2.193  0.2306 -0.0784 -0.6483
10159TIP3   OH251891   3.175   3.908  12.477  0.1513  0.0203  0.0654
10159TIP3    H151892   3.085   3.920  12.446 -0.8853 -0.5358  2.6605
10159TIP3    H251893   3.210   3.837  12.424 -0.6295  0.7517 -1.5002
10160TIP3   OH251894   3.519   1.069   1.163  0.5582  0.5455  0.6145
10160TIP3    H151895   3.586   1.044   1.227  1.6367  0.3054 -0.5677
10160TIP3    H251896   3.543   1.157   1.136  0.7747  0.2247 -0.2731
10161TIP3   OH251897   2.253   0.878  10.623  0.0905 -0.4948  0.1027
10161TIP3    H151898   2.280   0.790  10.652  1.6595  0.4289  1.6955
10161TIP3    H251899   2.332   0.932  10.636 -1.1556  1.3751  0.2711
10162TIP3   OH251900   4.015   1.369  11.622 -0.1312 -0.2693 -0.0789
10162TIP3    H151901   4.020   1.400  11.532  0.4091 -1.1213 -0.3471
10162TIP3    H251902   4.000   1.449  11.674  0.4119  0.3348 -0.8285
10163TIP3   OH251903   6.281   4.641  15.670  0.1937 -0.2686  0.2046
10163TIP3    H151904   6.371   4.673  15.667  0.7343 -1.7833 -0.5018
10163TIP3    H251905   6.230   4.712  15.630  0.7779  1.3718  2.1875
10164TIP3   OH251906   1.932   6.647   0.974 -0.4287 -0.4158 -0.0024
10164TIP3    H151907   1.840   6.630   0.953 -0.4131 -1.7771  0.9010
10164TIP3    H251908   1.930   6.721   1.035 -0.6241  2.0293 -2.7586
10165TIP3   OH251909   6.710   2.945   1.174 -0.5750  0.0581 -0.7077
10165TIP3    H151910   6.771   2.946   1.099 -0.4748  0.1943 -0.6242
10165TIP3    H251911   6.719   3.031   1.213  0.0719 -0.3243  0.0222
10166TIP3   OH251912   5.566   2.447  13.958 -0.6243 -0.1959  0.3635
10166TIP3    H151913   5.517   2.509  14.013  1.1776  1.0947  0.6074
10166TIP3    H251914   5.565   2.488  13.871 -0.0711 -0.1921  0.3555
10167TIP3   OH251915   0.454   5.642  11.853 -0.0283 -0.4481  0.4187
10167TIP3    H151916   0.474   5.551  11.831 -0.8358 -1.0794  2.1601
10167TIP3    H251917   0.539   5.685  11.860  0.4838 -1.6826  2.0112
10168TIP3   OH251918   1.045   2.445   1.865 -0.1034 -0.1775 -0.2189
10168TIP3    H151919   1.023   2.508   1.797 -0.1774 -0.1252 -0.1476
10168TIP3    H251920   1.119   2.396   1.830  0.5338  0.5401  0.0871
10169TIP3   OH251921   4.619   1.606   3.562 -1.0867 -1.3096  0.5933
10169TIP3    H151922   4.524   1.622   3.557 -1.1632 -0.9688  2.4402
10169TIP3    H251923   4.649   1.664   3.632  0.5876 -1.0548 -0.2926
10170TIP3   OH251924   4.582   5.791   5.999  0.1702  0.0892  0.2646
10170TIP3    H151925   4.515   5.810   6.065 -0.0756 -1.7061  0.5838
10170TIP3    H251926   4.611   5.877   5.968 -1.1007  0.9238  1.3101
10171TIP3   OH251927   4.327   4.297  16.193 -0.0408 -0.1075  0.5216
10171TIP3    H151928   4.240   4.257  16.189 -0.0640 -0.2755  2.1078
10171TIP3    H251929   4.364   4.282  16.106 -1.0276 -1.3635  0.2847
10172TIP3   OH251930   2.759   5.942  13.661 -0.0488 -0.1220 -0.2197
10172TIP3    H151931   2.752   6.007  13.732 -0.6318 -0.8836  0.4359
10172TIP3    H251932   2.725   5.987  13.584 -0.7172  0.2577  0.2885
10173TIP3   OH251933   0.176   5.352  11.749 -0.2600 -0.2526  0.6330
10173TIP3    H151934   0.218   5.420  11.696  0.0062 -0.8459  0.0740
10173TIP3    H251935   0.120   5.304  11.688 -0.1568 -0.7734  0.9404
10174TIP3   OH251936   4.637   4.228  16.427  0.4038 -0.1861  0.1036
10174TIP3    H151937   4.554   4.275  16.440  0.6676  0.9657 -1.9695
10174TIP3    H251938   4.702   4.282  16.472  0.5176  0.8817 -1.2556
10175TIP3   OH251939   3.299   3.287   5.824  0.6369  0.1700  0.5318
10175TIP3    H151940   3.216   3.303   5.779  0.1925 -2.1580  0.3698
10175TIP3    H251941   3.278   3.292   5.917  0.0015 -1.5018  0.5137
10176TIP3   OH251942   1.696   4.506   0.124 -0.3074  0.1414 -0.3392
10176TIP3    H151943   1.605   4.477   0.135 -0.3135 -0.4344 -1.8098
10176TIP3    H251944   1.697   4.549   0.039  1.1300 -1.2635 -1.0813
10177TIP3   OH251945   4.296   3.685  15.793  0.2637 -0.3641  0.2811
10177TIP3    H151946   4.200   3.686  15.786  0.3710 -0.1915 -1.6660
10177TIP3    H251947   4.317   3.766  15.838 -0.4587  0.3202 -0.5565
10178TIP3   OH251948   5.043   1.020  13.304 -0.6033 -0.5528  0.9242
10178TIP3    H151949   5.055   0.952  13.371  1.0259  0.1013  1.3359
10178TIP3    H251950   5.048   0.972  13.221 -0.1821 -1.0289  1.2211
10179TIP3   OH251951   3.326   6.231   5.448  0.2146  0.0764  0.1753
10179TIP3    H151952   3.300   6.321   5.430  0.1865  0.3278  1.4073
10179TIP3    H251953   3.391   6.211   5.381  0.2290  1.0115 -0.1020
10180TIP3   OH251954   2.369   4.627  15.502  0.0332  0.0207  0.1621
10180TIP3    H151955   2.316   4.662  15.573  0.8657  1.3364  0.1693
10180TIP3    H251956   2.366   4.694  15.434 -0.4533 -1.0606 -0.9229
10181TIP3   OH251957   0.880   2.244  16.259  0.0709  0.1499  0.5345
10181TIP3    H151958   0.898   2.171  16.200  0.9861  0.8422 -0.0661
10181TIP3    H251959   0.914   2.215  16.344 -0.4912 -0.5079  0.5534
10182TIP3   OH251960   4.440   6.452   2.165  0.4810  0.6456 -0.3944
10182TIP3    H151961   4.376   6.469   2.234 -0.0251 -0.5360 -0.5564
10182TIP3    H251962   4.420   6.363   2.135  2.1218  0.2930 -0.5249
10183TIP3   OH251963   6.684   5.858   2.611 -0.7164 -0.3972  0.2282
10183TIP3    H151964   6.590   5.877   2.621 -0.3979  1.7505 -0.3228
10183TIP3    H251965   6.723   5.890   2.693 -0.2606  0.5216 -0.3343
10184TIP3   OH251966   0.184   0.861  15.174 -0.1285  0.1099  0.3108
10184TIP3    H151967   0.153   0.852  15.084 -1.0927  0.7662  0.5659
10184TIP3    H251968   0.105   0.865  15.227  0.4317 -1.3520  1.3163
10185TIP3   OH251969   6.333   5.074   0.021 -0.6376 -0.2607  0.5734
10185TIP3    H151970   6.413   5.057  -0.028 -1.0427  0.1954 -0.2720
10185TIP3    H251971   6.350   5.157   0.066 -1.1365  0.6003 -0.7624
10186TIP3   OH251972   1.641   6.610   4.040  0.2442  0.0729 -0.6127
10186TIP3    H151973   1.678   6.696   4.025  1.9028 -0.8066 -1.8528
10186TIP3    H251974   1.581   6.596   3.966 -0.1675  0.2296 -0.3114
10187TIP3   OH251975   6.555   5.083   1.218 -0.0347  0.3852  0.1389
10187TIP3    H151976   6.558   5.027   1.296 -0.1842  0.2429  0.0425
10187TIP3    H251977   6.640   5.127   1.217 -0.2048  0.7427  0.6421
10188TIP3   OH251978   2.560   4.850   4.364  0.0964 -0.0248 -0.1142
10188TIP3    H151979   2.613   4.871   4.287  1.2520  1.1192  0.9388
10188TIP3    H251980   2.590   4.763   4.391  2.0685  0.8896  0.8860
10189TIP3   OH251981   1.261   4.098  11.840  0.1972 -0.1010 -0.0293
10189TIP3    H151982   1.294   4.187  11.828  0.3200  0.1899  2.0476
10189TIP3    H251983   1.329   4.054  11.891 -0.8981 -0.6263  1.0472
10190TIP3   OH251984   3.708   5.505  13.460 -0.2247  0.0495 -0.0468
10190TIP3    H151985   3.765   5.488  13.536 -1.0772 -0.0711  0.5794
10190TIP3    H251986   3.710   5.423  13.411 -1.7734 -0.8227  1.2687
10191TIP3   OH251987   4.940   1.698  14.950  0.4786  0.0874 -0.2633
10191TIP3    H151988   4.876   1.759  14.913  0.6491  1.8726  2.1288
10191TIP3    H251989   4.890   1.618  14.964 -1.8954  1.8852  2.9941
10192TIP3   OH251990   0.996   1.020  16.211 -0.3550 -0.3814  0.2029
10192TIP3    H151991   1.001   1.114  16.230  0.6926  0.4960 -3.6012
10192TIP3    H251992   1.062   0.981  16.267  1.0721  1.5647 -0.0261
10193TIP3   OH251993   1.082   5.143   2.277 -0.4167  0.0165  0.2980
10193TIP3    H151994   1.000   5.097   2.296 -0.4168  0.2083  0.8020
10193TIP3    H251995   1.108   5.113   2.190 -0.8296 -0.3255  0.2907
10194TIP3   OH251996   2.017   1.649  15.984  0.0670 -0.5230 -0.5996
10194TIP3    H151997   1.996   1.599  15.905 -1.6247 -2.0665  0.7369
10194TIP3    H251998   1.936   1.696  16.004  0.3049 -0.5421  0.4631
10195TIP3   OH251999   0.143   3.273  14.921  0.2572 -0.2378 -0.2338
10195TIP3    H152000   0.140   3.223  15.003  0.3632  1.1347  0.6504
10195TIP3    H252001   0.204   3.225  14.866  1.6543 -0.2035  1.2054
10196TIP3   OH252002   6.746   0.616  10.961 -0.0441 -0.2853 -0.5349
10196TIP3    H152003   6.797   0.619  11.042  2.3921 -0.4790 -1.9616
10196TIP3    H252004   6.739   0.707  10.933  1.1215 -0.4094 -1.2594
10197TIP3   OH252005   4.229   4.767  16.615  0.2477 -0.3677 -0.0287
10197TIP3    H152006   4.199   4.840  16.561 -0.6530 -0.2652  0.5695
10197TIP3    H252007   4.321   4.785  16.631 -0.4761  2.1405  2.3059
10198TIP3   OH252008   3.468   5.583  13.046  0.0885 -0.1560 -0.7340
10198TIP3    H152009   3.543   5.624  13.088 -0.2833 -0.0731 -0.1348
10198TIP3    H252010   3.477   5.490  13.065  0.3995 -0.2320 -1.2429
10199TIP3   OH252011   4.802   5.691  13.782  0.1135  0.7143 -0.1489
10199TIP3    H152012   4.779   5.599  13.793  1.1613  0.6661  2.0424
10199TIP3    H252013   4.892   5.691  13.751 -0.0002  1.0050 -0.4925
10200TIP3   OH252014   3.560   3.718  14.207  0.2340  0.0502 -0.5273
10200TIP3    H152015   3.529   3.789  14.263  2.1992 -1.4703  2.8335
10200TIP3    H252016   3.656   3.728  14.208  0.5418 -2.3764 -0.1754
10201TIP3   OH252017   0.298   5.653  16.057 -0.2115  0.3841  0.1417
10201TIP3    H152018   0.301   5.557  16.061  0.3364  0.4471  2.5560
10201TIP3    H252019   0.240   5.679  16.128  0.8008  1.8696  0.4859
10202TIP3   OH252020   5.677   4.662   5.208  0.4436  0.6723 -0.3133
10202TIP3    H152021   5.598   4.698   5.169 -1.2677 -2.8565 -0.4790
10202TIP3    H252022   5.663   4.668   5.302  0.1311  0.4317 -0.3429
10203TIP3   OH252023   3.068   3.334   1.628  0.9254  0.1493  0.0505
10203TIP3    H152024   3.082   3.412   1.575  0.5590 -0.0931 -0.4134
10203TIP3    H252025   3.116   3.265   1.582  0.7872 -0.0166  0.1540
10204TIP3   OH252026   6.091   2.637   1.369  0.3434  0.5930 -0.0264
10204TIP3    H152027   6.082   2.661   1.277 -1.6949 -1.6177 -0.4993
10204TIP3    H252028   6.157   2.568   1.370  1.2808  1.4847  0.3637
10205TIP3   OH252029   3.270   5.062   3.157 -0.6627 -0.0912  0.0806
10205TIP3    H152030   3.188   5.049   3.206 -0.7138  0.6572  0.2016
10205TIP3    H252031   3.327   5.109   3.218 -0.4595  0.1732 -0.3148
10206TIP3   OH252032   5.802   4.025   3.899  0.5088 -0.6322  0.6636
10206TIP3    H152033   5.808   4.076   3.818 -3.9095 -1.0390 -0.1395
10206TIP3    H252034   5.875   3.964   3.894  3.4273  2.6063 -0.4246
10207TIP3   OH252035   4.065   2.562   6.539 -0.2311 -0.1645 -0.3382
10207TIP3    H152036   3.985   2.596   6.499 -0.3662  0.6282  0.5573
10207TIP3    H252037   4.037   2.525   6.622  0.2661 -0.3074 -0.2297
10208TIP3   OH252038   1.084   0.538  15.875 -0.4674 -0.4895  0.1178
10208TIP3    H152039   0.995   0.562  15.850  0.4755  1.2625 -1.9647
10208TIP3    H252040   1.107   0.601  15.943 -0.5871 -0.4827  0.1519
10209TIP3   OH252041   2.962   3.034  11.197 -0.0399  0.1318  0.0996
10209TIP3    H152042   2.964   3.084  11.279  0.3776 -0.3821  0.4041
10209TIP3    H252043   2.977   3.100  11.129 -0.4570  0.5743  0.4221
10210TIP3   OH252044   2.472   3.333  15.994 -0.5457  0.3256 -0.0382
10210TIP3    H152045   2.429   3.356  15.911  0.2430  0.2481 -0.4722
10210TIP3    H252046   2.549   3.390  15.998 -0.2413 -0.1043  0.3511
10211TIP3   OH252047   3.028   1.462   3.355 -0.6134  0.1858 -0.2824
10211TIP3    H152048   3.037   1.521   3.430 -2.0788  1.1007 -0.7752
10211TIP3    H252049   3.095   1.492   3.293 -0.9713  0.9846 -0.2950
10212TIP3   OH252050   0.170   3.319  13.963 -0.3601 -0.5538  0.2789
10212TIP3    H152051   0.138   3.231  13.982 -1.3190 -0.2159  0.2897
10212TIP3    H252052   0.109   3.353  13.897  0.4316 -0.1580 -0.2592
10213TIP3   OH252053   2.067   1.323  12.728  0.2174 -0.1558  0.4251
10213TIP3    H152054   2.153   1.342  12.766  0.1648 -0.7322  0.8542
10213TIP3    H252055   2.058   1.228  12.736 -0.3705 -0.1241  0.1909
10214TIP3   OH252056   2.825   4.657  10.640  0.2891  0.2176 -0.0168
10214TIP3    H152057   2.859   4.607  10.714  1.6478  0.9656 -0.1036
10214TIP3    H252058   2.730   4.651  10.649  0.4197 -1.3322  0.6602
10215TIP3   OH252059   6.775   5.397   6.104 -0.1236 -0.3214 -0.3935
10215TIP3    H152060   6.695   5.393   6.050  0.5523 -0.1014 -1.4421
10215TIP3    H252061   6.846   5.383   6.041  0.8136  1.8876  0.1133
10216TIP3   OH252062   3.539   0.442   0.532 -1.0512  0.4207 -0.6781
10216TIP3    H152063   3.465   0.404   0.579 -0.4657 -0.2492 -0.2834
10216TIP3    H252064   3.510   0.530   0.508 -3.0888 -0.7900 -3.1059
10217TIP3   OH252065   4.157   4.995  11.674  0.4169  0.3082  0.1789
10217TIP3    H152066   4.148   4.980  11.768  0.7657  0.8102  0.2961
10217TIP3    H252067   4.123   5.084  11.661 -2.0237 -0.6453 -0.5611
10218TIP3   OH252068   2.425   3.887   5.928 -0.7265 -0.5889  0.5571
10218TIP3    H152069   2.404   3.968   5.975  1.0117  1.0546 -1.2907
10218TIP3    H252070   2.518   3.873   5.947 -0.6213 -1.2666 -0.3917
10219TIP3   OH252071   3.107   4.758   6.212  0.4679  0.1543  0.5401
10219TIP3    H152072   3.063   4.829   6.258  0.5529 -0.5585  1.7619
10219TIP3    H252073   3.191   4.749   6.257  0.4177 -0.7735  0.4711
10220TIP3   OH252074   0.113   1.461  16.456 -0.9999  0.9726 -0.9105
10220TIP3    H152075   0.030   1.423  16.427 -0.0661 -0.2720 -2.0659
10220TIP3    H252076   0.118   1.441  16.549 -1.6292  0.3401 -1.0036
10221TIP3   OH252077   5.149   5.992  16.824 -0.4392  0.3797 -0.1413
10221TIP3    H152078   5.235   5.966  16.792  0.5806  2.6757  0.4922
10221TIP3    H252079   5.151   5.975  16.918  0.1718  2.3119  0.2481
10222TIP3   OH252080   3.028   0.510   2.927 -0.2972  0.4423 -0.1093
10222TIP3    H152081   3.030   0.453   3.004  0.1308 -1.9124 -1.7457
10222TIP3    H252082   3.109   0.561   2.934  1.0342 -1.5206 -0.1705
10223TIP3   OH252083   4.414   4.844  16.067  0.3075  0.7733 -0.1374
10223TIP3    H152084   4.497   4.800  16.086  0.1433  0.3828 -0.3041
10223TIP3    H252085   4.388   4.809  15.982 -0.9761 -0.5597  0.7586
10224TIP3   OH252086   6.720   4.779   5.587 -0.1758  0.3863 -0.6384
10224TIP3    H152087   6.719   4.875   5.579 -0.6963  0.4340 -0.1192
10224TIP3    H252088   6.808   4.759   5.619 -0.5437  0.8392  0.7364
10225TIP3   OH252089   4.302   1.895  15.843 -0.1622  0.4084  0.2415
10225TIP3    H152090   4.209   1.910  15.859 -0.2295 -1.8694  2.6057
10225TIP3    H252091   4.342   1.981  15.854 -1.8719  1.3203 -0.1530
10226TIP3   OH252092   2.791   1.450  10.616 -0.3489  0.3246  0.2777
10226TIP3    H152093   2.696   1.445  10.600 -0.4648  0.6529  0.8502
10226TIP3    H252094   2.808   1.386  10.685  0.2364 -1.4397 -1.4030
10227TIP3   OH252095   3.269   2.178  14.194  0.0848  0.4098 -0.6683
10227TIP3    H152096   3.235   2.257  14.235 -3.8137 -0.8917 -0.9991
10227TIP3    H252097   3.270   2.112  14.264 -1.9240 -0.5405 -1.4377
10228TIP3   OH252098   2.581   0.028  13.511  0.6000  0.1307  0.7450
10228TIP3    H152099   2.600  -0.065  13.518 -1.3553 -0.3886 -0.0977
10228TIP3    H252100   2.556   0.055  13.599  0.2670 -0.3745  0.8086
10229TIP3   OH252101   1.245   4.232   3.771 -0.3459  0.0452 -0.0432
10229TIP3    H152102   1.318   4.259   3.826 -1.3368  1.4549  0.6574
10229TIP3    H252103   1.283   4.169   3.710  1.7461  1.6477 -0.5341
10230TIP3   OH252104   3.893   0.709   5.682  0.5999  0.0693  0.0125
10230TIP3    H152105   3.891   0.744   5.593  2.2628 -1.2316 -0.5962
10230TIP3    H252106   3.945   0.773   5.732  0.6879  0.1997 -0.2447
10231TIP3   OH252107   1.709   0.993  16.075 -0.1750  0.1135  0.1797
10231TIP3    H152108   1.774   0.975  16.143 -1.5065 -1.8825  1.0523
10231TIP3    H252109   1.734   0.937  16.002  0.1560  0.7944 -0.2385
10232TIP3   OH252110   5.110   0.372   4.522 -0.5548  0.0510  0.1168
10232TIP3    H152111   5.072   0.365   4.609  0.8130 -2.0833  0.6006
10232TIP3    H252112   5.082   0.292   4.477  3.1094 -1.6261  0.4752
10233TIP3   OH252113   3.472   4.268  14.883  0.5885 -0.3380  0.5550
10233TIP3    H152114   3.429   4.193  14.926 -2.3159  1.1618  0.4878
10233TIP3    H252115   3.490   4.329  14.954  0.3734  0.0748  0.2533
10234TIP3   OH252116   6.333   1.915   3.859  0.1885 -0.3213  0.2132
10234TIP3    H152117   6.380   1.949   3.782  1.6535 -0.1588  1.1348
10234TIP3    H252118   6.274   1.985   3.884  0.6642  0.1605  0.0175
10235TIP3   OH252119   2.793   0.410   3.660  0.4649  0.0584 -0.3884
10235TIP3    H152120   2.779   0.477   3.727  0.8223  1.0085 -1.2466
10235TIP3    H252121   2.812   0.459   3.580 -0.9231 -1.0486 -1.4283
10236TIP3   OH252122   2.577   4.203   3.890 -0.0351  0.0370  0.1780
10236TIP3    H152123   2.597   4.110   3.901 -2.0789 -0.4040  0.4641
10236TIP3    H252124   2.563   4.235   3.979  0.2556  0.5295  0.0480
10237TIP3   OH252125   6.176   6.043  10.726  0.0724 -0.0925  0.3047
10237TIP3    H152126   6.141   6.125  10.759 -0.2221 -0.2813  0.4677
10237TIP3    H252127   6.101   5.983  10.726 -0.1535  0.1493 -1.5815
10238TIP3   OH252128   5.164   2.843  15.422  0.4854  0.3710 -0.1095
10238TIP3    H152129   5.195   2.763  15.465 -0.6322  0.3130  0.6237
10238TIP3    H252130   5.231   2.862  15.356  1.3766 -0.4897  0.5166
10239TIP3   OH252131   2.784   4.822  15.572  0.0877  1.4022 -0.0845
10239TIP3    H152132   2.816   4.890  15.512  1.2888 -1.4408 -2.9074
10239TIP3    H252133   2.861   4.771  15.594 -0.9940  0.0813  0.8061
10240TIP3   OH252134   0.296   2.462  16.218  0.0149 -1.0277 -0.1607
10240TIP3    H152135   0.229   2.408  16.260 -0.1660 -1.8605 -1.4632
10240TIP3    H252136   0.247   2.535  16.180 -0.0698 -1.2503 -0.4858
10241TIP3   OH252137   3.282   4.294  16.210  0.1460  0.9861  0.1013
10241TIP3    H152138   3.377   4.294  16.222  0.4635 -0.2700 -1.9887
10241TIP3    H252139   3.253   4.376  16.251  2.1094  1.4127  0.7454
10242TIP3   OH252140   0.235   2.906  15.516  0.1252 -0.1052  0.0570
10242TIP3    H152141   0.289   2.985  15.515  1.2820 -0.6719  3.5348
10242TIP3    H252142   0.295   2.836  15.541 -1.6743 -1.2798  1.3108
10243TIP3   OH252143   1.530   5.340  13.916 -0.3023  0.3897  0.2078
10243TIP3    H152144   1.622   5.366  13.920 -0.3377  0.4147  0.9627
10243TIP3    H252145   1.533   5.245  13.904 -0.1749  0.4272 -0.0580
10244TIP3   OH252146   3.429   3.311  13.289 -0.1835  0.1776 -0.4804
10244TIP3    H152147   3.513   3.347  13.317 -0.1332  0.1795 -0.6393
10244TIP3    H252148   3.381   3.386  13.253 -0.6963  0.4227  0.6500
10245TIP3   OH252149   1.384   2.121  15.350 -0.4441  0.3726  0.6004
10245TIP3    H152150   1.346   2.199  15.391  0.5506  1.1523  0.0797
10245TIP3    H252151   1.311   2.060  15.340 -0.9906  0.7421  2.1676
10246TIP3   OH252152   2.812   2.773   3.381 -0.0911  0.6857 -0.2407
10246TIP3    H152153   2.804   2.820   3.298 -1.6352  2.3105  0.7536
10246TIP3    H252154   2.807   2.681   3.357 -1.0679  1.1296 -1.8968
10247TIP3   OH252155   3.582   3.340   6.349 -0.0823 -0.2546  0.4490
10247TIP3    H152156   3.497   3.337   6.306  0.2602 -1.7908 -0.1924
10247TIP3    H252157   3.592   3.431   6.376 -1.9605 -0.0665  0.6284
10248TIP3   OH252158   1.045   0.778   5.456  0.1932  0.2374 -0.6408
10248TIP3    H152159   1.121   0.809   5.407  0.2060 -1.1518 -1.5413
10248TIP3    H252160   1.080   0.709   5.513 -0.3644 -0.3725 -1.0260
10249TIP3   OH252161   2.486   0.151   2.235 -0.2044  0.5880  0.5445
10249TIP3    H152162   2.442   0.089   2.177  1.1139  0.2618 -0.1408
10249TIP3    H252163   2.442   0.140   2.319 -0.2303 -1.0447  0.3528
10250TIP3   OH252164   6.459   1.059   0.670 -0.4507  0.1390  0.3245
10250TIP3    H152165   6.450   0.999   0.744 -2.9553  0.4360  0.3562
10250TIP3    H252166   6.424   1.142   0.702 -0.6676  0.5410 -0.8889
10251TIP3   OH252167   3.528   5.866  16.993  0.2941 -0.7977 -0.3328
10251TIP3    H152168   3.591   5.911  16.937  0.4398 -1.0730 -0.3926
10251TIP3    H252169   3.474   5.816  16.932  0.1502 -0.7239 -0.2645
10252TIP3   OH252170   3.738   0.144  14.715  0.0385  0.2632  0.4287
10252TIP3    H152171   3.775   0.212  14.771  1.3553  0.2796 -0.4174
10252TIP3    H252172   3.768   0.062  14.753  1.1223  0.2807 -0.3430
10253TIP3   OH252173   0.403   3.040   3.384 -0.4254  0.3734  0.1416
10253TIP3    H152174   0.328   3.059   3.440 -2.2733 -2.9860 -0.9400
10253TIP3    H252175   0.429   2.951   3.407  2.2135  0.8139 -0.7174
10254TIP3   OH252176   6.688   3.830  14.110 -0.0031 -0.0090  0.1612
10254TIP3    H152177   6.630   3.757  14.089  0.3489  0.0541 -1.1391
10254TIP3    H252178   6.671   3.849  14.202 -2.1281  0.0651 -0.1927
10255TIP3   OH252179   5.283   3.065   1.683  0.6802 -0.6907 -0.0174
10255TIP3    H152180   5.212   3.024   1.634 -0.8112  0.5415  1.0549
10255TIP3    H252181   5.303   3.144   1.633  0.0482 -0.1041  0.6539
10256TIP3   OH252182   2.021   6.144   5.164  0.1480  0.2599 -0.7748
10256TIP3    H152183   2.094   6.204   5.148  1.0842 -0.5448  0.3458
10256TIP3    H252184   2.006   6.148   5.258  0.8145 -1.8638 -0.5161
10257TIP3   OH252185   4.712   2.454  11.033  0.0215 -0.9363 -0.9569
10257TIP3    H152186   4.636   2.420  10.985 -1.2136  0.7334 -0.2760
10257TIP3    H252187   4.692   2.547  11.047  2.1261 -0.4836 -0.5986
10258TIP3   OH252188   3.861   2.477  16.947 -0.1689  0.5154  0.0833
10258TIP3    H152189   3.852   2.562  16.904  1.0283 -0.1982 -1.6833
10258TIP3    H252190   3.925   2.430  16.895 -0.4576 -1.3284  1.2877
10259TIP3   OH252191   5.114   4.319  16.226 -0.8374 -0.1105  0.2077
10259TIP3    H152192   5.135   4.374  16.150 -0.3907  0.3684  0.6775
10259TIP3    H252193   5.040   4.364  16.268 -0.0248  0.5320  0.9906
10260TIP3   OH252194   6.464   2.166   3.248 -0.1591  0.3903  0.3719
10260TIP3    H152195   6.401   2.176   3.177 -0.4671  2.6348  0.9028
10260TIP3    H252196   6.493   2.255   3.268  0.3247 -0.2094  2.6780
10261TIP3   OH252197   2.582   3.899  11.583  0.5189 -0.3666 -0.2079
10261TIP3    H152198   2.605   3.972  11.526 -0.7360  0.3271  0.1338
10261TIP3    H252199   2.645   3.831  11.561  1.8355  0.8628 -0.4196
10262TIP3   OH252200   6.426   4.169  12.783 -0.0547  0.0313  0.0245
10262TIP3    H152201   6.372   4.242  12.755 -0.6424 -0.2943  0.2926
10262TIP3    H252202   6.505   4.209  12.820 -0.5103  0.5313  0.4644
10263TIP3   OH252203   0.655   0.623  12.494 -0.2309 -0.1400  0.4311
10263TIP3    H152204   0.701   0.657  12.570  1.1192 -1.4027  0.2335
10263TIP3    H252205   0.696   0.666  12.419 -0.3413 -0.2142  0.3262
10264TIP3   OH252206   5.788   6.455  15.739 -0.4182  0.1064 -0.2995
10264TIP3    H152207   5.840   6.406  15.803  0.1383  0.6889 -0.3001
10264TIP3    H252208   5.755   6.387  15.679 -0.1021 -0.3260  0.0082
10265TIP3   OH252209   5.135   4.578  13.117 -0.1271  0.0091 -0.5920
10265TIP3    H152210   5.117   4.667  13.145 -0.7798 -0.3322  0.0882
10265TIP3    H252211   5.188   4.541  13.188 -0.3199 -0.3144 -0.6162
10266TIP3   OH252212   6.429   5.797   4.639 -0.0721 -0.0218  0.3368
10266TIP3    H152213   6.447   5.766   4.550  0.4036 -1.4149  0.8847
10266TIP3    H252214   6.470   5.731   4.696 -0.7546  0.6031  1.5924
10267TIP3   OH252215   1.688   6.604   1.751  0.2097  0.3522  1.1707
10267TIP3    H152216   1.782   6.595   1.736  0.0813  0.1684  0.3932
10267TIP3    H252217   1.680   6.666   1.823  1.0046 -1.5993  3.0301
10268TIP3   OH252218   5.890   4.953   2.687 -0.2046  0.1815 -0.0366
10268TIP3    H152219   5.958   4.887   2.698 -0.5340 -0.3012 -0.8643
10268TIP3    H252220   5.938   5.033   2.664  0.0210 -0.5486 -2.3507
10269TIP3   OH252221   6.728   5.966   3.559 -0.3135  0.0576  0.1235
10269TIP3    H152222   6.746   6.014   3.478 -0.3956  1.9519  1.1892
10269TIP3    H252223   6.713   6.033   3.625  0.0025 -1.4305  1.7988
10270TIP3   OH252224   5.932   4.194   0.206 -0.4410 -0.0155 -0.1488
10270TIP3    H152225   5.850   4.156   0.238 -0.4492  0.8393  0.9386
10270TIP3    H252226   5.907   4.280   0.173  0.0038  0.2278  0.1405
10271TIP3   OH252227   3.890   1.810   4.853 -0.2842  0.2439 -0.3944
10271TIP3    H152228   3.947   1.819   4.930  0.5283 -0.3673 -0.9124
10271TIP3    H252229   3.950   1.800   4.779 -1.0607 -0.1688 -0.9846
10272TIP3   OH252230   0.734   1.562  16.789  1.0375 -0.1883 -0.0571
10272TIP3    H152231   0.695   1.479  16.817  0.0013 -0.0545 -1.0420
10272TIP3    H252232   0.696   1.579  16.703  0.4381  1.8412  0.5546
10273TIP3   OH252233   0.954   4.260  15.132  0.3652 -0.6245  0.1720
10273TIP3    H152234   0.940   4.331  15.070 -1.2551 -0.9347  0.1475
10273TIP3    H252235   0.930   4.181  15.084  0.0388 -0.9675  0.8861
10274TIP3   OH252236   5.424   1.166   0.756  0.3578  0.1540 -0.1800
10274TIP3    H152237   5.456   1.098   0.697  1.9178  0.0686  0.6977
10274TIP3    H252238   5.447   1.248   0.713 -2.0990  0.1943 -1.5452
10275TIP3   OH252239   4.150   6.089   1.015 -0.0475  0.2231 -0.2013
10275TIP3    H152240   4.088   6.055   1.079 -0.1942  1.4128  0.3234
10275TIP3    H252241   4.227   6.112   1.067 -0.0183  0.8304 -0.5095
10276TIP3   OH252242   0.293   6.133  12.596 -0.6135  0.1249 -0.7184
10276TIP3    H152243   0.259   6.215  12.560 -1.0988  0.6642  0.8868
10276TIP3    H252244   0.376   6.120  12.551  0.4307  2.5409  0.3589
10277TIP3   OH252245   6.260   1.485   5.393  0.1311 -0.3371  0.3653
10277TIP3    H152246   6.346   1.491   5.435 -1.0614  0.5498  2.8633
10277TIP3    H252247   6.213   1.563   5.422 -1.9180 -1.3532 -0.0315
10278TIP3   OH252248   5.286   2.851   5.032  0.1065  0.0711  0.6418
10278TIP3    H152249   5.312   2.804   5.111 -1.8194  0.4835  1.5791
10278TIP3    H252250   5.284   2.943   5.058 -0.3648  0.2328  0.0681
10279TIP3   OH252251   4.673   4.534  16.174 -0.3655 -0.2173 -0.4390
10279TIP3    H152252   4.614   4.498  16.240 -0.1999  0.6741  0.2203
10279TIP3    H252253   4.624   4.529  16.092 -0.7406 -0.9394 -0.1833
10280TIP3   OH252254   6.749   2.714   5.733  0.4784 -0.0164  0.0283
10280TIP3    H152255   6.731   2.806   5.753  1.4047  0.0593  0.6073
10280TIP3    H252256   6.734   2.669   5.816  0.7419 -0.2698 -0.0603
10281TIP3   OH252257   3.642   5.967   3.440 -0.1135 -0.0977 -0.1441
10281TIP3    H152258   3.713   5.967   3.504 -1.3043 -1.4740  1.2741
10281TIP3    H252259   3.663   5.896   3.380  1.2166  1.4605 -1.5897
10282TIP3   OH252260   0.674   0.141  14.997 -0.0463 -0.1590 -0.3143
10282TIP3    H152261   0.652   0.200  14.925  1.5534 -0.8335 -1.4002
10282TIP3    H252262   0.688   0.199  15.072  0.0888  0.7320 -1.0141
10283TIP3   OH252263   5.313   4.170  10.969 -0.0951 -0.5012  0.6040
10283TIP3    H152264   5.295   4.082  10.999  1.0946 -0.6884  0.8012
10283TIP3    H252265   5.269   4.227  11.032 -1.3900 -0.9419  0.1239
10284TIP3   OH252266   4.591   3.160  16.012 -0.0181 -1.0687 -0.0692
10284TIP3    H152267   4.681   3.135  16.034  0.2567  0.1464  0.3200
10284TIP3    H252268   4.601   3.219  15.937 -0.2436  0.7443  1.2362
10285TIP3   OH252269   5.251   4.918   5.920 -0.8896 -0.2536  0.2144
10285TIP3    H152270   5.322   4.870   5.962 -0.6266 -0.6825 -0.7002
10285TIP3    H252271   5.265   4.904   5.826 -1.4055  0.7590 -0.0267
10286TIP3   OH252272   6.380   4.471  13.886  0.1580  0.4160  0.2719
10286TIP3    H152273   6.299   4.432  13.855 -0.1533 -0.5652  2.1654
10286TIP3    H252274   6.437   4.473  13.809 -1.1689 -0.1685 -0.7625
10287TIP3   OH252275   0.738   2.757  14.751 -0.0673 -1.0332 -0.2440
10287TIP3    H152276   0.806   2.748  14.685  0.2932 -1.4307  0.1708
10287TIP3    H252277   0.712   2.668  14.771 -2.1584 -0.8459 -1.8392
10288TIP3   OH252278   3.812   4.121   5.743 -0.0714 -0.1894  0.3869
10288TIP3    H152279   3.830   4.184   5.673  0.7838  0.5762  1.2674
10288TIP3    H252280   3.725   4.086   5.722 -0.4177  1.0271 -0.3126
10289TIP3   OH252281   0.977   2.862   5.264 -0.5140 -0.4703  0.2869
10289TIP3    H152282   0.919   2.870   5.339 -0.7763  1.5227 -0.0653
10289TIP3    H252283   0.932   2.908   5.193  1.8162  2.0534  0.2576
10290TIP3   OH252284   5.662   2.226   5.861 -0.7503  0.8246 -0.0379
10290TIP3    H152285   5.591   2.186   5.911 -1.7249  0.6414 -1.4891
10290TIP3    H252286   5.741   2.178   5.889 -1.7114 -1.3801 -0.8575
10291TIP3   OH252287   6.086   3.593   0.815  0.3759  0.2866  0.0043
10291TIP3    H152288   6.038   3.512   0.797 -1.8401  0.8526  2.7473
10291TIP3    H252289   6.157   3.566   0.873  0.4297  0.1536 -0.1210
10292TIP3   OH252290   5.134   3.077   2.231 -0.3925 -0.0685 -0.0218
10292TIP3    H152291   5.177   2.991   2.227 -0.9330 -0.3503 -3.9444
10292TIP3    H252292   5.200   3.138   2.199 -0.9785  0.4496 -0.2547
10293TIP3   OH252293   4.712   6.512   4.351  0.2542  0.4919 -0.1810
10293TIP3    H152294   4.718   6.515   4.447 -2.1940  0.8082  0.0384
10293TIP3    H252295   4.720   6.603   4.324 -2.1479  0.8547  0.0726
10294TIP3   OH252296   2.355   4.114   4.076 -0.2315  0.1947 -0.1208
10294TIP3    H152297   2.423   4.051   4.098 -1.4863 -1.0215  0.4295
10294TIP3    H252298   2.362   4.125   3.981  3.1880  3.0716  0.2845
10295TIP3   OH252299   3.828   1.062  15.101  0.4637  0.3829 -0.3822
10295TIP3    H152300   3.758   1.115  15.137 -0.2923  0.0339 -1.2832
10295TIP3    H252301   3.836   0.988  15.161  0.6762  0.8700  0.2014
10296TIP3   OH252302   0.907   6.626   2.661 -0.2516 -0.3023  0.9317
10296TIP3    H152303   0.961   6.562   2.707  0.2879 -1.3540 -1.0237
10296TIP3    H252304   0.965   6.662   2.593 -1.6592 -0.6474 -0.5201
10297TIP3   OH252305   4.344   3.539  14.193 -0.2583 -0.6289  1.2638
10297TIP3    H152306   4.271   3.494  14.150 -0.3132 -1.4056  2.1324
10297TIP3    H252307   4.317   3.631  14.196  0.2843 -0.3071 -1.4194
10298TIP3   OH252308   2.472   3.480   0.558 -0.3423 -0.4624 -0.0924
10298TIP3    H152309   2.472   3.400   0.506  0.9997  0.1468 -1.0751
10298TIP3    H252310   2.559   3.517   0.546 -0.8231  0.9786  0.6038
10299TIP3   OH252311   0.494   1.014   5.161 -0.1681 -0.3178 -0.5678
10299TIP3    H152312   0.424   1.078   5.172  0.9416  0.9591 -0.6748
10299TIP3    H252313   0.472   0.970   5.079 -1.3216 -0.5849 -0.1402
10300TIP3   OH252314   3.566   1.134   1.793  0.1669  0.0115 -0.3878
10300TIP3    H152315   3.573   1.230   1.790  0.5990  0.0158  0.4763
10300TIP3    H252316   3.537   1.114   1.881 -0.0804 -0.6537 -0.6118
10301TIP3   OH252317   4.834   6.266  14.766 -0.0827 -0.4231 -0.6392
10301TIP3    H152318   4.853   6.334  14.701 -0.0835 -0.7431 -0.9741
10301TIP3    H252319   4.920   6.240  14.799 -0.1803  1.2866  1.0953
10302TIP3   OH252320   4.091   3.243  15.920  0.6275  0.5203  0.2424
10302TIP3    H152321   4.184   3.218  15.922  0.3167 -0.8302 -0.7542
10302TIP3    H252322   4.078   3.279  15.833 -0.0068 -0.3254 -0.0279
10303TIP3   OH252323   4.950   4.921   3.853  0.0003  0.0824  0.0395
10303TIP3    H152324   4.941   5.014   3.832 -1.8401 -0.0693 -0.0320
10303TIP3    H252325   4.915   4.876   3.776  2.0045 -0.7316 -0.4481
10304TIP3   OH252326   5.754   5.381   5.260  0.6711  0.5514 -0.0980
10304TIP3    H152327   5.775   5.299   5.216  0.1953  0.2690  0.1939
10304TIP3    H252328   5.703   5.431   5.197  0.8389  0.5627 -0.2240
10305TIP3   OH252329   6.433   3.088   2.197 -0.0707 -0.6874  0.0599
10305TIP3    H152330   6.356   3.113   2.248  0.9930 -0.0634  1.4211
10305TIP3    H252331   6.487   3.167   2.196  1.1994 -1.5268  0.3521
10306TIP3   OH252332   6.099   0.974  12.343 -0.1932 -0.1705  0.1767
10306TIP3    H152333   6.005   0.994  12.344 -0.1114  0.6250 -1.9564
10306TIP3    H252334   6.121   0.968  12.250  2.0528  0.6503  0.5849
10307TIP3   OH252335   3.654   2.829  15.417 -0.8720  0.1529 -0.3610
10307TIP3    H152336   3.580   2.779  15.453 -0.6564  0.1965  0.1602
10307TIP3    H252337   3.729   2.772  15.430 -0.4624  0.9713  1.1149
10308TIP3   OH252338   3.705   6.043  16.850  0.4502  0.3864  0.4408
10308TIP3    H152339   3.628   6.095  16.828 -0.2819 -0.7301  0.3072
10308TIP3    H252340   3.749   6.029  16.766 -0.1454 -0.4381  0.2595
10309TIP3   OH252341   6.561   3.589   1.871 -0.3620  0.2520 -0.2810
10309TIP3    H152342   6.585   3.497   1.867  0.6216  0.5083 -0.4997
10309TIP3    H252343   6.469   3.589   1.899 -0.4748 -0.7972 -0.6241
10310TIP3   OH252344   1.017   4.646   1.576  0.2701  0.1203 -1.0445
10310TIP3    H152345   0.977   4.607   1.499  0.3069  0.6754 -1.3492
10310TIP3    H252346   0.947   4.647   1.641  0.4934 -1.2153 -0.7437
10311TIP3   OH252347   1.704   4.273   2.692  0.2935  0.4611  0.0127
10311TIP3    H152348   1.790   4.302   2.720  0.0387  1.6669 -0.3650
10311TIP3    H252349   1.674   4.342   2.631 -0.1077 -0.9027 -1.4089
10312TIP3   OH252350   0.234   4.565   1.261  0.1145 -0.2675  0.6450
10312TIP3    H152351   0.155   4.520   1.292 -0.2784  0.0446  0.1048
10312TIP3    H252352   0.221   4.576   1.167  1.0085 -0.6175  0.4603
10313TIP3   OH252353   5.752   6.333   0.827  0.4117  0.5748  0.2069
10313TIP3    H152354   5.743   6.286   0.910  1.3111 -0.4854 -0.2765
10313TIP3    H252355   5.820   6.285   0.779  0.0673  1.2974 -1.0524
10314TIP3   OH252356   4.376   1.762   2.885 -0.4905 -0.1123 -0.5520
10314TIP3    H152357   4.464   1.758   2.848  0.4295  0.0699  1.4605
10314TIP3    H252358   4.333   1.681   2.854  1.1043 -1.2544  0.0848
10315TIP3   OH252359   3.593   4.606   5.538  0.1403 -0.2040  0.6428
10315TIP3    H152360   3.517   4.643   5.494  1.2862  2.1958  0.5126
10315TIP3    H252361   3.604   4.661   5.616  1.0110 -1.3280  1.3504
10316TIP3   OH252362   2.935   0.748  17.028  0.3906 -0.3547 -0.1668
10316TIP3    H152363   2.951   0.669  16.976 -0.3433  0.6842 -2.0777
10316TIP3    H252364   2.848   0.776  17.002  0.4402  0.8218  0.8624
10317TIP3   OH252365   4.471   1.151   3.683  0.5620  0.4360 -0.5236
10317TIP3    H152366   4.520   1.117   3.758  1.1479  1.2797 -0.5197
10317TIP3    H252367   4.536   1.197   3.630  0.1286 -0.0348 -1.4893
10318TIP3   OH252368   5.981   6.550  14.071  0.5687 -0.8379  0.0512
10318TIP3    H152369   6.076   6.556  14.070  0.5580 -0.5699 -1.3474
10318TIP3    H252370   5.956   6.540  13.979 -0.8154  0.1756  0.2687
10319TIP3   OH252371   5.893   5.933   3.804  0.3421  0.1858  0.4750
10319TIP3    H152372   5.955   5.862   3.790 -0.2869 -0.1973 -0.4204
10319TIP3    H252373   5.827   5.922   3.736  0.7422  2.2090 -0.3153
10320TIP3   OH252374   4.045   6.005  16.475 -0.6304 -0.2423 -0.3229
10320TIP3    H152375   4.097   6.013  16.395  0.2958 -0.1675  0.2670
10320TIP3    H252376   3.970   6.062  16.461  0.2783  0.9505 -0.5616
10321TIP3   OH252377   6.666   0.274   3.766  0.6724 -0.6645 -0.4571
10321TIP3    H152378   6.724   0.203   3.738  0.2871 -0.3309 -2.2066
10321TIP3    H252379   6.685   0.286   3.859  0.6499 -3.1345 -0.0877
10322TIP3   OH252380   4.620   1.686   0.396  0.0745  0.3745  0.1374
10322TIP3    H152381   4.644   1.595   0.376  0.8575  0.6301 -0.1340
10322TIP3    H252382   4.679   1.738   0.342 -1.4011  1.0473 -0.9018
10323TIP3   OH252383   3.132   2.964   4.956  0.8020  0.1476 -0.3588
10323TIP3    H152384   3.188   2.980   5.031 -0.3197  0.9023  0.3395
10323TIP3    H252385   3.076   2.891   4.982  0.0966  0.7111 -0.2788
10324TIP3   OH252386   1.718   5.891  17.121  0.1277 -0.4379 -0.1232
10324TIP3    H152387   1.771   5.831  17.173 -1.4849 -0.8789  1.0872
10324TIP3    H252388   1.764   5.975  17.127  0.0712 -0.4945  1.9756
10325TIP3   OH252389   6.700   1.270  15.391  0.0106  0.1368 -0.0686
10325TIP3    H152390   6.789   1.300  15.406  0.3153 -0.6944 -0.1711
10325TIP3    H252391   6.688   1.275  15.296 -0.4870  1.4312  0.0498
10326TIP3   OH252392   5.609   6.547   3.649 -0.5498 -0.3580  0.1419
10326TIP3    H152393   5.629   6.493   3.726 -0.4593 -1.8548 -0.8809
10326TIP3    H252394   5.694   6.562   3.608 -0.6699 -0.1188 -0.0176
10327TIP3   OH252395   3.096   1.718   0.470  0.0491  0.1132  0.2310
10327TIP3    H152396   3.171   1.702   0.527  0.1897  0.4398  0.1364
10327TIP3    H252397   3.129   1.700   0.382  0.1837  0.8316  0.1309
10328TIP3   OH252398   4.122   1.139  15.351 -0.5091  0.4624  0.0017
10328TIP3    H152399   4.193   1.203  15.357  0.3500 -0.4242 -0.4822
10328TIP3    H252400   4.166   1.054  15.347 -1.6410 -0.3754  2.7327
10329TIP3   OH252401   4.123   4.730  15.727  0.2579 -0.2860  0.2547
10329TIP3    H152402   4.073   4.657  15.689 -0.0091 -0.2533  0.5470
10329TIP3    H252403   4.058   4.784  15.771 -0.1936  2.1921 -3.0494
10330TIP3   OH252404   2.896   3.577   3.498 -0.3954 -0.6158 -0.0029
10330TIP3    H152405   2.833   3.629   3.448  0.4224 -0.3431 -0.7860
10330TIP3    H252406   2.872   3.591   3.589  1.6824  3.8933  0.1488
10331TIP3   OH252407   6.197   0.792  11.937  0.1193  0.5405  0.9010
10331TIP3    H152408   6.254   0.863  11.967  1.8622  1.8252 -4.4040
10331TIP3    H252409   6.247   0.713  11.958 -0.0388  1.0276  3.4371
10332TIP3   OH252410   2.203   2.434  13.146 -0.2499  0.1354 -0.3704
10332TIP3    H152411   2.267   2.432  13.217 -0.6104 -0.4730 -0.0537
10332TIP3    H252412   2.255   2.422  13.067 -0.0902 -1.7206 -0.0213
10333TIP3   OH252413   5.597   4.138   3.371  0.0978 -0.0729  0.1917
10333TIP3    H152414   5.520   4.129   3.427 -1.2414  0.3630 -1.4845
10333TIP3    H252415   5.594   4.062   3.313  0.5580  0.2816 -0.3125
10334TIP3   OH252416   0.139   4.863   3.154  0.2757 -0.2000  0.6703
10334TIP3    H152417   0.174   4.800   3.090 -1.9114 -1.8673  0.9961
10334TIP3    H252418   0.201   4.936   3.152  2.7900 -2.2066  0.0426
10335TIP3   OH252419   4.141   6.233   5.413 -0.6862  0.5118  0.0630
10335TIP3    H152420   4.149   6.267   5.502  2.2497  0.1031  0.0502
10335TIP3    H252421   4.075   6.164   5.419 -0.1776  0.1352  2.0427
10336TIP3   OH252422   1.154   2.414   5.118  0.0673  0.8033  0.6845
10336TIP3    H152423   1.061   2.428   5.137 -0.3327 -2.2824  1.4935
10336TIP3    H252424   1.155   2.380   5.029  0.3807  0.3784  0.8493
10337TIP3   OH252425   2.799   0.333  15.319  0.2400 -0.4070 -0.2535
10337TIP3    H152426   2.835   0.415  15.284  0.3146  0.1658  1.0931
10337TIP3    H252427   2.876   0.276  15.328  0.6501  0.3400  1.3343
10338TIP3   OH252428   3.459   6.291   3.885 -0.1081  0.1523  0.0482
10338TIP3    H152429   3.458   6.314   3.977  0.2232 -1.7539  0.5718
10338TIP3    H252430   3.552   6.283   3.863 -0.1738  0.9313 -0.5511
10339TIP3   OH252431   2.542   3.112  12.849 -0.4879  0.1584  0.0559
10339TIP3    H152432   2.607   3.183  12.856 -0.2073 -0.0220 -0.6153
10339TIP3    H252433   2.522   3.088  12.940  0.1574  0.4235  0.2721
10340TIP3   OH252434   0.067   1.030  14.540 -0.2147  0.4700  0.5949
10340TIP3    H152435  -0.013   0.985  14.568 -0.0067 -0.4422 -0.2043
10340TIP3    H252436   0.137   0.967  14.559  0.0165  0.1435 -1.1321
10341TIP3   OH252437   6.594   3.829   3.857 -0.1513 -0.0653 -0.7753
10341TIP3    H152438   6.673   3.825   3.803 -0.1449  1.7222 -0.9578
10341TIP3    H252439   6.589   3.921   3.886 -2.2117 -0.1120 -0.8262
10342TIP3   OH252440   5.670   5.217   1.047  0.5298  0.0257  0.0683
10342TIP3    H152441   5.597   5.201   0.986  0.0720 -0.3651  0.7080
10342TIP3    H252442   5.655   5.305   1.081  0.5437  0.0743 -0.0504
10343TIP3   OH252443   2.556   6.462  11.316 -0.1479 -0.2369  0.5046
10343TIP3    H152444   2.625   6.462  11.382  0.3008  0.0526  0.0481
10343TIP3    H252445   2.565   6.377  11.272  0.1824 -0.0441  0.1867
10344TIP3   OH252446   2.321   2.427  14.464  0.2409 -0.3942 -0.0393
10344TIP3    H152447   2.369   2.364  14.411 -0.7091 -0.6682 -0.6012
10344TIP3    H252448   2.276   2.374  14.530 -0.0135 -0.2305 -0.0791
10345TIP3   OH252449   1.946   1.281   0.381 -0.0441  0.4168  0.4979
10345TIP3    H152450   1.861   1.316   0.409 -0.4359  1.8875 -2.1681
10345TIP3    H252451   2.009   1.347   0.407  0.3311 -0.5960  2.3219
10346TIP3   OH252452   4.120   6.400  15.716 -0.0427 -0.2437 -0.3078
10346TIP3    H152453   4.192   6.385  15.654 -0.1532  2.9672 -1.4396
10346TIP3    H252454   4.160   6.454  15.785 -1.0025  0.3465 -0.1997
10347TIP3   OH252455   3.541   3.578   6.503  0.3827  0.2380 -0.2386
10347TIP3    H152456   3.615   3.560   6.561 -0.0529 -0.8283 -0.0015
10347TIP3    H252457   3.521   3.671   6.519  0.9393  0.2358  0.5344
10348TIP3   OH252458   2.299   3.714   0.388  0.7597 -0.2268  0.2391
10348TIP3    H152459   2.345   3.634   0.412  0.3994 -0.9978 -1.4616
10348TIP3    H252460   2.360   3.761   0.332  0.2374 -0.3020 -0.4079
10349TIP3   OH252461   0.677   3.440   0.403  0.7916  0.4146  0.6870
10349TIP3    H152462   0.748   3.488   0.445  0.3172 -0.0302  2.0275
10349TIP3    H252463   0.624   3.406   0.475 -2.2247  2.7772 -0.1909
10350TIP3   OH252464   0.322   2.743  15.156 -0.4259  0.5691 -0.2796
10350TIP3    H152465   0.314   2.703  15.070  2.5389  0.7156 -0.7188
10350TIP3    H252466   0.354   2.672  15.212 -0.1728  1.0265  0.1626
10351TIP3   OH252467   6.756   1.523  14.358  0.5249 -0.0412  0.3247
10351TIP3    H152468   6.744   1.434  14.390 -1.4413  0.3411  0.7697
10351TIP3    H252469   6.731   1.579  14.431  0.8604  0.8775 -0.2392
10352TIP3   OH252470   4.384   5.641   4.699  0.4525  0.5847  0.7371
10352TIP3    H152471   4.332   5.721   4.696 -1.6701 -0.6962  1.4294
10352TIP3    H252472   4.330   5.576   4.654  1.8935 -0.5976  0.6529
10353TIP3   OH252473   6.792   0.545  15.012 -0.3702 -0.0143  0.4186
10353TIP3    H152474   6.813   0.454  14.994  3.0123  0.6885  0.1896
10353TIP3    H252475   6.828   0.561  15.100  0.7290  1.5110 -0.2683
10354TIP3   OH252476   4.052   3.299  11.074 -0.2687 -0.1946 -0.3957
10354TIP3    H152477   4.010   3.217  11.049  1.8845 -0.9738 -1.7389
10354TIP3    H252478   4.009   3.324  11.156 -1.2507 -2.4568 -0.1421
10355TIP3   OH252479   3.200   3.945  12.097  0.2951  0.2018  0.3520
10355TIP3    H152480   3.295   3.936  12.095  0.2766 -0.2916 -2.0699
10355TIP3    H252481   3.185   4.039  12.102  0.9192  0.2753  0.8360
10356TIP3   OH252482   6.766   1.070   4.414  0.4785  0.1757  0.3201
10356TIP3    H152483   6.736   1.063   4.504  0.1029  0.1571  0.1996
10356TIP3    H252484   6.685   1.067   4.362  0.3015  3.7552  0.1377
10357TIP3   OH252485   3.768   2.107   3.459 -0.3354 -0.6431 -0.3498
10357TIP3    H152486   3.817   2.108   3.377 -0.4669 -1.8775 -0.4634
10357TIP3    H252487   3.678   2.126   3.434 -0.3755 -1.0246 -0.5024
10358TIP3   OH252488   0.656   2.141  12.343  0.0141  0.2128  0.0867
10358TIP3    H152489   0.636   2.201  12.271 -0.1873 -0.6425 -0.5796
10358TIP3    H252490   0.715   2.076  12.305 -0.5277 -0.5596  0.5499
10359TIP3   OH252491   4.859   3.352  11.118  0.2565  0.0953 -0.5141
10359TIP3    H152492   4.864   3.294  11.042  0.6524 -0.0429 -0.3869
10359TIP3    H252493   4.823   3.298  11.188 -0.7490  0.4074 -0.7736
10360TIP3   OH252494   4.198   2.593  13.987  0.6967 -0.1973 -0.8315
10360TIP3    H152495   4.184   2.635  14.072  4.0621  1.5173 -0.9552
10360TIP3    H252496   4.114   2.601  13.942  0.0668  3.1914  0.6023
10361TIP3   OH252497   3.390   3.629   3.199  0.3586 -0.0924  0.0541
10361TIP3    H152498   3.314   3.656   3.148 -0.0759  0.1536  0.8178
10361TIP3    H252499   3.419   3.548   3.158  1.1681  1.0425 -1.7566
10362TIP3   OH252500   6.272   1.582  14.765  0.3660 -0.3270 -0.1616
10362TIP3    H152501   6.355   1.563  14.808  1.5127  1.3589 -1.4922
10362TIP3    H252502   6.244   1.665  14.804  1.3048  1.1023 -2.3516
10363TIP3   OH252503   0.124   4.675   3.415 -0.4905 -0.1106  0.4292
10363TIP3    H152504   0.180   4.635   3.482 -1.2172 -0.9809  0.5343
10363TIP3    H252505   0.087   4.601   3.368  1.3650  0.4631 -2.1227
10364TIP3   OH252506   0.188   0.147   0.276 -0.1491 -0.0986 -0.4387
10364TIP3    H152507   0.228   0.060   0.285  0.7897  0.0528 -2.5510
10364TIP3    H252508   0.219   0.196   0.352  1.0282 -0.9993 -0.3177
10365TIP3   OH252509   0.303   3.794   1.213 -0.1437  0.5091 -0.0937
10365TIP3    H152510   0.362   3.771   1.141 -0.8810  0.6311 -0.7395
10365TIP3    H252511   0.296   3.713   1.264 -0.6264  0.0539 -0.8742
10366TIP3   OH252512   2.082   2.429   4.877 -0.1858  0.1526  0.4191
10366TIP3    H152513   2.126   2.355   4.920 -2.8979 -0.7146  1.9233
10366TIP3    H252514   2.000   2.440   4.925 -1.0329  2.5612 -1.3577
10367TIP3   OH252515   1.701   4.400   5.133  0.4361 -0.0497 -0.2654
10367TIP3    H152516   1.711   4.310   5.165 -0.9165 -0.5629 -1.1843
10367TIP3    H252517   1.676   4.449   5.211  2.0706 -0.2563  0.4322
10368TIP3   OH252518   4.948   5.204  11.976  0.1135  0.3829 -0.6693
10368TIP3    H152519   5.015   5.146  11.939 -0.4845 -0.7923  0.0069
10368TIP3    H252520   4.924   5.263  11.905  2.4929  1.4523 -0.6747
10369TIP3   OH252521   6.196   4.572   3.733  0.4059  0.1749  0.4578
10369TIP3    H152522   6.101   4.569   3.731  0.4221 -2.1851  0.7086
10369TIP3    H252523   6.216   4.648   3.789 -1.2761  1.0734 -0.0884
10370TIP3   OH252524   6.431   1.186  11.206  0.2173  0.7176  0.0843
10370TIP3    H152525   6.461   1.213  11.120 -0.9339  1.9657  0.0234
10370TIP3    H252526   6.511   1.169  11.256  0.9380 -2.5724 -1.9001
10371TIP3   OH252527   0.024   0.149  17.010  0.2109 -0.3439  0.1091
10371TIP3    H152528   0.096   0.123  17.067 -0.0639 -0.6949  0.3054
10371TIP3    H252529   0.054   0.229  16.966  0.4075 -0.0405  0.7846
10372TIP3   OH252530   3.767   6.171   1.902 -0.0756  0.4788  0.1924
10372TIP3    H152531   3.822   6.208   1.971 -2.0192  1.3868  1.3282
10372TIP3    H252532   3.813   6.194   1.821  1.9253 -0.0534  1.1144
10373TIP3   OH252533   2.450   6.449   5.235 -0.0935  0.2373  0.1387
10373TIP3    H152534   2.531   6.424   5.279 -0.0905  1.6112  0.9760
10373TIP3    H252535   2.473   6.455   5.142  1.1349  1.9484  0.5184
10374TIP3   OH252536   2.535   1.299  11.952  0.5159 -0.0139 -0.2018
10374TIP3    H152537   2.453   1.343  11.974  0.6338  0.0409  0.1287
10374TIP3    H252538   2.540   1.224  12.011  0.7193 -0.0008 -0.1997
10375TIP3   OH252539   0.039   5.206   3.044 -0.3252  0.4431  0.7710
10375TIP3    H152540   0.069   5.295   3.059 -1.3808  0.5430  2.5265
10375TIP3    H252541   0.119   5.154   3.036  0.2876  1.4534  0.2561
10376TIP3   OH252542   1.057   0.040  12.974  0.2888 -0.1406  0.1902
10376TIP3    H152543   1.069  -0.043  13.021 -1.9793  0.1451  1.3816
10376TIP3    H252544   1.050   0.106  13.043 -0.3842  0.6873 -0.6468
10377TIP3   OH252545   3.405   2.266  12.065 -0.3445  0.1240  0.7216
10377TIP3    H152546   3.464   2.232  12.132  0.3565  0.8778  0.5011
10377TIP3    H252547   3.414   2.205  11.992 -0.2720 -0.0824  0.9030
10378TIP3   OH252548   4.926   4.603  15.942  0.4092 -0.1586  0.0408
10378TIP3    H152549   4.830   4.605  15.945  0.4004  0.2928 -0.4316
10378TIP3    H252550   4.953   4.685  15.983  0.6007 -0.4248  0.4459
10379TIP3   OH252551   6.408   4.533  13.293  0.5137 -0.1446  0.7527
10379TIP3    H152552   6.483   4.549  13.236 -0.2159  0.5151 -0.0542
10379TIP3    H252553   6.435   4.567  13.378  1.2656 -0.2466  0.5589
10380TIP3   OH252554   5.115   0.209  11.913 -0.0399  0.4544 -0.5326
10380TIP3    H152555   5.197   0.162  11.897  0.7092  1.6177 -0.1879
10380TIP3    H252556   5.065   0.151  11.971  1.7223  0.9236  1.5667
10381TIP3   OH252557   6.531   3.512  11.849  0.1631  0.5759 -0.3448
10381TIP3    H152558   6.617   3.471  11.841  0.2608  1.0486 -1.9983
10381TIP3    H252559   6.469   3.441  11.832  0.2754  0.6232 -0.9607
10382TIP3   OH252560   6.146   0.068   1.306 -0.3908  0.4458  0.1770
10382TIP3    H152561   6.127  -0.003   1.245 -0.5984 -0.8485  1.6893
10382TIP3    H252562   6.237   0.091   1.287 -0.0223 -0.8612  0.2663
10383TIP3   OH252563   5.159   3.925   5.769  0.7696  0.5017  0.2129
10383TIP3    H152564   5.250   3.913   5.794  0.7852 -0.4491 -0.2693
10383TIP3    H252565   5.114   3.848   5.803  0.9457 -1.3661 -3.3538
10384TIP3   OH252566   0.219   2.920  12.436 -0.0029  0.0830 -0.2279
10384TIP3    H152567   0.221   2.856  12.364 -1.4720  0.4676 -0.6514
10384TIP3    H252568   0.173   2.875  12.506  0.5221  0.0729  0.1162
10385TIP3   OH252569   4.942   0.568   2.646 -0.1470  0.2289 -0.0448
10385TIP3    H152570   4.922   0.580   2.554 -1.9053  2.3325  0.5092
10385TIP3    H252571   5.021   0.621   2.661 -1.2044  1.8340  0.0659
10386TIP3   OH252572   5.837   0.582  14.699  0.2382  0.0242 -0.4345
10386TIP3    H152573   5.899   0.549  14.635 -0.1232  0.4131 -0.9927
10386TIP3    H252574   5.793   0.655  14.655 -1.5454 -1.0465 -0.5662
10387TIP3   OH252575   0.778   0.850   3.862 -0.5901 -0.4337  0.0663
10387TIP3    H152576   0.758   0.799   3.783 -0.8876  1.1715 -0.9415
10387TIP3    H252577   0.697   0.898   3.881  0.7518  2.6237 -1.3497
10388TIP3   OH252578   2.221   5.639   4.011 -0.3559 -0.5534 -0.3639
10388TIP3    H152579   2.210   5.699   3.937  0.6930  0.9892  0.6725
10388TIP3    H252580   2.185   5.556   3.980 -3.8132  1.0467 -1.1769
10389TIP3   OH252581   5.801   2.449  15.041 -0.0008  0.2502  0.0578
10389TIP3    H152582   5.876   2.431  14.984 -0.6066 -0.1843 -0.6075
10389TIP3    H252583   5.759   2.526  15.002  0.8127  1.3081  1.1596
10390TIP3   OH252584   3.648   2.093  15.483  0.5626  0.4184 -0.2521
10390TIP3    H152585   3.708   2.074  15.556 -1.3470 -0.9944  1.0348
10390TIP3    H252586   3.687   2.048  15.408  2.2772  1.4327 -0.0273
10391TIP3   OH252587   2.342   4.557   1.431  0.4304  0.2744 -0.6608
10391TIP3    H152588   2.386   4.573   1.515  0.2473  0.3022 -0.5689
10391TIP3    H252589   2.249   4.554   1.453  0.1299  2.9291 -1.2230
10392TIP3   OH252590   1.827   1.404  11.981  0.0131 -0.1376  0.2447
10392TIP3    H152591   1.828   1.429  11.888 -0.8875  0.8835  0.4858
10392TIP3    H252592   1.908   1.354  11.993  0.9350  1.0342 -0.7399
10393TIP3   OH252593   3.679   3.019  12.817 -0.0924 -0.2081  0.1135
10393TIP3    H152594   3.698   3.015  12.911 -1.9714 -0.1700  0.5338
10393TIP3    H252595   3.588   2.991  12.810  0.0230 -0.2198 -1.7185
10394TIP3   OH252596   2.484   2.488   4.126  0.0932  0.3248  0.4842
10394TIP3    H152597   2.510   2.559   4.184  3.3520  0.0685 -0.4683
10394TIP3    H252598   2.554   2.422   4.135 -1.0188 -1.1977 -1.2176
10395TIP3   OH252599   1.843   2.429  13.156  0.1018 -0.0188 -0.6043
10395TIP3    H152600   1.861   2.438  13.249  0.8077 -0.0338 -0.7307
10395TIP3    H252601   1.925   2.453  13.113  0.6115 -2.4901 -1.1338
10396TIP3   OH252602   5.125   1.408   5.818  0.4075  0.4158 -0.6712
10396TIP3    H152603   5.093   1.318   5.812 -0.4934  0.7855 -2.2106
10396TIP3    H252604   5.095   1.439   5.903  1.6953 -1.0571  0.3777
10397TIP3   OH252605   6.042   6.078  11.409  0.0238 -0.3735 -0.0344
10397TIP3    H152606   6.103   6.087  11.482 -0.0437  1.6937 -0.1911
10397TIP3    H252607   5.957   6.068  11.451  0.0555  0.2172  0.1809
10398TIP3   OH252608   2.955   6.161   4.505 -0.4711 -0.0503  0.3686
10398TIP3    H152609   2.951   6.166   4.600 -0.1622 -0.2057  0.3920
10398TIP3    H252610   2.945   6.068   4.485  0.2065 -0.1153  0.2950
10399TIP3   OH252611   0.347   1.764   4.399  0.0278 -0.2617  0.0972
10399TIP3    H152612   0.284   1.692   4.405 -0.1730 -0.0454  0.6019
10399TIP3    H252613   0.365   1.772   4.305  0.0037 -0.9252  0.0264
10400TIP3   OH252614   4.649   6.286  15.325  0.2635 -0.0965  0.3591
10400TIP3    H152615   4.647   6.375  15.291  2.3448  0.2046  0.9092
10400TIP3    H252616   4.611   6.293  15.413  1.4578  0.4952  0.8506
10401TIP3   OH252617   1.293   6.074   1.502  0.0495  0.8223 -0.5325
10401TIP3    H152618   1.282   5.979   1.507  1.5522  0.6282 -0.4826
10401TIP3    H252619   1.223   6.109   1.558  0.1939 -0.2958  0.3889
10402TIP3   OH252620   0.764   1.154   1.972 -0.5233 -0.4331  0.2356
10402TIP3    H152621   0.723   1.069   1.990 -3.1406  0.8680  0.9383
10402TIP3    H252622   0.798   1.183   2.057  0.3873 -0.7498 -0.0077
10403TIP3   OH252623   1.810   5.268   3.843 -0.1079 -0.7186 -0.3262
10403TIP3    H152624   1.879   5.201   3.845  0.9654  0.3401 -0.4582
10403TIP3    H252625   1.793   5.282   3.750  0.1478 -0.3563 -0.3227
10404TIP3   OH252626   5.941   1.668  11.884 -0.1343  0.3693 -0.4587
10404TIP3    H152627   5.933   1.713  11.968 -0.4212 -0.1899 -0.1807
10404TIP3    H252628   5.851   1.643  11.862 -0.0526  0.4609 -0.9025
10405TIP3   OH252629   2.252   5.010  13.935 -0.0386 -0.1773 -0.0902
10405TIP3    H152630   2.254   5.104  13.953 -0.8579 -0.2494  0.4483
10405TIP3    H252631   2.254   5.003  13.840  1.0130  0.3430 -0.1216
10406TIP3   OH252632   5.193   6.511   4.911  0.1393  0.6565 -0.1130
10406TIP3    H152633   5.253   6.464   4.969  2.0515  2.7788 -0.2482
10406TIP3    H252634   5.207   6.471   4.825  0.0967  0.0386  0.1572
10407TIP3   OH252635   0.778   3.827   5.228 -0.1271  0.0550 -0.6663
10407TIP3    H152636   0.863   3.793   5.256 -0.5081 -0.0991  0.3515
10407TIP3    H252637   0.719   3.751   5.234 -1.2151  0.9827  2.5910
10408TIP3   OH252638   5.125   5.601   4.924 -0.3189  0.4021 -0.2044
10408TIP3    H152639   5.035   5.570   4.936  0.0718 -0.1317  1.6814
10408TIP3    H252640   5.118   5.696   4.923 -0.9782  0.3542 -0.8134
10409TIP3   OH252641   4.859   2.952  13.633 -0.4178  0.6467 -0.0620
10409TIP3    H152642   4.831   3.044  13.637  2.4708  1.6457 -0.4323
10409TIP3    H252643   4.888   2.931  13.721  1.8825  1.2035 -0.6183
10410TIP3   OH252644   5.417   2.898   1.265  0.5130 -0.3138 -0.2386
10410TIP3    H152645   5.379   2.972   1.218 -0.2703 -0.5037  0.0913
10410TIP3    H252646   5.356   2.880   1.337  1.3027 -0.5286  0.3883
10411TIP3   OH252647   6.216   1.362   2.745 -0.3400  0.0225  0.4927
10411TIP3    H152648   6.265   1.286   2.714  2.7199  1.2630  1.8613
10411TIP3    H252649   6.274   1.437   2.729 -3.3389  2.2510 -1.1488
10412TIP3   OH252650   4.567   4.673  14.966 -0.4894  0.0426  0.4424
10412TIP3    H152651   4.555   4.686  14.872  0.2397  0.9348  0.4598
10412TIP3    H252652   4.662   4.669  14.978 -0.5981 -1.4351  0.9833
10413TIP3   OH252653   4.422   4.539   5.737 -0.4919  0.0820  0.3029
10413TIP3    H152654   4.332   4.547   5.768 -0.3114  0.8922  0.6590
10413TIP3    H252655   4.429   4.602   5.665 -0.0705  0.4392  0.6424
10414TIP3   OH252656   4.494   0.220  14.932  0.1418  0.1530  0.0592
10414TIP3    H152657   4.506   0.279  14.858  0.1501 -0.0529 -0.1040
10414TIP3    H252658   4.502   0.276  15.009 -0.2401  0.4312 -0.1042
10415TIP3   OH252659   3.143   2.479  11.238  0.3037  0.0476  0.3454
10415TIP3    H152660   3.070   2.502  11.296  0.3184 -1.4057  0.9841
10415TIP3    H252661   3.146   2.383  11.240  1.0756  0.0104 -1.1196
10416TIP3   OH252662   1.953   5.011  15.217 -0.2845  0.6539 -0.0262
10416TIP3    H152663   1.918   4.966  15.294  1.1976 -0.4760  0.0381
10416TIP3    H252664   1.876   5.033  15.165 -1.3234  1.3952  1.7380
10417TIP3   OH252665   3.589   1.036  13.103  0.0544 -0.1144  0.0589
10417TIP3    H152666   3.562   0.944  13.109 -0.2814  0.0199  0.6414
10417TIP3    H252667   3.615   1.059  13.192 -2.2390  1.0715  0.5164
10418TIP3   OH252668   2.302   1.666  11.832 -0.0475 -0.1874 -0.3031
10418TIP3    H152669   2.343   1.689  11.749  0.0364 -1.9263 -0.7839
10418TIP3    H252670   2.259   1.747  11.861  2.3388  1.2751 -0.5570
10419TIP3   OH252671   2.904   3.214   4.638  0.1919 -0.3121 -0.7473
10419TIP3    H152672   2.989   3.170   4.638 -0.8443 -2.4971 -1.0671
10419TIP3    H252673   2.849   3.157   4.693 -0.5557  2.1926  1.3033
10420TIP3   OH252674   4.282   4.867   1.858  0.1643  0.2226 -0.4384
10420TIP3    H152675   4.269   4.803   1.928  0.6670 -0.2075 -0.7306
10420TIP3    H252676   4.226   4.836   1.786 -1.4395  1.4282  0.2374
10421TIP3   OH252677   0.232   0.853   1.280  0.3845 -0.7456  0.4259
10421TIP3    H152678   0.148   0.878   1.239  0.3791 -0.4229  0.6319
10421TIP3    H252679   0.268   0.935   1.312  0.1787 -1.0546  1.4705
10422TIP3   OH252680   1.610   0.375  15.875 -0.6764 -0.5367 -0.2988
10422TIP3    H152681   1.516   0.381  15.860 -0.5271 -0.6124 -1.3955
10422TIP3    H252682   1.637   0.465  15.896 -0.8796 -0.3668 -0.7513
10423TIP3   OH252683   2.556   1.409  12.269 -0.6172  0.2995 -0.4102
10423TIP3    H152684   2.604   1.459  12.202 -0.5323  0.8575  0.0651
10423TIP3    H252685   2.615   1.336  12.290 -1.0478 -0.4379 -1.6263
10424TIP3   OH252686   4.255   0.118   2.541 -1.2245  0.0871 -0.4154
10424TIP3    H152687   4.342   0.113   2.579 -2.9764 -1.2275  4.0511
10424TIP3    H252688   4.249   0.207   2.506  1.5340  0.5142 -0.0183
10425TIP3   OH252689   0.882   6.238   1.717  0.0229  0.0282  0.2111
10425TIP3    H152690   0.823   6.164   1.703  1.1636 -0.6409 -1.4239
10425TIP3    H252691   0.862   6.299   1.646  1.3648 -0.2840 -0.4672
10426TIP3   OH252692   5.189   3.324   5.849  0.2407 -0.0968 -0.4785
10426TIP3    H152693   5.280   3.338   5.874 -0.0321  1.0265 -0.0590
10426TIP3    H252694   5.155   3.260   5.912  0.4877  0.1670 -0.0805
10427TIP3   OH252695   5.545   5.072   3.627  0.4104  0.1780 -0.1893
10427TIP3    H152696   5.478   5.138   3.648  1.3254  1.3390 -0.7659
10427TIP3    H252697   5.509   5.025   3.551  0.0771  0.5279 -0.2566
10428TIP3   OH252698   5.203   1.785  10.991  0.0055 -0.1026  0.2224
10428TIP3    H152699   5.289   1.747  10.977 -0.9862 -1.5688 -2.6845
10428TIP3    H252700   5.207   1.869  10.945  0.2983  0.5755  1.4289
10429TIP3   OH252701   5.510   4.479  10.809 -0.0053  0.1984  0.3622
10429TIP3    H152702   5.429   4.463  10.858  0.2208 -0.2268  0.6062
10429TIP3    H252703   5.549   4.392  10.799 -1.1284 -0.1082 -2.4991
10430TIP3   OH252704   1.225   5.295  12.776 -0.2988  0.7967  0.0295
10430TIP3    H152705   1.196   5.205  12.794 -2.5579  0.7347 -3.0585
10430TIP3    H252706   1.273   5.288  12.693 -0.2948  2.3821 -0.1242
10431TIP3   OH252707   5.144   4.353  11.118 -0.4170 -0.5398  0.0946
10431TIP3    H152708   5.095   4.323  11.194  1.0169 -1.6702  0.6148
10431TIP3    H252709   5.112   4.442  11.102 -1.7782 -0.8186  1.1015
10432TIP3   OH252710   1.830   2.888   3.861  0.2803  0.0254  0.2242
10432TIP3    H152711   1.744   2.847   3.873  0.8943 -1.5666 -0.4553
10432TIP3    H252712   1.882   2.856   3.936  0.4335  0.5301  0.3350
10433TIP3   OH252713   0.378   3.277   0.908  0.5397  0.3525 -0.0275
10433TIP3    H152714   0.299   3.236   0.872  1.1414 -0.5902 -0.3133
10433TIP3    H252715   0.448   3.215   0.889  1.1505  0.5722  1.3654
10434TIP3   OH252716   1.091   0.435   4.975 -0.0976  0.0117  0.3844
10434TIP3    H152717   1.157   0.504   4.967 -0.7199  0.5784  0.0184
10434TIP3    H252718   1.038   0.462   5.050 -1.8484  1.2766 -1.2015
10435TIP3   OH252719   0.808   6.190   3.822 -0.2007 -0.0813 -0.4646
10435TIP3    H152720   0.828   6.260   3.760 -1.6514 -0.2317 -1.1228
10435TIP3    H252721   0.846   6.111   3.783 -1.5333 -0.2672 -1.4319
10436TIP3   OH252722   6.127   0.976  12.822  0.6558 -0.1980 -0.2321
10436TIP3    H152723   6.133   1.031  12.900  3.3245 -1.4904  0.6140
10436TIP3    H252724   6.046   0.926  12.834  0.4514  0.4151  1.1553
10437TIP3   OH252725   2.071   1.317   4.478  0.2842  0.2352  0.0093
10437TIP3    H152726   2.141   1.348   4.420 -0.5871  0.0722 -1.1686
10437TIP3    H252727   2.113   1.308   4.564  2.1100 -1.3191 -0.9606
10438TIP3   OH252728   3.763   0.887   5.207  0.7652  0.1518 -0.1750
10438TIP3    H152729   3.694   0.872   5.271  0.5047 -2.4496 -0.9668
10438TIP3    H252730   3.731   0.960   5.154  0.7171  1.9702  2.1811
10439TIP3   OH252731   3.141   3.226   0.662 -0.3863  0.1766  0.1608
10439TIP3    H152732   3.076   3.291   0.636 -0.0285  0.8776  0.9507
10439TIP3    H252733   3.223   3.275   0.666  0.1101 -0.5879 -0.3455
10440TIP3   OH252734   4.400   1.785   1.599 -0.1172  0.2703  0.2630
10440TIP3    H152735   4.437   1.843   1.666 -0.1634  0.8458 -0.2011
10440TIP3    H252736   4.463   1.789   1.527  0.8982 -1.7941  0.9473
10441TIP3   OH252737   0.737   0.645   0.635 -0.5243 -0.2243 -0.8098
10441TIP3    H152738   0.739   0.558   0.675  3.3300 -0.0834 -0.2338
10441TIP3    H252739   0.817   0.649   0.582  0.3255  3.4310  0.4292
10442TIP3   OH252740   5.870   2.312   4.184 -0.1545 -0.2315 -0.4002
10442TIP3    H152741   5.806   2.273   4.244 -0.8785 -1.1220 -1.6996
10442TIP3    H252742   5.865   2.406   4.203 -1.8305 -0.2769 -0.4127
10443TIP3   OH252743   0.322   0.567  14.985  0.2922  0.1768 -0.3435
10443TIP3    H152744   0.385   0.615  15.038  0.4831  0.9671 -1.2662
10443TIP3    H252745   0.327   0.477  15.018  2.8715 -0.0829 -1.2665
10444TIP3   OH252746   0.671   0.886  10.625 -0.8512  0.0253 -0.4144
10444TIP3    H152747   0.595   0.940  10.603 -2.5474 -2.2999 -0.6202
10444TIP3    H252748   0.636   0.798  10.634  1.9527 -1.2766 -1.1512
10445TIP3   OH252749   2.001   5.125  12.386  0.3292 -0.5822  0.0534
10445TIP3    H152750   1.928   5.094  12.333 -0.7396 -1.5851  1.9937
10445TIP3    H252751   2.016   5.055  12.450  0.1136  1.3904  2.4214
10446TIP3   OH252752   2.480   0.285  16.220 -0.5224  0.0176 -0.2695
10446TIP3    H152753   2.423   0.287  16.143 -0.7210 -1.2749 -0.1773
10446TIP3    H252754   2.529   0.367  16.216 -2.6367  1.3497 -0.1530
10447TIP3   OH252755   4.826   1.298   1.628  0.6500  0.5320 -0.1389
10447TIP3    H152756   4.749   1.349   1.653  0.4481 -0.4375  1.3955
10447TIP3    H252757   4.801   1.256   1.545 -0.1735  0.8493 -0.0602
10448TIP3   OH252758   0.993   6.782   2.452 -0.6857 -0.2400 -1.2757
10448TIP3    H152759   0.912   6.797   2.404 -0.4229 -0.0270 -1.6609
10448TIP3    H252760   1.032   6.869   2.461 -0.7830 -0.2670 -0.5840
10449TIP3   OH252761   2.547   0.037  12.019 -0.8535 -0.0671 -0.7647
10449TIP3    H152762   2.475   0.083  11.978 -1.3447 -0.6901 -0.6175
10449TIP3    H252763   2.615   0.103  12.030 -0.8900  0.2219 -2.1294
10450TIP3   OH252764   0.960   0.134   2.701 -0.0852 -0.6785 -0.0242
10450TIP3    H152765   0.938   0.054   2.654 -0.6986 -0.8205  0.5013
10450TIP3    H252766   0.947   0.113   2.793  0.0390 -0.0668  0.1389
10451TIP3   OH252767   1.063   5.954  14.598  0.8482 -0.8042 -0.0179
10451TIP3    H152768   1.008   6.012  14.546  1.2204 -0.0384  0.4289
10451TIP3    H252769   1.149   5.995  14.597  1.1716 -1.4654  0.1266
10452TIP3   OH252770   4.376   6.447  17.185  0.1400 -0.0450  0.1434
10452TIP3    H152771   4.299   6.401  17.219  0.3790 -0.2163  0.4596
10452TIP3    H252772   4.437   6.450  17.258 -0.3669  1.9630  0.5481
10453TIP3   OH252773   5.690   2.169   4.350  0.1300 -0.0331  0.7167
10453TIP3    H152774   5.694   2.170   4.446 -1.2174  1.5750  0.8032
10453TIP3    H252775   5.618   2.229   4.329  1.6689  1.1920 -1.3629
10454TIP3   OH252776   4.162   2.207   2.063  0.3500  0.4329  0.0238
10454TIP3    H152777   4.108   2.185   2.139 -0.2925 -0.8029 -0.7659
10454TIP3    H252778   4.100   2.226   1.994  0.9311  0.6482 -0.4484
10455TIP3   OH252779   0.790   4.611  15.127 -0.3243 -0.1761  0.2324
10455TIP3    H152780   0.749   4.574  15.206  2.0192 -1.0822  1.0974
10455TIP3    H252781   0.763   4.553  15.056 -0.2097 -0.9887  0.8430
10456TIP3   OH252782   2.566   3.302  16.427 -1.0482  0.1207 -0.5768
10456TIP3    H152783   2.500   3.347  16.374 -2.2707  0.5093  1.1880
10456TIP3    H252784   2.526   3.218  16.450 -0.3166 -0.2691 -0.7147
10457TIP3   OH252785   2.756   1.347   3.225 -0.7421 -0.6021  0.1425
10457TIP3    H152786   2.733   1.437   3.204 -0.3820 -0.1562  1.5412
10457TIP3    H252787   2.851   1.348   3.237 -0.7367 -1.1579  0.1732
10458TIP3   OH252788   5.890   6.356   0.410  0.4393 -0.1158  0.2861
10458TIP3    H152789   5.846   6.423   0.357  0.2848 -1.6666 -1.6728
10458TIP3    H252790   5.818   6.304   0.446  0.4374  1.9961  3.7215
10459TIP3   OH252791   6.402   2.853  11.086 -0.3416 -0.4711  0.2412
10459TIP3    H152792   6.326   2.825  11.034  0.3718 -2.7582  0.3088
10459TIP3    H252793   6.453   2.773  11.098  2.5809  1.1554 -0.5776
10460TIP3   OH252794   1.922   5.432   4.756  0.0714  0.0187 -0.0737
10460TIP3    H152795   1.959   5.346   4.776  0.6149 -0.2199 -1.9363
10460TIP3    H252796   1.842   5.413   4.707  0.8005  0.5563 -1.5023
10461TIP3   OH252797   6.353   4.427  15.496  0.0780 -0.3779  0.7485
10461TIP3    H152798   6.401   4.500  15.456 -0.2354  0.3904  1.7132
10461TIP3    H252799   6.290   4.470  15.554 -1.0335 -1.3971  0.3250
10462TIP3   OH252800   2.533   2.653   1.936 -0.6590 -0.1620  0.6546
10462TIP3    H152801   2.519   2.744   1.965 -1.1503 -0.2401  0.6671
10462TIP3    H252802   2.538   2.603   2.017  1.6426  0.1165  0.7452
10463TIP3   OH252803   2.915   6.690  10.369  0.0953  0.1874 -0.0659
10463TIP3    H152804   2.865   6.635  10.308  2.0834  0.2547 -1.8842
10463TIP3    H252805   2.950   6.760  10.314  1.7210  0.4220  1.2128
10464TIP3   OH252806   1.153   2.463   6.414  0.1857  0.2278 -0.0384
10464TIP3    H152807   1.117   2.483   6.328 -1.0174  1.2287  0.6745
10464TIP3    H252808   1.077   2.433   6.465  1.0689 -1.4436  0.3755
10465TIP3   OH252809   2.999   6.581  16.156 -0.4220 -0.2126 -0.0840
10465TIP3    H152810   2.947   6.658  16.182  0.1490 -0.4792  2.0323
10465TIP3    H252811   2.966   6.511  16.212  1.0387 -0.7969  0.0818
10466TIP3   OH252812   5.771   4.553   5.852  0.0783  0.3430 -0.3112
10466TIP3    H152813   5.836   4.504   5.902  1.4128 -0.5276 -2.7625
10466TIP3    H252814   5.782   4.644   5.882  1.5902  0.0271  0.1853
10467TIP3   OH252815   1.478   5.253   4.874 -0.0308 -0.2549  0.1809
10467TIP3    H152816   1.410   5.321   4.874  0.3104  0.0954  0.3030
10467TIP3    H252817   1.530   5.272   4.953 -0.5873 -1.3344  0.8202
10468TIP3   OH252818   5.208   4.730  16.431  0.3867 -0.3827  0.2055
10468TIP3    H152819   5.274   4.780  16.480  1.6732 -1.6815 -0.1290
10468TIP3    H252820   5.138   4.715  16.494  0.7505  0.3741  0.8061
10469TIP3   OH252821   3.692   4.268  13.473  0.7140  0.2039 -0.2439
10469TIP3    H152822   3.690   4.360  13.446  0.5898  0.2433 -0.0982
10469TIP3    H252823   3.691   4.271  13.568  1.9898  0.0917 -0.2021
10470TIP3   OH252824   3.933   3.674   0.262 -0.6211 -0.0973  0.9410
10470TIP3    H152825   3.955   3.681   0.169 -1.3280 -1.9402  0.5844
10470TIP3    H252826   4.010   3.706   0.307  1.1537 -2.2866 -0.2920
10471TIP3   OH252827   5.198   1.110  16.311 -0.4623 -0.0825 -0.5204
10471TIP3    H152828   5.202   1.045  16.241 -0.4976 -0.6604 -0.0023
10471TIP3    H252829   5.280   1.098  16.359 -0.5926  0.0709 -0.2556
10472TIP3   OH252830   5.867   1.204   5.044  0.2117 -0.1604  0.1130
10472TIP3    H152831   5.906   1.121   5.072  1.8383  1.3887  2.8695
10472TIP3    H252832   5.930   1.241   4.981  0.0784 -0.4483 -0.1931
10473TIP3   OH252833   6.018   1.488   2.883  0.2180 -0.0473 -0.4171
10473TIP3    H152834   6.087   1.441   2.837 -0.4028  0.5823 -2.0678
10473TIP3    H252835   6.026   1.460   2.974  2.8967  0.3158 -0.4821
10474TIP3   OH252836   2.095   1.282   5.003  0.1729 -0.1110  0.6658
10474TIP3    H152837   2.104   1.368   5.044  0.3376 -0.2720  0.9694
10474TIP3    H252838   2.155   1.226   5.052  1.8874  0.1275 -1.0193
10475TIP3   OH252839   5.443   2.482  14.556 -0.3782  0.2576 -0.5930
10475TIP3    H152840   5.417   2.574  14.558 -0.7105  0.2515  3.6355
10475TIP3    H252841   5.389   2.444  14.487 -1.5812  2.8305 -1.2096
10476TIP3   OH252842   5.168   2.257   4.898 -0.1868  0.1420 -0.2106
10476TIP3    H152843   5.190   2.169   4.868  0.3524  0.2235 -0.0646
10476TIP3    H252844   5.105   2.243   4.969  1.5399 -0.2476  1.3137
10477TIP3   OH252845   5.370   2.865   3.236  0.5150  0.4621  0.3484
10477TIP3    H152846   5.399   2.782   3.273  1.8403 -0.2669 -2.1410
10477TIP3    H252847   5.442   2.894   3.180 -0.7555  2.2224 -0.4913
10478TIP3   OH252848   5.853   3.652   2.539 -0.7743 -0.1564  0.3000
10478TIP3    H152849   5.872   3.730   2.592 -3.1534  0.4619  0.3528
10478TIP3    H252850   5.877   3.579   2.596 -0.6157  0.5077  1.1157
10479TIP3   OH252851   3.864   2.539  16.311  0.7121  0.0876  0.0237
10479TIP3    H152852   3.890   2.458  16.355  2.0214  0.0091 -0.8323
10479TIP3    H252853   3.935   2.556  16.249  0.0015  1.3947 -0.4648
10480TIP3   OH252854   4.012   4.127   3.561  0.3268 -0.5375  0.3675
10480TIP3    H152855   4.007   4.047   3.613  0.5924 -0.0734  1.1164
10480TIP3    H252856   4.019   4.197   3.625  0.0470  0.0947 -0.2829
10481TIP3   OH252857   4.427   5.959  16.418  0.4007  0.4372  0.1173
10481TIP3    H152858   4.439   6.013  16.496  0.1438 -0.2461  0.6422
10481TIP3    H252859   4.504   5.975  16.365  0.3588  1.2653  0.2967
10482TIP3   OH252860   4.281   5.964   0.267 -0.5441  0.4362 -0.5935
10482TIP3    H152861   4.257   5.995   0.354 -0.6164 -2.4745  0.5451
10482TIP3    H252862   4.355   6.018   0.241  0.3554  0.5190  1.9008
10483TIP3   OH252863   4.624   3.552  14.296 -0.2312  0.0066 -0.3407
10483TIP3    H152864   4.560   3.577  14.229 -2.8916 -3.5110  0.5817
10483TIP3    H252865   4.677   3.484  14.255 -0.5746 -0.7826  0.5105
10484TIP3   OH252866   2.272   4.848  12.955  0.0434  0.3630 -0.4519
10484TIP3    H152867   2.263   4.938  12.988  1.9347  0.7878 -0.9927
10484TIP3    H252868   2.297   4.858  12.864 -4.9934 -0.7995 -2.2719
10485TIP3   OH252869   0.901   1.902   5.852  0.2373 -0.3599 -0.1874
10485TIP3    H152870   0.815   1.939   5.832 -0.6543 -2.9238 -1.5242
10485TIP3    H252871   0.945   1.897   5.767  1.0297 -0.6521  0.2332
10486TIP3   OH252872   3.271   0.594  12.979 -0.0130  0.2294  0.3372
10486TIP3    H152873   3.288   0.546  12.898 -2.2031 -0.7069  0.3623
10486TIP3    H252874   3.186   0.637  12.964 -0.6292 -0.2547  2.2471
10487TIP3   OH252875   1.968   4.272   0.877  0.5556 -0.3990 -0.5554
10487TIP3    H152876   2.051   4.226   0.889 -0.0702 -1.5168 -0.3407
10487TIP3    H252877   1.913   4.242   0.950 -1.0450 -2.0872 -2.3320
10488TIP3   OH252878   4.701   5.849   3.471  0.3353  0.3317  0.1638
10488TIP3    H152879   4.703   5.755   3.452 -0.0958  0.0024  1.6564
10488TIP3    H252880   4.788   5.880   3.447  0.9455 -0.7206  0.9662
10489TIP3   OH252881   4.023   0.559  12.829 -0.1931 -0.1313  0.1264
10489TIP3    H152882   4.022   0.511  12.747  0.0838  0.1988 -0.0766
10489TIP3    H252883   4.107   0.606  12.828  0.0623 -0.5564  0.8499
10490TIP3   OH252884   5.435   6.756   3.630 -0.8764 -0.1223 -0.0297
10490TIP3    H152885   5.486   6.787   3.556  0.3645  0.4730  1.0279
10490TIP3    H252886   5.476   6.673   3.654 -0.2615  0.4473  0.9413
10491TIP3   OH252887   0.224   5.406   3.095  0.2692 -0.0104  0.4724
10491TIP3    H152888   0.257   5.370   3.178  2.0620 -0.1249 -0.2406
10491TIP3    H252889   0.259   5.495   3.092 -1.3951  0.6833  0.6985
10492TIP3   OH252890   6.796   1.297   3.542 -0.4531  0.7149  0.3933
10492TIP3    H152891   6.833   1.383   3.560 -0.4892  0.7705  0.2014
10492TIP3    H252892   6.855   1.236   3.586  0.7186  0.6907 -1.1253
10493TIP3   OH252893   4.144   2.287  13.153 -0.4321 -0.1949  0.1181
10493TIP3    H152894   4.217   2.276  13.214  1.0615  1.8250 -1.1543
10493TIP3    H252895   4.136   2.382  13.143  1.5891 -0.2085 -5.0790
10494TIP3   OH252896   1.513   5.373   1.912  0.1765 -0.1210  0.1292
10494TIP3    H152897   1.567   5.300   1.882  1.5650  0.8051  0.2449
10494TIP3    H252898   1.549   5.449   1.866 -1.3050  0.4796 -0.0789
10495TIP3   OH252899   3.404   2.951  12.780 -0.7761  0.0074 -0.1618
10495TIP3    H152900   3.404   2.956  12.684 -0.2600  0.7804 -0.1292
10495TIP3    H252901   3.377   2.861  12.799 -0.6576 -0.2267 -1.0404
10496TIP3   OH252902   6.488   0.052  16.820  0.0381 -0.5655  0.5890
10496TIP3    H152903   6.473   0.146  16.806 -0.1387 -0.7949 -0.8776
10496TIP3    H252904   6.580   0.047  16.847  0.5435 -0.1021 -0.9665
10497TIP3   OH252905   3.009   6.358   0.011  1.0004 -0.5271  0.0121
10497TIP3    H152906   3.089   6.398  -0.021  1.0538  0.3042  1.1252
10497TIP3    H252907   3.030   6.330   0.100 -0.8190  2.6845  1.6292
10498TIP3   OH252908   2.379   2.783  11.659  0.0055  0.1534 -0.7287
10498TIP3    H152909   2.350   2.723  11.727  0.3464  1.4980  0.6827
10498TIP3    H252910   2.432   2.730  11.599 -0.7377 -1.1671 -0.2302
10499TIP3   OH252911   5.886   2.816  16.442 -0.2806  0.0661 -0.0077
10499TIP3    H152912   5.829   2.890  16.463  0.2933  0.6863 -0.5848
10499TIP3    H252913   5.828   2.752  16.401 -0.9043 -0.0829  1.0583
10500TIP3   OH252914   5.090   5.003   5.282 -0.3001 -0.1829  0.9742
10500TIP3    H152915   5.052   5.016   5.369  0.2566 -1.3922  1.4273
10500TIP3    H252916   5.117   4.911   5.281 -0.6854 -0.3149 -0.6404
10501TIP3   OH252917   5.331   6.397   5.737  0.2971 -0.0524 -0.6816
10501TIP3    H152918   5.380   6.394   5.819  0.5223 -1.0057 -0.8425
10501TIP3    H252919   5.394   6.369   5.670  0.5045  1.9321 -1.3977
10502TIP3   OH252920   2.160   0.134  16.091 -0.0422 -0.2839 -0.3432
10502TIP3    H152921   2.114   0.204  16.045  1.3049  0.0184 -1.2698
10502TIP3    H252922   2.208   0.087  16.023  1.1769 -0.4626  0.6055
10503TIP3   OH252923   4.770   4.493  12.192 -0.1855  0.7658 -0.6367
10503TIP3    H152924   4.719   4.565  12.155  0.0180  1.6247  0.7033
10503TIP3    H252925   4.860   4.524  12.191 -0.3234  1.5104  1.9835
10504TIP3   OH252926   2.014   2.839  13.114 -0.0312 -0.3976 -0.4957
10504TIP3    H152927   2.053   2.897  13.049 -0.4357 -0.8536 -1.1476
10504TIP3    H252928   1.922   2.833  13.090 -0.2728 -0.2500  0.3587
10505TIP3   OH252929   0.147   2.339   5.292 -0.3896  0.0635  0.3081
10505TIP3    H152930   0.055   2.362   5.287 -0.6871 -1.1653 -0.2639
10505TIP3    H252931   0.148   2.247   5.318  0.5108 -1.0503 -3.1189
10506TIP3   OH252932   0.019   5.690  15.129  0.2256  0.0814 -0.1866
10506TIP3    H152933   0.054   5.737  15.205  0.8470  1.2701 -1.1676
10506TIP3    H252934  -0.043   5.751  15.090  0.1711 -0.3768 -0.8304
10507TIP3   OH252935   5.093   1.959  14.678 -0.2687 -0.7580 -0.1780
10507TIP3    H152936   5.006   1.960  14.639 -0.5589  2.1139  0.3888
10507TIP3    H252937   5.116   2.051  14.691  1.7727 -1.4633  2.0878
10508TIP3   OH252938   4.693   4.180   5.439  0.5995  0.5735  0.4769
10508TIP3    H152939   4.726   4.160   5.351 -0.0906  0.4848  0.2312
10508TIP3    H252940   4.770   4.173   5.496  1.2369  1.5177 -0.2466
10509TIP3   OH252941   3.996   4.242  16.631 -0.0638 -0.3974 -0.3736
10509TIP3    H152942   4.023   4.189  16.706 -0.4013 -0.6921 -0.4574
10509TIP3    H252943   4.003   4.333  16.662 -2.1865 -0.5455  0.7164
10510TIP3   OH252944   1.444   2.607   2.541 -0.0662  0.4882  0.3259
10510TIP3    H152945   1.349   2.602   2.550 -0.4997  3.2653 -1.5781
10510TIP3    H252946   1.460   2.599   2.447  1.3650  1.8625  0.3997
10511TIP3   OH252947   2.646   6.557  14.699 -0.5076  0.2383 -0.4369
10511TIP3    H152948   2.739   6.543  14.687 -0.7961 -1.2079 -1.2786
10511TIP3    H252949   2.628   6.527  14.788 -0.2560  0.0182 -0.4614
10512TIP3   OH252950   0.336   6.228   1.511 -0.4089 -0.4488  0.4770
10512TIP3    H152951   0.341   6.156   1.575 -0.2245  0.5792  1.6573
10512TIP3    H252952   0.316   6.305   1.563  2.2620  0.9046 -0.3444
10513TIP3   OH252953   5.704   1.331   2.618 -0.2306 -1.0199  0.0800
10513TIP3    H152954   5.789   1.346   2.661 -0.3420 -0.9324  0.2716
10513TIP3    H252955   5.672   1.250   2.657 -2.0216  0.8798  2.9116
10514TIP3   OH252956   1.327   1.906   2.276 -0.3285 -0.0624 -0.1486
10514TIP3    H152957   1.266   1.833   2.268 -0.7226 -0.0094  1.7857
10514TIP3    H252958   1.413   1.867   2.265 -0.6154 -0.2638 -2.1655
10515TIP3   OH252959   3.150   2.953  10.932 -0.1614 -0.3355 -0.5369
10515TIP3    H152960   3.082   3.018  10.952 -0.8165 -1.1846  0.0704
10515TIP3    H252961   3.114   2.903  10.859  0.0907 -0.3762 -0.6321
10516TIP3   OH252962   5.056   0.903   3.436  0.0548 -0.0100 -0.6249
10516TIP3    H152963   5.032   0.996   3.437  0.9622  0.2263  0.4288
10516TIP3    H252964   4.973   0.857   3.444 -0.1989  0.7722  2.0408
10517TIP3   OH252965   3.006   3.022  15.445 -0.4531 -0.3937  0.3852
10517TIP3    H152966   3.016   3.094  15.383 -2.3174 -0.4578 -0.0373
10517TIP3    H252967   3.091   3.016  15.489  0.0038  1.4841 -0.1772
10518TIP3   OH252968   2.083   5.427   3.892  0.4754  0.0940  0.1076
10518TIP3    H152969   2.139   5.365   3.846  0.4795  0.4405 -0.3614
10518TIP3    H252970   2.063   5.384   3.976  1.8533  0.1921  0.5110
10519TIP3   OH252971   1.416   5.846   3.825 -0.6023  0.1472  0.0321
10519TIP3    H152972   1.479   5.837   3.753  1.0427 -0.6643  1.5009
10519TIP3    H252973   1.387   5.757   3.844 -0.9353  0.3395  0.4586
10520TIP3   OH252974   1.417   0.015   5.490 -0.3695  0.0490  0.1654
10520TIP3    H152975   1.382   0.082   5.549 -0.7299 -0.6106  0.7178
10520TIP3    H252976   1.410  -0.066   5.540  0.2943 -0.3639 -0.4044
10521TIP3   OH252977   4.507   2.284  11.700  0.1980 -0.2148 -0.1230
10521TIP3    H152978   4.480   2.315  11.613  0.9889 -1.6939 -0.9342
10521TIP3    H252979   4.566   2.353  11.732  1.1871 -0.3829 -1.4768
10522TIP3   OH252980   2.398   1.155  12.754  0.4106  0.4242  0.4340
10522TIP3    H152981   2.451   1.077  12.769  1.4491  1.2260  1.0182
10522TIP3    H252982   2.321   1.143  12.810  0.6067 -0.1292  0.5915
10523TIP3   OH252983   1.904   0.064   1.147 -0.1292  0.3293 -0.5133
10523TIP3    H152984   1.955   0.059   1.228  0.4699  0.9276 -0.8403
10523TIP3    H252985   1.831   0.122   1.169  0.8137  1.6600 -0.7816
10524TIP3   OH252986   4.642   6.093   0.406 -0.6789 -0.2081  0.0403
10524TIP3    H152987   4.672   6.003   0.415 -0.4937 -0.0520  1.0941
10524TIP3    H252988   4.568   6.100   0.467 -0.4341  0.4640  0.2720
10525TIP3   OH252989   1.912   3.037   5.118  0.0409 -0.3861  0.4214
10525TIP3    H152990   1.852   2.984   5.171  0.7036  0.2231  1.8348
10525TIP3    H252991   1.992   3.041   5.170  0.2410  1.4523  0.0277
10526TIP3   OH252992   2.635   1.539   1.858  0.2433 -0.6071  0.4200
10526TIP3    H152993   2.601   1.482   1.788 -0.7783 -1.0348  1.2348
10526TIP3    H252994   2.709   1.490   1.894 -0.0014 -0.9599  0.4520
10527TIP3   OH252995   5.158   5.052   4.284  0.2362 -0.1798  0.3475
10527TIP3    H152996   5.237   5.099   4.256  0.0887  0.2591  0.6655
10527TIP3    H252997   5.191   4.971   4.324  0.5166 -0.0849  0.3104
10528TIP3   OH252998   5.152   0.312  14.153 -0.1989 -0.1787  0.3743
10528TIP3    H152999   5.057   0.312  14.142 -0.2316 -1.0517  0.5371
10528TIP3    H253000   5.166   0.349  14.240 -0.4979 -1.4754  0.9951
10529TIP3   OH253001   0.083   2.708   4.286 -0.1997 -0.5217  0.1530
10529TIP3    H153002   0.037   2.657   4.352 -0.5593 -2.4175 -1.4556
10529TIP3    H253003   0.038   2.688   4.204  1.0740  0.6605 -0.9023
10530TIP3   OH253004   4.191   1.799   6.028 -0.0595 -0.0239  0.5477
10530TIP3    H153005   4.132   1.849   6.085  1.3190  0.9854  1.1556
10530TIP3    H253006   4.238   1.741   6.087 -0.8063 -1.2466 -0.0095
10531TIP3   OH253007   6.332   0.410   0.046 -0.0340 -0.1459  0.8200
10531TIP3    H153008   6.360   0.356   0.120 -0.5200  0.5346  1.5027
10531TIP3    H253009   6.370   0.366  -0.031  0.4853 -0.8454  1.4641
10532TIP3   OH253010   0.915   3.535   5.276 -0.3754 -0.0452 -0.1058
10532TIP3    H153011   0.971   3.460   5.296 -1.2443 -0.6645  0.0768
10532TIP3    H253012   0.870   3.510   5.195  0.6121  1.0251 -1.0183
10533TIP3   OH253013   4.944   1.749  11.430 -0.1332  0.1401  0.2866
10533TIP3    H153014   4.922   1.674  11.484  0.7767 -0.8062 -0.6167
10533TIP3    H253015   5.014   1.718  11.373  0.3984  1.7277  0.0175
10534TIP3   OH253016   0.949   4.916   5.098  0.4936  0.0575  0.0847
10534TIP3    H153017   0.966   4.885   5.187 -1.9051 -0.4140  0.4708
10534TIP3    H253018   0.857   4.943   5.100  0.0198 -1.0292 -2.5161
10535TIP3   OH253019   4.804   1.010   0.149  0.5442  0.6646  0.0473
10535TIP3    H153020   4.733   1.064   0.115 -1.0266 -1.4099 -0.2148
10535TIP3    H253021   4.784   0.922   0.116  0.7025 -0.8763  3.6647
10536TIP3   OH253022   1.209   0.883   3.293 -0.2705  0.6823  0.8210
10536TIP3    H153023   1.163   0.876   3.377 -0.3087  0.0285  0.7497
10536TIP3    H253024   1.184   0.969   3.259 -2.9010 -0.3298 -0.0609
10537TIP3   OH253025   4.507   4.409  14.053 -0.1066 -0.4479 -0.4171
10537TIP3    H153026   4.583   4.465  14.069 -0.8397 -0.0986  2.3613
10537TIP3    H253027   4.539   4.321  14.072  0.4709 -0.8222 -2.7407
10538TIP3   OH253028   0.408   0.035   5.522 -0.5811  0.2151  0.5204
10538TIP3    H153029   0.379   0.126   5.508  0.0347  0.1778 -1.2938
10538TIP3    H253030   0.490   0.044   5.571 -0.2755  0.6804 -0.0596
10539TIP3   OH253031   4.531   5.745  16.139 -0.3453  0.2503  0.3841
10539TIP3    H153032   4.590   5.819  16.152 -0.6882  0.4561  0.7964
10539TIP3    H253033   4.544   5.689  16.216  0.4009 -0.4627 -0.2439
10540TIP3   OH253034   5.811   0.487  16.331  0.0226 -0.3862 -0.1877
10540TIP3    H153035   5.811   0.520  16.421 -1.2736 -0.5328 -0.1021
10540TIP3    H253036   5.886   0.428  16.326 -0.4738 -1.1774  1.1218
10541TIP3   OH253037   5.006   2.050  14.317 -0.1764 -0.5974  0.0761
10541TIP3    H153038   4.941   1.996  14.362 -1.1193 -0.6781 -1.3207
10541TIP3    H253039   5.015   2.128  14.373 -0.2336 -1.3121  1.1148
10542TIP3   OH253040   4.164   1.501  13.365  0.0050  0.2848 -0.1756
10542TIP3    H153041   4.142   1.450  13.287 -0.8032  0.4200 -0.0360
10542TIP3    H253042   4.193   1.436  13.428  1.1641  0.2170 -0.7443
10543TIP3   OH253043   3.127   4.906   2.413 -0.2605 -0.7461  0.5861
10543TIP3    H153044   3.203   4.876   2.364  0.0853 -0.6296  1.0447
10543TIP3    H253045   3.076   4.826   2.429 -0.7115 -0.6940 -0.5164
10544TIP3   OH253046   3.541   6.710  13.924  0.2323 -0.3849 -0.2926
10544TIP3    H153047   3.600   6.637  13.905 -0.5903 -1.3210  0.6505
10544TIP3    H253048   3.474   6.705  13.855  0.2536 -0.4292 -0.3102
10545TIP3   OH253049   6.139   6.141   2.503  0.2603 -0.1792  0.3342
10545TIP3    H153050   6.094   6.134   2.587 -0.9087  0.2636 -0.2347
10545TIP3    H253051   6.134   6.053   2.466 -0.8882  0.0342 -0.0748
10546TIP3   OH253052   1.449   1.265  14.445  0.3736  0.2831  0.3207
10546TIP3    H153053   1.499   1.338  14.409  0.6416  0.3312  0.7968
10546TIP3    H253054   1.503   1.229  14.515  1.4679 -2.0329 -1.5588
10547TIP3   OH253055   4.112   2.770   3.839 -0.2922 -0.1324  0.3086
10547TIP3    H153056   4.172   2.815   3.779 -0.8517  2.0546  1.3040
10547TIP3    H253057   4.025   2.803   3.816 -0.6946 -0.4820  1.2902
10548TIP3   OH253058   2.251   1.580  16.985 -0.3054  0.0867 -0.0733
10548TIP3    H153059   2.293   1.548  17.065  1.6242 -0.2564 -1.1644
10548TIP3    H253060   2.250   1.505  16.926 -1.2337  0.4717 -0.5641
10549TIP3   OH253061   2.036   0.466   0.610 -0.3557 -0.0983  0.5249
10549TIP3    H153062   2.028   0.374   0.637  0.8058 -0.6110 -0.7695
10549TIP3    H253063   1.967   0.511   0.659 -2.9779 -2.1297 -1.0260
10550TIP3   OH253064   1.952   1.924  13.699 -0.4397 -0.7681  0.0519
10550TIP3    H153065   2.011   1.940  13.625 -2.0720  0.2289 -1.0952
10550TIP3    H253066   1.964   1.832  13.720  2.2348 -0.4065  0.5420
10551TIP3   OH253067   3.295   5.236  10.825 -0.4729  0.1023 -0.2069
10551TIP3    H153068   3.390   5.239  10.820 -0.2804 -2.0174  0.9315
10551TIP3    H253069   3.267   5.197  10.743 -0.2472 -0.4241 -0.0369
10552TIP3   OH253070   4.519   4.817   0.946 -0.1884 -0.4871 -0.0696
10552TIP3    H153071   4.458   4.870   0.997  0.3781 -0.5114  0.6404
10552TIP3    H253072   4.605   4.850   0.969  0.0924 -0.6040 -0.9013
10553TIP3   OH253073   3.868   1.456  15.030  0.0076 -0.0794 -0.4621
10553TIP3    H153074   3.877   1.537  15.081 -1.1879 -0.1904 -0.0510
10553TIP3    H253075   3.947   1.406  15.050 -1.3900 -1.1520  3.1393
10554TIP3   OH253076   6.773   4.961  15.588  0.6033 -1.0114 -0.0203
10554TIP3    H153077   6.769   4.867  15.576 -0.2838 -0.8708 -1.0314
10554TIP3    H253078   6.723   4.997  15.514 -1.1798  0.1440  1.6335
10555TIP3   OH253079   4.986   3.140  14.726  0.1005  0.2703 -0.9777
10555TIP3    H153080   5.070   3.187  14.723  0.2530  0.0804  0.1523
10555TIP3    H253081   4.946   3.159  14.641  1.3954  0.1642 -1.6398
10556TIP3   OH253082   3.827   4.197  12.682 -0.0863  0.6684  0.1033
10556TIP3    H153083   3.830   4.134  12.754 -0.2796  1.2162  0.5993
10556TIP3    H253084   3.744   4.179  12.639 -0.7955  1.4634  1.0776
10557TIP3   OH253085   6.588   6.218   2.438  0.0198  0.1383 -1.1023
10557TIP3    H153086   6.508   6.217   2.385 -0.6643 -1.5148 -0.1052
10557TIP3    H253087   6.628   6.132   2.422 -1.2100 -1.2806  2.4434
10558TIP3   OH253088   2.814   4.199  16.655 -0.2641 -0.1616 -0.0264
10558TIP3    H153089   2.802   4.207  16.750  0.3431 -0.6679  0.0998
10558TIP3    H253090   2.754   4.129  16.629  1.0419 -1.4535  0.3209
10559TIP3   OH253091   6.264   1.949   3.541 -0.4601  0.4014 -0.2865
10559TIP3    H153092   6.206   1.935   3.617 -0.9106  2.1053 -0.2756
10559TIP3    H253093   6.206   1.941   3.465 -0.0799 -0.9315 -0.4667
10560TIP3   OH253094   3.922   4.827  13.632 -0.2102 -0.0390 -0.4927
10560TIP3    H153095   3.955   4.835  13.721 -0.3315  0.9366 -0.5199
10560TIP3    H253096   3.993   4.785  13.583 -1.5455 -4.3505  0.8116
10561TIP3   OH253097   5.924   0.068   4.323  0.9773 -0.5896 -0.2708
10561TIP3    H153098   5.899   0.145   4.273  0.9911 -1.3007 -1.4011
10561TIP3    H253099   5.851   0.055   4.385  0.2860 -0.5069 -1.0478
10562TIP3   OH253100   0.339   0.217   1.150 -0.7221  0.7527 -0.0098
10562TIP3    H153101   0.301   0.294   1.191 -0.1313 -0.6189  3.4788
10562TIP3    H253102   0.269   0.151   1.152 -0.2375  0.2323  0.1475
10563TIP3   OH253103   4.427   0.524  15.647 -0.3514  0.0094 -0.8382
10563TIP3    H153104   4.510   0.558  15.682 -1.1870  0.7172  0.5298
10563TIP3    H253105   4.415   0.441  15.692 -0.7894  0.3049 -0.4045
10564TIP3   OH253106   5.113   2.574   2.117  0.3514 -0.0098 -0.4665
10564TIP3    H153107   5.176   2.506   2.097  0.2800  0.1423 -1.2252
10564TIP3    H253108   5.070   2.592   2.034  0.5143  1.1101 -0.3173
10565TIP3   OH253109   4.997   6.668   0.564 -0.1663  0.3813  0.3266
10565TIP3    H153110   4.946   6.640   0.488  2.3504 -1.4846 -0.8480
10565TIP3    H253111   5.050   6.741   0.531 -0.7897  1.1540  1.0130
10566TIP3   OH253112   4.615   5.496  16.910  0.3142  0.5036  0.1509
10566TIP3    H153113   4.644   5.406  16.923 -0.3560 -0.2157 -2.6077
10566TIP3    H253114   4.519   5.492  16.918  0.4260  1.8566  4.0348
10567TIP3   OH253115   5.728   3.698   2.261 -0.3622 -0.6008 -0.2087
10567TIP3    H153116   5.791   3.672   2.193 -0.0573  1.8304 -0.9502
10567TIP3    H253117   5.776   3.690   2.343  0.0663 -1.2304 -0.5100
10568TIP3   OH253118   2.444   1.950   3.190 -0.3239 -0.1797  0.6575
10568TIP3    H153119   2.484   1.889   3.252  1.5445 -1.2262 -1.4426
10568TIP3    H253120   2.502   2.025   3.189 -0.3335 -0.1768  0.1661
10569TIP3   OH253121   0.746   3.993   3.714  0.0362 -0.3920 -0.0929
10569TIP3    H153122   0.831   3.951   3.722  0.0830 -0.4599 -0.8889
10569TIP3    H253123   0.765   4.087   3.718  0.0899 -0.4147  0.2236
10570TIP3   OH253124   6.038   6.655   2.327 -0.1045  0.5248  0.1642
10570TIP3    H153125   5.957   6.701   2.350 -0.3540  0.4526 -0.5467
10570TIP3    H253126   6.013   6.563   2.323  0.1134  0.4546  0.3530
10571TIP3   OH253127   6.447   2.696  14.935 -0.6409  0.0109 -0.1641
10571TIP3    H153128   6.427   2.650  14.854  2.7493 -1.3245 -0.3929
10571TIP3    H253129   6.480   2.781  14.906 -0.8630  0.1350 -0.0611
10572TIP3   OH253130   5.049   3.116   5.955  0.0296  0.4699 -0.6002
10572TIP3    H153131   5.040   3.026   5.984  1.2843 -0.2282 -2.2434
10572TIP3    H253132   5.017   3.168   6.029  2.1545 -1.1851  1.6437
10573TIP3   OH253133   1.031   0.448   1.213 -0.0086 -0.1571 -0.0937
10573TIP3    H153134   0.958   0.466   1.272  0.2921 -0.6933  0.4612
10573TIP3    H253135   1.108   0.479   1.260  0.2588 -0.7677 -0.1108
10574TIP3   OH253136   2.446   6.791   4.752 -0.5273 -0.2387  0.0377
10574TIP3    H153137   2.438   6.871   4.700 -1.8394 -0.4507 -0.1182
10574TIP3    H253138   2.504   6.735   4.699  2.2322  1.3539  1.1710
10575TIP3   OH253139   1.442   2.895  13.251 -0.0835  0.2958 -0.1702
10575TIP3    H153140   1.392   2.838  13.194 -0.7362  1.4504 -0.7973
10575TIP3    H253141   1.432   2.857  13.338  0.9315 -1.4838 -0.7880
10576TIP3   OH253142   3.087   2.471  15.083  0.7407  0.2571 -0.5596
10576TIP3    H153143   3.180   2.480  15.106 -0.0828  3.0381  2.3153
10576TIP3    H253144   3.067   2.380  15.100  2.5693 -0.0312  0.3126
10577TIP3   OH253145   0.010   5.077  10.666  0.3436 -0.4004  0.2764
10577TIP3    H153146  -0.029   5.003  10.619  0.9810 -0.7815  0.3315
10577TIP3    H253147   0.094   5.092  10.621  0.8781 -0.6548  1.1564
10578TIP3   OH253148   5.430   6.272  14.821 -0.1448 -0.8517  0.0697
10578TIP3    H153149   5.355   6.314  14.780 -0.7113 -1.3242  0.5803
10578TIP3    H253150   5.487   6.344  14.848 -1.6581 -0.2718  2.0185
10579TIP3   OH253151   5.734   5.671  15.044 -0.4740  0.3053  0.5602
10579TIP3    H153152   5.727   5.758  15.005 -0.2619 -0.1079 -0.4420
10579TIP3    H253153   5.751   5.687  15.137 -2.7149  1.3114  0.8372
10580TIP3   OH253154   6.103   1.581  10.901 -0.6908 -0.1226 -0.2531
10580TIP3    H153155   6.080   1.674  10.904 -0.2774  0.0097 -0.8252
10580TIP3    H253156   6.197   1.579  10.918 -0.2171 -0.1853 -2.4886
10581TIP3   OH253157   1.954   6.387  12.038 -0.2379 -0.0685  0.7735
10581TIP3    H153158   1.887   6.375  11.971 -0.1215  1.2187  0.4150
10581TIP3    H253159   1.949   6.480  12.061  1.1943 -0.0289  0.9817
10582TIP3   OH253160   5.461   0.585  16.802 -0.0735  0.2445  0.0663
10582TIP3    H153161   5.533   0.535  16.840  0.5710  1.0195 -0.1047
10582TIP3    H253162   5.429   0.640  16.874 -1.4310 -1.0776  0.5322
10583TIP3   OH253163   3.321   5.737  10.620 -0.5847  0.6688 -0.4986
10583TIP3    H153164   3.285   5.652  10.644  0.6165  0.4707  0.7659
10583TIP3    H253165   3.291   5.796  10.690  0.1349  0.8525 -0.3330
10584TIP3   OH253166   1.467   2.358  11.096 -0.0449 -0.0513 -0.0081
10584TIP3    H153167   1.452   2.267  11.123 -1.4592  0.8563  2.6224
10584TIP3    H253168   1.432   2.363  11.007  0.2962 -2.1259 -0.3040
10585TIP3   OH253169   5.923   2.522  14.453  0.3600  0.0202  0.2157
10585TIP3    H153170   5.860   2.516  14.381  2.2571 -1.0974 -1.5020
10585TIP3    H253171   5.996   2.572  14.416  0.9191  0.4202  1.7884
10586TIP3   OH253172   1.974   3.437   5.280 -0.1292  0.6031 -0.4349
10586TIP3    H153173   2.045   3.498   5.263 -1.0034  1.1495 -2.3515
10586TIP3    H253174   2.017   3.356   5.306  1.3245  0.3734 -3.1986
10587TIP3   OH253175   2.586   1.295  11.328  0.5649  0.1821  0.0423
10587TIP3    H153176   2.499   1.255  11.326  0.4982  0.3544 -1.1886
10587TIP3    H253177   2.644   1.225  11.358  0.0661 -0.0428  0.4986
10588TIP3   OH253178   0.209   4.727   2.918 -0.4453 -0.3926  0.0494
10588TIP3    H153179   0.285   4.737   2.861  0.4280  0.5323  1.3190
10588TIP3    H253180   0.136   4.762   2.866  0.6727  2.4253  0.1827
10589TIP3   OH253181   6.695   3.324  12.646  0.3797  0.2409 -0.0452
10589TIP3    H153182   6.628   3.257  12.657  0.1424  0.4727 -0.0831
10589TIP3    H253183   6.676   3.364  12.561 -0.0798  1.0318  0.4218
10590TIP3   OH253184   3.470   5.058  14.334 -0.3719  0.4744  0.3832
10590TIP3    H153185   3.526   4.989  14.370  0.4853  0.8853 -0.1270
10590TIP3    H253186   3.427   5.017  14.259  0.6078  0.6497 -0.2963
10591TIP3   OH253187   5.499   5.924   3.256 -0.2659 -0.1147 -0.3744
10591TIP3    H153188   5.512   5.829   3.263  0.1865 -0.0851 -0.7777
10591TIP3    H253189   5.585   5.961   3.272 -0.3273  0.1998 -0.7552
10592TIP3   OH253190   1.360   2.621   6.497  0.6914  0.2486  0.4055
10592TIP3    H153191   1.289   2.559   6.482 -0.8245  1.1914  2.9157
10592TIP3    H253192   1.440   2.571   6.485 -0.4573 -1.6772  0.4252
10593TIP3   OH253193   3.181   4.053  14.263 -0.0886  0.1175 -0.6839
10593TIP3    H153194   3.155   4.132  14.310 -0.0234  0.1459 -0.6958
10593TIP3    H253195   3.146   4.064  14.175  0.7155  0.5551 -0.9594
10594TIP3   OH253196   3.620   2.557  15.253  0.1800 -0.6427  0.0645
10594TIP3    H153197   3.579   2.611  15.321  0.5897  1.1594 -1.0525
10594TIP3    H253198   3.592   2.468  15.273  0.4391 -0.2081  2.7060
10595TIP3   OH253199   0.051   2.835  17.021  0.0492  0.3369 -0.7306
10595TIP3    H153200   0.077   2.753  17.062 -0.1373  0.3380 -0.6114
10595TIP3    H253201  -0.042   2.825  17.001  0.0060  0.5505 -0.6421
10596TIP3   OH253202   1.375   2.961  16.661 -0.0670  0.1892  0.6339
10596TIP3    H153203   1.418   2.876  16.655 -0.6565 -0.1236  0.7909
10596TIP3    H253204   1.314   2.953  16.735  1.2321  1.3659  1.8879
10597TIP3   OH253205   2.733   4.903   3.198  0.0524 -0.1907  0.2810
10597TIP3    H153206   2.740   4.817   3.239  1.4697 -0.4198 -0.3769
10597TIP3    H253207   2.720   4.963   3.271 -0.4889 -0.9003  0.7865
10598TIP3   OH253208   1.205   1.979  11.724  0.4853 -0.1589  0.7155
10598TIP3    H153209   1.198   2.073  11.704  0.2891 -0.2324  0.4371
10598TIP3    H253210   1.115   1.953  11.745  0.3302 -0.5518 -0.3973
10599TIP3   OH253211   6.620   3.132  15.537 -0.2778 -0.2470  0.2081
10599TIP3    H153212   6.683   3.061  15.534 -0.2018 -0.1599 -0.4995
10599TIP3    H253213   6.557   3.106  15.604  0.8516 -0.0345  1.3967
10600TIP3   OH253214   1.043   6.686  12.375 -0.3018 -0.0580 -0.4199
10600TIP3    H153215   1.126   6.676  12.422 -0.0866  0.2262 -0.7358
10600TIP3    H253216   0.976   6.674  12.443  0.0037  0.4379 -0.0138
10601TIP3   OH253217   4.845   1.007   1.836  0.0440  0.1595  0.4200
10601TIP3    H153218   4.814   1.046   1.754  1.7177  1.5761  0.3865
10601TIP3    H253219   4.766   0.987   1.886 -1.0010 -0.5347 -1.4316
10602TIP3   OH253220   5.836   6.684   6.362 -0.0589  0.2235 -0.1085
10602TIP3    H153221   5.783   6.606   6.345  0.1538  0.0207  0.1442
10602TIP3    H253222   5.832   6.696   6.457  0.4291  0.1458 -0.0729
10603TIP3   OH253223   2.996   1.463  12.579  0.2413 -0.4073 -0.1947
10603TIP3    H153224   3.040   1.546  12.600  1.4843 -1.3519  1.1324
10603TIP3    H253225   2.903   1.485  12.581  0.5563  1.2160 -1.1041
10604TIP3   OH253226   0.519   2.004  16.797  0.0034 -0.3051  0.0269
10604TIP3    H153227   0.547   2.052  16.719  0.3103  0.9086  0.8558
10604TIP3    H253228   0.425   1.987  16.783  0.6936 -3.1157 -2.1054
10605TIP3   OH253229   0.080   6.146  11.114 -0.0397  0.2739 -0.6803
10605TIP3    H153230   0.104   6.191  11.033  1.5711 -0.0393 -0.4201
10605TIP3    H253231   0.071   6.054  11.089 -0.2504  0.2816 -0.6349
10606TIP3   OH253232   2.607   2.837   3.593 -0.0990 -0.1054 -0.3585
10606TIP3    H153233   2.693   2.865   3.563 -0.2621  2.6750  1.4485
10606TIP3    H253234   2.548   2.857   3.520  0.3866  0.5660 -0.5716
10607TIP3   OH253235   4.254   0.370  14.230  0.2337 -0.0982  0.6283
10607TIP3    H153236   4.224   0.458  14.252  1.8122  0.7719 -0.4415
10607TIP3    H253237   4.229   0.358  14.138  2.2027  0.2934 -0.0112
10608TIP3   OH253238   4.778   1.479   5.094  0.0199 -0.4934  0.2149
10608TIP3    H153239   4.743   1.506   5.008  0.5397  0.8941  0.4093
10608TIP3    H253240   4.803   1.562   5.136  3.9431 -1.3403 -0.0696
10609TIP3   OH253241   3.283   5.966  15.104 -0.4578  0.3390  0.1753
10609TIP3    H153242   3.358   5.987  15.048  0.7461 -0.7839  1.3140
10609TIP3    H253243   3.296   6.019  15.182 -0.4399 -0.4215  0.6915
10610TIP3   OH253244   1.857   2.360  16.999  0.0142  0.2572  0.1386
10610TIP3    H153245   1.841   2.382  17.091 -0.2626 -0.1281  0.1854
10610TIP3    H253246   1.890   2.270  17.002 -3.4767 -1.2191 -0.3691
10611TIP3   OH253247   1.314   5.541   3.025 -1.1655  0.4290 -0.2533
10611TIP3    H153248   1.252   5.613   3.020 -0.0949  1.3055 -1.8602
10611TIP3    H253249   1.392   5.578   3.065 -1.2329 -0.3336  0.6092
10612TIP3   OH253250   5.389   5.066  11.526  0.1118  0.1247  0.5583
10612TIP3    H153251   5.438   5.147  11.541  0.1014  0.6923 -2.0273
10612TIP3    H253252   5.302   5.096  11.499 -0.2322 -0.7873  0.6299
10613TIP3   OH253253   1.086   1.399   0.886 -0.3731  0.1243  0.4417
10613TIP3    H153254   1.038   1.357   0.815 -0.2173 -2.3904  1.7013
10613TIP3    H253255   1.169   1.350   0.891  0.5039  1.6134  1.0285
10614TIP3   OH253256   5.507   3.794   5.498 -0.3598 -0.2737 -0.3926
10614TIP3    H153257   5.416   3.789   5.469 -0.5112  1.8551 -0.4312
10614TIP3    H253258   5.557   3.755   5.426 -1.0737  0.8795 -1.5659
10615TIP3   OH253259   2.224   2.811   1.363 -0.3424 -0.6601  0.4030
10615TIP3    H153260   2.248   2.805   1.271 -2.7689  0.2204 -0.3854
10615TIP3    H253261   2.303   2.840   1.407  0.4074  0.7547 -1.7187
10616TIP3   OH253262   2.307   6.547   3.631  0.2642 -0.2710 -0.1157
10616TIP3    H153263   2.369   6.547   3.558  0.0051 -0.6728 -0.3416
10616TIP3    H253264   2.275   6.637   3.636  2.0498  0.3378  1.0288
10617TIP3   OH253265   5.006   0.077  13.374  0.3968 -0.1806 -0.2758
10617TIP3    H153266   5.004   0.090  13.279 -0.0831  1.3249 -0.0869
10617TIP3    H253267   4.960  -0.006  13.388  0.0905 -0.1990 -1.3366
10618TIP3   OH253268   0.723   3.855  16.906 -0.4926 -0.0057  0.0927
10618TIP3    H153269   0.700   3.888  16.992  1.1978  2.7387 -0.3894
10618TIP3    H253270   0.755   3.766  16.922 -0.9065  0.1918  2.1777
10619TIP3   OH253271   5.463   1.901  14.122 -0.2301 -0.3150  0.2450
10619TIP3    H153272   5.442   1.971  14.184  1.0741 -0.9456  1.4491
10619TIP3    H253273   5.435   1.821  14.167  2.3968 -0.9584  0.9013
10620TIP3   OH253274   0.515   4.103   3.591  0.3739  0.0635 -0.1404
10620TIP3    H153275   0.591   4.048   3.571 -0.1210 -0.8917  0.5582
10620TIP3    H253276   0.447   4.073   3.531 -0.7321 -1.9715  1.9638
10621TIP3   OH253277   3.465   4.881  12.597  0.3593  0.4658  0.1988
10621TIP3    H153278   3.497   4.899  12.508  0.5937  0.7103  0.3283
10621TIP3    H253279   3.544   4.872  12.649  0.2903 -1.7574  0.0155
10622TIP3   OH253280   4.322   1.464   5.225  0.0938 -0.0135 -0.3802
10622TIP3    H153281   4.337   1.375   5.258 -0.9817  0.5213  1.7241
10622TIP3    H253282   4.378   1.470   5.148  2.4814 -1.5513  1.0635
10623TIP3   OH253283   5.883   3.432   2.733  0.5109  0.4406  0.2035
10623TIP3    H153284   5.952   3.481   2.778  1.8254 -0.8097 -0.3811
10623TIP3    H253285   5.835   3.388   2.804  1.0427  0.4016  0.5414
10624TIP3   OH253286   3.039   5.630   5.462  0.6328 -0.2676  0.4197
10624TIP3    H153287   3.070   5.602   5.376 -0.8648 -0.2354 -0.1659
10624TIP3    H253288   3.094   5.582   5.524  2.8817  0.9759 -0.4953
10625TIP3   OH253289   0.515   6.584   1.253  0.3320  0.3964 -0.4357
10625TIP3    H153290   0.505   6.658   1.193 -0.5729  1.8675  1.4201
10625TIP3    H253291   0.426   6.555   1.270  0.4424  0.9883  1.3182
10626TIP3   OH253292   0.551   3.621   1.592  0.2863  0.5770  0.4521
10626TIP3    H153293   0.590   3.538   1.620 -0.5361  0.7976  2.4228
10626TIP3    H253294   0.555   3.677   1.670  0.2199  2.1850 -0.6392
10627TIP3   OH253295   4.147   6.441   5.593 -0.3938 -0.2973 -0.0906
10627TIP3    H153296   4.074   6.472   5.646 -0.0812 -0.6574  0.5621
10627TIP3    H253297   4.143   6.494   5.513 -0.9143  0.1997  0.2573
10628TIP3   OH253298   2.729   3.716   5.495  0.7776 -0.1336  0.1929
10628TIP3    H153299   2.680   3.687   5.572 -0.9011 -1.0058 -1.1372
10628TIP3    H253300   2.805   3.659   5.492  0.9528  0.0287  1.2942
10629TIP3   OH253301   4.877   6.126  15.503 -0.6087  0.3927 -0.4444
10629TIP3    H153302   4.884   6.038  15.467 -0.1796  1.1522 -2.3651
10629TIP3    H253303   4.791   6.129  15.545 -0.2869 -1.1632  0.3622
10630TIP3   OH253304   0.825   6.404  13.091  0.0065 -0.0019  0.1951
10630TIP3    H153305   0.798   6.456  13.016 -0.9411  0.0333  0.5484
10630TIP3    H253306   0.758   6.420  13.157  0.8706  0.0340  1.0890
10631TIP3   OH253307   0.654   6.442  13.294  0.2963  0.4901 -0.2104
10631TIP3    H153308   0.636   6.486  13.376 -0.9676  0.4247 -0.4430
10631TIP3    H253309   0.699   6.361  13.319  0.3290  0.6892  0.3726
10632TIP3   OH253310   0.902   1.838   3.605 -0.1823  0.0572 -0.0078
10632TIP3    H153311   0.860   1.765   3.650 -1.2977  1.7023  1.7923
10632TIP3    H253312   0.829   1.897   3.582  0.7628  1.0486 -0.5417
10633TIP3   OH253313   4.382   5.419   2.755  0.1255 -0.1781  0.0284
10633TIP3    H153314   4.440   5.362   2.806 -0.6071 -0.8004  0.1970
10633TIP3    H253315   4.439   5.460   2.690  0.7419 -0.8253  0.1493
10634TIP3   OH253316   2.345   5.914   3.813 -0.4437  0.7174 -0.7598
10634TIP3    H153317   2.283   5.983   3.834  0.8889  1.2886  1.6348
10634TIP3    H253318   2.431   5.953   3.827  0.3568 -1.3687  0.7138
10635TIP3   OH253319   3.129   0.996  10.885  0.4156  0.3852 -0.1666
10635TIP3    H153320   3.157   0.906  10.869 -1.1756 -0.2581  0.4387
10635TIP3    H253321   3.162   1.017  10.973  0.1654  0.1128 -0.0053
10636TIP3   OH253322   5.705   4.728  10.403  0.5869 -0.0008 -0.0027
10636TIP3    H153323   5.792   4.690  10.408  1.9499  2.8831  0.3822
10636TIP3    H253324   5.669   4.718  10.491  0.9375 -0.2920  0.1103
10637TIP3   OH253325   4.057   3.794   2.609 -0.3253 -0.1681  0.0888
10637TIP3    H153326   4.063   3.805   2.704  0.3542  1.0428 -0.0743
10637TIP3    H253327   4.137   3.835   2.575 -0.5782 -0.5438 -1.0135
10638TIP3   OH253328   6.562   4.518   5.865 -1.0936  0.4481  0.0003
10638TIP3    H153329   6.557   4.536   5.958 -0.2888 -0.5877  0.2625
10638TIP3    H253330   6.652   4.538   5.841 -0.9538 -0.4786 -0.2790
10639TIP3   OH253331   5.743   1.556  13.119  0.1356 -0.5522 -0.6424
10639TIP3    H153332   5.791   1.623  13.167  0.1678 -0.6317 -0.5611
10639TIP3    H253333   5.796   1.538  13.042  0.4499 -0.9323 -0.3468
10640TIP3   OH253334   1.545   1.986   4.629 -0.4750 -0.0298  0.1120
10640TIP3    H153335   1.635   2.008   4.604  0.0879 -1.1008  1.0581
10640TIP3    H253336   1.555   1.913   4.690 -1.9820  0.0326  0.4732
10641TIP3   OH253337   2.098   2.314   6.075  0.0048 -0.7014 -0.4790
10641TIP3    H153338   2.027   2.361   6.031  0.6921  2.0204  1.0863
10641TIP3    H253339   2.055   2.267   6.147 -0.2610  1.2417  0.6994
10642TIP3   OH253340   6.743   0.139  12.589  0.1783  0.0073 -0.8445
10642TIP3    H153341   6.810   0.099  12.645 -1.7405 -0.0217  1.5445
10642TIP3    H253342   6.734   0.077  12.516  0.5982 -1.5658  0.3693
10643TIP3   OH253343   1.337   0.724   3.831  0.0431 -0.4623  0.0560
10643TIP3    H153344   1.399   0.737   3.903 -0.0119  0.4161 -0.0375
10643TIP3    H253345   1.312   0.813   3.805  0.8742 -0.7019 -1.7504
10644TIP3   OH253346   4.172   0.415   0.118 -0.6568 -0.3261 -0.7948
10644TIP3    H153347   4.079   0.434   0.108 -0.6270  1.6466  1.6887
10644TIP3    H253348   4.174   0.328   0.158 -1.5272  0.0877  0.1981
10645TIP3   OH253349   5.437   0.104   0.921  0.1574 -0.1285  0.7674
10645TIP3    H153350   5.469   0.023   0.960  2.3992  0.1150 -0.4090
10645TIP3    H253351   5.436   0.087   0.827  0.3313  1.0800  0.5252
10646TIP3   OH253352   1.380   3.387   6.063 -0.1256  0.3027  0.1050
10646TIP3    H153353   1.409   3.368   6.152 -2.4028 -1.8859  0.4917
10646TIP3    H253354   1.290   3.419   6.074  0.6260  3.1672 -1.2511
10647TIP3   OH253355   5.574   0.714   3.261  0.2618 -0.3981 -0.2483
10647TIP3    H153356   5.540   0.767   3.189 -0.0820 -1.1741 -0.6655
10647TIP3    H253357   5.560   0.767   3.339 -0.6824 -0.1456 -0.5793
10648TIP3   OH253358   3.998   3.410  15.284  0.4484 -0.1307  0.3062
10648TIP3    H153359   3.990   3.496  15.243 -0.3375 -1.1534 -1.8369
10648TIP3    H253360   3.912   3.369  15.271  1.3908 -1.9809 -0.6153
10649TIP3   OH253361   2.504   2.654  14.531 -0.4177  0.3897 -0.9393
10649TIP3    H153362   2.518   2.625  14.621  1.1939  1.3879 -0.8132
10649TIP3    H253363   2.443   2.590  14.494  0.5064 -1.2619  0.2381
10650TIP3   OH253364   0.916   4.823  14.770  0.1665  0.3560  0.4893
10650TIP3    H153365   0.881   4.911  14.783 -1.5285  0.2798 -2.5688
10650TIP3    H253366   0.841   4.765  14.787  0.6601 -0.3360  0.3507
10651TIP3   OH253367   6.335   6.231   2.317  0.0076 -0.0814  0.3228
10651TIP3    H153368   6.310   6.323   2.316 -0.9555 -0.3351  0.5672
10651TIP3    H253369   6.277   6.191   2.380 -1.4373 -1.3718 -1.6981
10652TIP3   OH253370   4.761   1.388   4.328 -0.1319 -0.4795 -0.6624
10652TIP3    H153371   4.799   1.382   4.416 -0.7755 -0.6198 -0.3869
10652TIP3    H253372   4.761   1.481   4.308  0.6925 -0.5054 -0.8219
10653TIP3   OH253373   1.027   1.751  16.262 -0.5024  0.1571  0.3547
10653TIP3    H153374   1.005   1.792  16.346 -1.7025  1.0528 -0.3721
10653TIP3    H253375   0.951   1.696  16.241 -1.4938  2.0742 -1.4357
10654TIP3   OH253376   3.473   5.859   4.473 -0.0377  0.4852  0.3031
10654TIP3    H153377   3.383   5.889   4.481 -0.6223 -1.5252  1.9462
10654TIP3    H253378   3.521   5.936   4.442 -1.8214  2.4462  2.0833
10655TIP3   OH253379   0.118   3.702  15.708 -0.7432 -0.3909 -0.1171
10655TIP3    H153380   0.082   3.702  15.796 -2.1725 -1.2537 -0.6634
10655TIP3    H253381   0.134   3.610  15.688  1.8624 -0.0393  0.1013
10656TIP3   OH253382   6.298   4.088  11.585 -0.0667 -0.2385  0.8158
10656TIP3    H153383   6.301   4.138  11.503 -0.5354  2.5702  2.3609
10656TIP3    H253384   6.380   4.111  11.629 -1.5269  1.5739  2.7956
10657TIP3   OH253385   3.042   2.603   2.733  0.1212 -0.2974  0.2166
10657TIP3    H153386   2.969   2.618   2.793 -0.8389 -3.1086 -0.1248
10657TIP3    H253387   3.103   2.548   2.782 -0.5556 -2.4243 -1.1934
10658TIP3   OH253388   2.049   3.484  13.904  0.0837  0.6814 -0.1225
10658TIP3    H153389   1.997   3.551  13.858 -1.1090 -0.5020 -0.5634
10658TIP3    H253390   2.044   3.407  13.847  3.1973  0.7845 -0.6850
10659TIP3   OH253391   1.589   0.399  14.226  0.2368 -0.0304  0.1789
10659TIP3    H153392   1.584   0.306  14.206 -0.2997  0.0110  0.1162
10659TIP3    H253393   1.551   0.408  14.313  1.4262 -0.0327  0.7291
10660TIP3   OH253394   2.320   3.103   2.964 -0.4263  0.5272 -0.7827
10660TIP3    H153395   2.347   3.012   2.951 -2.0011 -0.4531  1.8043
10660TIP3    H253396   2.380   3.136   3.030 -1.1496  0.6077 -0.1427
10661TIP3   OH253397   2.557   5.159  14.618  0.6452  0.2452  0.1341
10661TIP3    H153398   2.590   5.239  14.578 -3.4556  3.2319  2.0229
10661TIP3    H253399   2.505   5.117  14.550 -0.2562  1.2690  0.1799
10662TIP3   OH253400   1.542   5.451  10.536 -0.4270  0.1775  0.6780
10662TIP3    H153401   1.486   5.463  10.613 -1.2574  0.5193  0.0298
10662TIP3    H253402   1.607   5.521  10.542 -1.5016  1.2549  0.2034
10663TIP3   OH253403   3.987   6.161  15.729  0.5090 -0.0734 -0.2212
10663TIP3    H153404   4.005   6.253  15.748  0.4975 -0.2458  0.6544
10663TIP3    H253405   3.932   6.132  15.802  2.5867 -1.4493  0.8840
10664TIP3   OH253406   5.908   1.893  11.514  0.8151  0.2610 -0.0689
10664TIP3    H153407   5.989   1.844  11.503 -0.5371 -1.8332 -1.5445
10664TIP3    H253408   5.896   1.899  11.609  0.7762 -2.9087  0.2217
10665TIP3   OH253409   1.749   2.273  15.305 -0.4710 -0.1508  0.8577
10665TIP3    H153410   1.753   2.367  15.321 -1.3411  0.2371 -0.9120
10665TIP3    H253411   1.697   2.265  15.225 -0.2409 -2.1300  0.8636
10666TIP3   OH253412   1.580   0.533   4.617  0.2580  0.4772 -0.4243
10666TIP3    H153413   1.568   0.497   4.529  1.5835  0.2228 -0.5195
10666TIP3    H253414   1.516   0.603   4.623 -1.9077 -1.3882 -0.4945
10667TIP3   OH253415   2.412   1.747   4.945 -0.4462  0.4866 -0.1418
10667TIP3    H153416   2.441   1.722   5.033  0.4628  0.8592 -0.3201
10667TIP3    H253417   2.363   1.672   4.913 -0.7892  0.3541  0.6878
10668TIP3   OH253418   1.178   5.236   3.831  0.6301  0.1072 -0.3496
10668TIP3    H153419   1.235   5.241   3.907 -0.6989 -1.3231  0.8079
10668TIP3    H253420   1.206   5.158   3.784 -0.7365 -1.0007  0.5993
10669TIP3   OH253421   3.390   6.600   3.637  0.8446 -0.3622 -0.0916
10669TIP3    H153422   3.305   6.559   3.655  0.1375  1.0714 -0.0920
10669TIP3    H253423   3.416   6.563   3.552  0.1584 -0.7122 -0.1591
10670TIP3   OH253424   4.315   4.115   2.231  0.3332 -0.1295 -0.0699
10670TIP3    H153425   4.226   4.081   2.243  0.3498  0.2569  1.2411
10670TIP3    H253426   4.305   4.188   2.170 -0.1380 -0.5196 -0.4700
10671TIP3   OH253427   3.125   2.485  15.672  0.1112  0.1428 -0.1852
10671TIP3    H153428   3.164   2.566  15.706  0.2856  0.5455 -1.2856
10671TIP3    H253429   3.152   2.417  15.733  0.9703  0.7284  0.1020
10672TIP3   OH253430   3.811   0.597  12.020 -0.0556 -0.7039  0.2045
10672TIP3    H153431   3.837   0.609  11.929  1.7522  1.9043  0.9450
10672TIP3    H253432   3.716   0.602  12.020 -0.0257  0.2727 -1.4187
10673TIP3   OH253433   6.161   2.102  14.733 -0.2082 -0.1119 -0.0307
10673TIP3    H153434   6.167   2.124  14.826  0.6268  2.1172 -0.5494
10673TIP3    H253435   6.251   2.085  14.706 -0.0204  2.0751 -0.9987
10674TIP3   OH253436   5.908   4.824   0.698  0.0421  0.9676  0.7400
10674TIP3    H153437   5.861   4.862   0.624 -0.1799 -1.1459 -0.2968
10674TIP3    H253438   5.877   4.872   0.774 -1.1158  1.9879 -0.3354
10675TIP3   OH253439   2.013   4.810   5.654  0.5322  0.2175 -0.5219
10675TIP3    H153440   2.018   4.802   5.749  0.1633 -0.3692 -0.5427
10675TIP3    H253441   2.067   4.886   5.632  1.2471 -0.1124  0.0866
10676TIP3   OH253442   5.954   3.995   2.124  0.5024 -0.5588 -0.4022
10676TIP3    H153443   5.892   4.021   2.193  0.3988 -1.7756 -0.0251
10676TIP3    H253444   6.030   3.961   2.170  0.3678 -1.5426 -0.8810
10677TIP3   OH253445   3.105   4.306   1.060  0.0393 -0.0234  0.4293
10677TIP3    H153446   3.068   4.331   1.144 -1.7827  0.2738 -0.4115
10677TIP3    H253447   3.030   4.303   1.001  1.2907 -0.0592 -1.2277
10678TIP3   OH253448   2.063   4.383   1.980 -0.1014  0.7363 -0.2210
10678TIP3    H153449   2.038   4.295   2.009  0.0408  0.6149 -0.4660
10678TIP3    H253450   2.151   4.395   2.018  0.4953  0.1990 -1.3848
10679TIP3   OH253451   1.178   3.993  12.983 -0.0809 -0.1624 -0.2485
10679TIP3    H153452   1.121   3.937  12.930  0.1577 -0.0099 -0.6651
10679TIP3    H253453   1.119   4.030  13.050 -0.0903 -1.4985  0.5049
10680TIP3   OH253454   4.151   6.400  13.696 -0.4155 -0.2022 -0.7022
10680TIP3    H153455   4.111   6.325  13.740  1.7094 -0.1513  1.4725
10680TIP3    H253456   4.105   6.476  13.731  0.6223 -0.2260  0.7826
10681TIP3   OH253457   2.168   5.363   4.596 -0.3250  0.1687  0.2589
10681TIP3    H153458   2.226   5.289   4.614  0.7357  0.4064 -1.9372
10681TIP3    H253459   2.106   5.330   4.531 -1.9989  0.2772  1.7122
10682TIP3   OH253460   6.121   0.460   3.542 -0.0843 -0.6017  0.2897
10682TIP3    H153461   6.128   0.437   3.635  2.2000  0.6163  0.5008
10682TIP3    H253462   6.183   0.532   3.531 -1.1439  0.0594 -1.9682
10683TIP3   OH253463   4.759   5.226  13.689 -0.4647  0.4247  0.8223
10683TIP3    H153464   4.727   5.143  13.725 -0.1046 -0.3268 -0.5075
10683TIP3    H253465   4.788   5.203  13.600  0.1881  1.8637  0.6488
10684TIP3   OH253466   3.723   1.937   2.580 -0.3209  0.4440  0.6505
10684TIP3    H153467   3.736   1.923   2.674 -1.2523  0.4059  0.7818
10684TIP3    H253468   3.629   1.928   2.567 -0.1560  0.0407 -0.3611
10685TIP3   OH253469   4.595   0.988  13.632 -0.0920 -0.0167 -0.1561
10685TIP3    H153470   4.684   0.966  13.661 -0.3312 -0.7711  0.0113
10685TIP3    H253471   4.605   1.006  13.538  0.9284  3.7461  0.4887
10686TIP3   OH253472   1.758   1.703  11.822  0.4165  0.2146  0.3305
10686TIP3    H153473   1.705   1.780  11.803 -1.3335 -0.4902  1.9481
10686TIP3    H253474   1.803   1.724  11.904 -0.9086 -0.8220  1.3647
10687TIP3   OH253475   4.069   5.440   1.036  0.0653  0.0246  0.4434
10687TIP3    H153476   4.113   5.366   1.079 -0.1294 -0.0801  0.4610
10687TIP3    H253477   3.979   5.437   1.068  0.7048  1.9676  2.6904
10688TIP3   OH253478   6.592   5.345  12.753 -0.2200  0.1226 -0.0658
10688TIP3    H153479   6.594   5.327  12.847  2.3298  1.1978  0.1569
10688TIP3    H253480   6.508   5.309  12.724 -0.5868 -1.2504  2.3931
10689TIP3   OH253481   1.136   4.643  12.277  0.1159  0.6614  0.2239
10689TIP3    H153482   1.133   4.620  12.370  1.0313  1.4604  0.4680
10689TIP3    H253483   1.145   4.739  12.276  1.0188  0.5839 -0.6653
10690TIP3   OH253484   3.594   5.684  14.139 -0.1759 -0.3910  0.5169
10690TIP3    H153485   3.634   5.625  14.076  0.3143 -1.1414  1.5005
10690TIP3    H253486   3.597   5.637  14.222  1.3165  1.4233  1.5928
10691TIP3   OH253487   2.347   2.648  10.899  0.1320 -0.8256  0.4835
10691TIP3    H153488   2.284   2.636  10.828  0.9929 -0.2714 -0.3933
10691TIP3    H253489   2.414   2.580  10.884  0.9874  0.1031 -0.0060
10692TIP3   OH253490   3.722   2.508   4.004  0.1653 -0.3514  0.0672
10692TIP3    H153491   3.808   2.466   4.006  0.0583 -0.6357 -0.7012
10692TIP3    H253492   3.669   2.459   4.067  0.8565  0.5132  1.3546
10693TIP3   OH253493   5.327   5.612   2.077  0.8886 -0.3964 -0.3293
10693TIP3    H153494   5.420   5.626   2.062  1.1049  0.8513  1.8480
10693TIP3    H253495   5.320   5.523   2.110  1.4231 -0.1997  0.3212
10694TIP3   OH253496   6.471   5.601   5.869  0.4890 -0.0088  0.1065
10694TIP3    H153497   6.466   5.664   5.941 -2.3685  0.8416 -0.6937
10694TIP3    H253498   6.495   5.518   5.911  0.0074  0.6990  1.8657
10695TIP3   OH253499   1.041   6.757   3.624 -0.1327  0.0267  0.4890
10695TIP3    H153500   1.029   6.844   3.587  0.9922 -0.5964 -1.4811
10695TIP3    H253501   1.136   6.745   3.626 -0.2810 -1.2833  0.3778
10696TIP3   OH253502   0.961   4.348   3.012 -0.1301  0.2148  0.4484
10696TIP3    H153503   0.944   4.377   2.923 -0.5035 -1.1577  0.0486
10696TIP3    H253504   0.969   4.429   3.063  1.5113  1.0881 -1.0592
10697TIP3   OH253505   0.093   4.492  14.282 -0.4632  0.0971 -0.0637
10697TIP3    H153506   0.009   4.537  14.268 -1.9814 -3.0445 -1.9713
10697TIP3    H253507   0.136   4.494  14.197  0.0710 -0.7991  0.1733
10698TIP3   OH253508   3.188   0.647  12.417 -0.3025  0.1213 -0.1112
10698TIP3    H153509   3.274   0.682  12.398 -0.0078 -0.6924 -0.3494
10698TIP3    H253510   3.153   0.702  12.487 -0.0322  1.1087 -0.7386
10699TIP3   OH253511   5.725   5.424  11.856  0.5080 -0.0777  0.0826
10699TIP3    H153512   5.728   5.348  11.798  1.9780 -0.5175  0.6835
10699TIP3    H253513   5.812   5.463  11.849  0.0743  1.0147  0.5052
10700TIP3   OH253514   6.435   0.640  16.391 -0.0375  0.3100  0.2027
10700TIP3    H153515   6.387   0.566  16.355 -0.6176  0.3555  0.8656
10700TIP3    H253516   6.516   0.643  16.340 -0.7635  0.2845 -0.9835
10701TIP3   OH253517   1.868   3.289   3.996 -0.1855  0.2917 -0.7247
10701TIP3    H153518   1.930   3.217   4.003  0.4429  0.7697 -1.2651
10701TIP3    H253519   1.886   3.345   4.072 -0.3066  0.1695 -0.6044
10702TIP3   OH253520   4.376   0.973   2.098  0.2683 -0.1619 -0.0204
10702TIP3    H153521   4.372   0.910   2.026 -0.0831  0.3548 -0.4629
10702TIP3    H253522   4.340   0.927   2.173 -1.4002 -0.0256 -0.6897
10703TIP3   OH253523   3.258   6.095  11.578 -0.1112  0.5386  0.5491
10703TIP3    H153524   3.348   6.067  11.564 -0.0569 -0.4923  2.6214
10703TIP3    H253525   3.209   6.050  11.509  0.5693 -1.4727  1.3042
10704TIP3   OH253526   0.951   2.526   4.660  0.0854 -0.3326 -0.1045
10704TIP3    H153527   0.898   2.506   4.737 -0.6402  0.8398 -0.2647
10704TIP3    H253528   0.901   2.493   4.586  0.5720 -1.0593 -0.1220
10705TIP3   OH253529   0.388   4.145  14.736  0.0020  0.1987 -0.4041
10705TIP3    H153530   0.421   4.085  14.802 -1.2384 -0.7200 -0.5803
10705TIP3    H253531   0.462   4.161  14.678  1.2960  1.5094  1.5153
10706TIP3   OH253532   6.598   0.052   3.354  0.1702  0.0106  0.0109
10706TIP3    H153533   6.543   0.130   3.345 -0.8137 -0.6121  0.4249
10706TIP3    H253534   6.596   0.033   3.447 -1.5142 -1.8135 -0.3340
10707TIP3   OH253535   0.502   1.990   3.395  0.2284 -0.1819 -0.1344
10707TIP3    H153536   0.470   1.992   3.486 -0.0250  0.9249 -0.2263
10707TIP3    H253537   0.505   1.897   3.372 -1.9376 -0.3995  0.2433
10708TIP3   OH253538   4.296   1.620  12.652  0.1076  0.4795 -0.4117
10708TIP3    H153539   4.383   1.638  12.618 -0.0995  2.0665 -0.1632
10708TIP3    H253540   4.251   1.576  12.580 -0.1294  3.2449 -2.0786
10709TIP3   OH253541   4.161   3.932  10.606  0.0985 -0.3076  0.2809
10709TIP3    H153542   4.104   3.993  10.561 -0.0779 -1.5108 -1.2321
10709TIP3    H253543   4.109   3.852  10.615  1.2336 -1.1895 -0.4704
10710TIP3   OH253544   3.669   6.522   3.036 -0.1192 -0.3069  0.3240
10710TIP3    H153545   3.717   6.446   3.002 -2.9581 -1.5265 -1.2858
10710TIP3    H253546   3.680   6.589   2.969 -0.7693 -0.6517 -0.1385
10711TIP3   OH253547   4.942   3.325   5.731 -0.0858  0.3149  0.0657
10711TIP3    H153548   4.978   3.253   5.681  0.6269  2.0926 -2.1580
10711TIP3    H253549   5.003   3.336   5.804  1.1554  0.1610 -0.9118
10712TIP3   OH253550   4.466   4.146  15.085  0.2146 -0.6403  0.2153
10712TIP3    H153551   4.469   4.133  15.180  0.0785 -1.8342  0.0739
10712TIP3    H253552   4.394   4.207  15.071 -1.1386 -2.0572  0.7502
10713TIP3   OH253553   0.402   1.789   5.549  0.1924 -0.5921  0.2799
10713TIP3    H153554   0.342   1.754   5.483  0.7755 -1.2816  0.0966
10713TIP3    H253555   0.466   1.839   5.498 -0.4042  0.4376  0.5048
10714TIP3   OH253556   1.105   0.537  13.572 -0.0801 -0.5197 -0.2838
10714TIP3    H153557   1.166   0.606  13.598 -0.4276  0.3265 -1.5992
10714TIP3    H253558   1.156   0.456  13.578  0.6331 -0.0443  0.3073
10715TIP3   OH253559   3.234   2.841   0.360 -0.2392  0.3173  0.4016
10715TIP3    H153560   3.169   2.895   0.403  1.1504  0.6927  2.1467
10715TIP3    H253561   3.209   2.751   0.380 -0.5935  0.4340  0.4827
10716TIP3   OH253562   1.011   5.930   1.796  0.1016  0.1759  0.5001
10716TIP3    H153563   0.952   5.859   1.822  0.5924 -0.4952 -0.1622
10716TIP3    H253564   1.027   5.979   1.877 -2.0436  0.9187  0.5488
10717TIP3   OH253565   6.363   3.395   6.355  0.4430  0.1236  0.2983
10717TIP3    H153566   6.398   3.308   6.373  0.2413 -0.0851 -0.2950
10717TIP3    H253567   6.416   3.427   6.282 -1.2494 -0.6148 -1.3220
10718TIP3   OH253568   2.420   3.684  11.337  0.4091  0.0495  0.4161
10718TIP3    H153569   2.394   3.725  11.255 -0.2067 -1.7182 -0.3123
10718TIP3    H253570   2.514   3.697  11.342  1.1746 -3.0537 -2.5516
10719TIP3   OH253571   2.611   4.667  13.200  0.2294 -0.2230  0.0350
10719TIP3    H153572   2.531   4.658  13.251  0.7834 -0.2785  0.9109
10719TIP3    H253573   2.664   4.729  13.250  0.2536  0.7590 -1.1525
10720TIP3   OH253574   1.049   2.918  14.569 -0.7185 -0.1240  0.2570
10720TIP3    H153575   1.021   2.954  14.485 -0.7530 -1.1357 -0.1756
10720TIP3    H253576   0.993   2.842  14.583 -0.3776 -0.2603  0.9593
10721TIP3   OH253577   4.159   0.032   1.505 -0.0739  0.2761  0.2021
10721TIP3    H153578   4.146   0.125   1.490  0.7116  0.4484  0.5288
10721TIP3    H253579   4.071  -0.005   1.510 -0.3872  1.0016  0.1032
10722TIP3   OH253580   4.830   4.345  16.990  0.5439  0.0223 -0.0438
10722TIP3    H153581   4.856   4.397  16.914 -0.9763 -0.0848 -0.6869
10722TIP3    H253582   4.853   4.255  16.967 -0.0745 -0.0334 -0.4726
10723TIP3   OH253583   4.292   1.951   5.810 -0.3659  0.1430  0.1227
10723TIP3    H153584   4.278   1.904   5.892 -1.7234 -0.0037 -0.1734
10723TIP3    H253585   4.218   1.926   5.755 -0.3587  1.5040 -0.5543
10724TIP3   OH253586   5.255   6.240   1.098 -0.0458  0.0120 -0.1639
10724TIP3    H153587   5.277   6.323   1.055  0.5795 -0.3066 -0.4617
10724TIP3    H253588   5.328   6.182   1.078 -0.8243 -0.8437 -0.5666
10725TIP3   OH253589   6.387   0.879  14.439  0.7494  0.2031  0.0623
10725TIP3    H153590   6.376   0.817  14.366  1.8488  2.1867 -1.9335
10725TIP3    H253591   6.462   0.845  14.488 -0.3946 -1.5067  0.7074
10726TIP3   OH253592   1.813   1.446   3.503 -0.4515 -0.1076 -0.0382
10726TIP3    H153593   1.859   1.363   3.494  1.5112  0.4638  3.0463
10726TIP3    H253594   1.737   1.426   3.558 -0.3545  0.0286  0.1461
10727TIP3   OH253595   0.611   0.695  15.357  0.7051 -0.2169  0.1467
10727TIP3    H153596   0.624   0.600  15.365 -0.1205 -0.3516 -0.0779
10727TIP3    H253597   0.517   0.707  15.363  0.5213  0.3302 -2.5753
10728TIP3   OH253598   6.355   1.396  11.624 -0.0186  0.1173  0.4909
10728TIP3    H153599   6.286   1.460  11.608  0.9404  0.9392 -0.5550
10728TIP3    H253600   6.352   1.380  11.718 -1.0840  0.7578  0.5786
10729TIP3   OH253601   1.338   6.787   2.519 -0.0458  0.5408 -0.0556
10729TIP3    H153602   1.379   6.713   2.475  0.9037 -0.2626  2.0387
10729TIP3    H253603   1.245   6.764   2.522  0.1823 -0.4049  0.2141
10730TIP3   OH253604   4.977   3.353  14.263 -0.4671  0.3517  0.2704
10730TIP3    H153605   5.042   3.308  14.208 -1.5576 -0.5481 -0.3288
10730TIP3    H253606   4.987   3.445  14.241  1.0019  0.3056  0.6303
10731TIP3   OH253607   4.426   5.108   1.475 -0.0865  0.1714  0.1996
10731TIP3    H153608   4.384   5.193   1.484 -1.8217 -0.6238 -0.0256
10731TIP3    H253609   4.368   5.058   1.418  1.1721 -1.0026 -0.1064
10732TIP3   OH253610   4.977   2.552  14.953  0.0490 -0.2774  0.3116
10732TIP3    H153611   4.959   2.467  14.994  1.2130 -0.1618  1.1021
10732TIP3    H253612   4.936   2.546  14.867 -1.7516 -0.8229  1.1764
10733TIP3   OH253613   2.095   2.534  15.455  0.0910 -0.2511 -0.3283
10733TIP3    H153614   2.052   2.473  15.395 -0.8106  1.7938 -1.8794
10733TIP3    H253615   2.182   2.496  15.468 -0.5274 -2.0101 -0.9617
10734TIP3   OH253616   1.417   3.542  15.133  0.4153  0.4161 -0.0162
10734TIP3    H153617   1.324   3.518  15.128  0.6647 -0.8170  0.7354
10734TIP3    H253618   1.457   3.494  15.061  0.5782  0.4148  0.0769
10735TIP3   OH253619   4.083   3.975   5.216  0.1198 -0.1565 -0.3490
10735TIP3    H153620   4.071   3.889   5.177  1.0024 -0.7748  0.6882
10735TIP3    H253621   4.004   3.989   5.269  1.2922 -1.7462  1.9893
10736TIP3   OH253622   4.191   1.617   1.657  0.4606 -0.4786  0.5987
10736TIP3    H153623   4.252   1.687   1.631 -2.3615  2.2100  0.6619
10736TIP3    H253624   4.164   1.577   1.574 -1.4182  1.7579  0.0393
10737TIP3   OH253625   1.514   2.413   2.946  0.1929 -0.5902  0.0679
10737TIP3    H153626   1.501   2.346   2.879  0.9773 -0.6157 -0.0656
10737TIP3    H253627   1.606   2.406   2.971  0.4200  0.7489 -0.2821
10738TIP3   OH253628   4.605   5.481   2.041 -0.6093 -0.2351 -0.3734
10738TIP3    H153629   4.560   5.409   1.996 -1.0384  0.6035 -1.3316
10738TIP3    H253630   4.693   5.480   2.006 -0.8296  0.1677 -0.9489
10739TIP3   OH253631   0.797   2.759  12.651 -0.1287 -0.6367 -0.2415
10739TIP3    H153632   0.823   2.825  12.715  0.0804  0.2424 -1.1889
10739TIP3    H253633   0.701   2.759  12.655 -0.1115 -2.3063  1.7076
10740TIP3   OH253634   0.783   6.672  12.575 -0.1412  0.2053 -0.1224
10740TIP3    H153635   0.820   6.730  12.641 -0.4296  1.6974 -1.2237
10740TIP3    H253636   0.711   6.721  12.537 -0.1741 -0.7283 -1.3368
10741TIP3   OH253637   2.783   3.552  11.767 -0.2689  0.3577 -0.0570
10741TIP3    H153638   2.701   3.527  11.809 -0.7605 -0.3632 -1.3911
10741TIP3    H253639   2.850   3.533  11.833 -0.9328 -1.4953  0.1458
10742TIP3   OH253640   1.745   6.391  12.833  0.1440 -0.6767  0.0143
10742TIP3    H153641   1.683   6.324  12.861  0.3792 -0.6608  0.5777
10742TIP3    H253642   1.730   6.464  12.892 -0.3359 -0.0987 -0.8029
10743TIP3   OH253643   4.592   6.781   3.505 -0.0176  0.1156 -0.2193
10743TIP3    H153644   4.656   6.826   3.450  2.8151 -0.1643  2.5550
10743TIP3    H253645   4.524   6.846   3.523  0.2796  0.9457 -1.9188
10744TIP3   OH253646   5.996   5.788  14.792  0.1665  0.5777 -0.0471
10744TIP3    H153647   5.973   5.701  14.760 -0.8552  0.2255  1.5454
10744TIP3    H253648   5.944   5.848  14.740 -0.2834  0.1287 -0.1206
10745TIP3   OH253649   1.453   0.886   0.232 -0.0514 -0.2183 -0.8489
10745TIP3    H153650   1.420   0.796   0.227 -0.8965 -0.1517  1.8729
10745TIP3    H253651   1.548   0.877   0.228 -0.1232 -1.2482 -0.5328
10746TIP3   OH253652   1.009   6.145   2.440  0.1941 -0.3349  0.6162
10746TIP3    H153653   1.076   6.166   2.505  0.2009  1.8951 -0.0452
10746TIP3    H253654   0.929   6.129   2.492  0.1311  1.6587  1.2073
10747TIP3   OH253655   5.705   6.180   3.481 -0.3248  0.1955 -0.7136
10747TIP3    H153656   5.799   6.186   3.498 -0.3298  3.1794 -1.3654
10747TIP3    H253657   5.670   6.141   3.561  1.3822 -0.5629 -0.2702
10748TIP3   OH253658   1.192   0.785   1.017  0.6401  0.1091  0.4698
10748TIP3    H153659   1.214   0.820   0.931  0.8815 -1.4842 -0.1391
10748TIP3    H253660   1.239   0.702   1.023 -0.1874 -0.3087  1.7171
10749TIP3   OH253661   0.883   2.399   0.653 -0.2812 -0.3187  0.5381
10749TIP3    H153662   0.956   2.351   0.614  0.7800  1.0813  0.7357
10749TIP3    H253663   0.921   2.445   0.728 -1.3207  0.5276  0.5709
10750TIP3   OH253664   5.707   5.062  10.716  0.3600  0.4699 -0.1686
10750TIP3    H153665   5.620   5.026  10.700  0.1250  1.0878 -0.3250
10750TIP3    H253666   5.734   5.024  10.799 -0.3470  0.7902  0.2211
10751TIP3   OH253667   5.409   0.204  14.433 -0.3211 -0.1437  0.6536
10751TIP3    H153668   5.351   0.280  14.425  0.2915  0.6069  2.6651
10751TIP3    H253669   5.429   0.199  14.527  2.4449 -0.6770  0.1269
10752TIP3   OH253670   1.918   6.460   0.451 -0.1283  0.1914  0.3418
10752TIP3    H153671   1.899   6.527   0.516 -1.9424  0.7972 -0.7366
10752TIP3    H253672   1.887   6.378   0.491 -2.2577  0.7159 -0.1237
10753TIP3   OH253673   5.946   3.209   1.523 -0.1464 -0.3132  0.0313
10753TIP3    H153674   5.928   3.132   1.468 -2.7627  1.1477 -1.3444
10753TIP3    H253675   5.914   3.183   1.610 -1.7326 -0.5570 -0.5931
10754TIP3   OH253676   4.190   5.483   4.596  0.0928 -0.4436  0.5591
10754TIP3    H153677   4.131   5.470   4.671  0.5519 -1.0227  0.8272
10754TIP3    H253678   4.131   5.485   4.520 -0.3286 -0.4093  0.8810
10755TIP3   OH253679   2.621   4.827   5.201 -0.2700 -0.2251  0.0188
10755TIP3    H153680   2.669   4.904   5.170 -0.8402 -0.5579 -1.8231
10755TIP3    H253681   2.570   4.859   5.275  1.9471  0.3775  1.3678
10756TIP3   OH253682   1.571   4.123  16.251 -0.4944 -0.2687 -0.1239
10756TIP3    H153683   1.614   4.208  16.252  0.7206 -0.8439 -0.8606
10756TIP3    H253684   1.538   4.114  16.161  0.7711 -1.2126 -0.5232
10757TIP3   OH253685   0.609   5.774  14.684 -0.5803 -0.4845 -0.1970
10757TIP3    H153686   0.697   5.757  14.719  0.1076  1.4858 -0.8538
10757TIP3    H253687   0.590   5.696  14.632  0.7801 -0.9601 -0.0384
10758TIP3   OH253688   2.559   4.851   4.753  0.6774  0.1310  0.2853
10758TIP3    H153689   2.531   4.812   4.836  3.2381 -0.0399  1.1602
10758TIP3    H253690   2.547   4.781   4.689  1.2256 -0.6974  1.0505
10759TIP3   OH253691   2.426   4.940   0.778  0.1046 -0.1043 -0.0352
10759TIP3    H153692   2.335   4.914   0.763  1.1163 -2.8725 -2.2331
10759TIP3    H253693   2.456   4.884   0.849  0.4522 -0.1996 -0.2530
10760TIP3   OH253694   3.833   3.814   0.502 -0.1128 -0.2255  0.2506
10760TIP3    H153695   3.871   3.773   0.425 -0.5548 -0.0531 -0.0664
10760TIP3    H253696   3.898   3.802   0.572 -0.6238 -2.2596  0.4158
10761TIP3   OH253697   3.362   5.818   0.427 -0.3107  0.0450  0.0687
10761TIP3    H153698   3.299   5.747   0.422 -0.2993  0.0826 -0.6148
10761TIP3    H253699   3.309   5.896   0.446 -0.6257  0.2858 -1.6964
10762TIP3   OH253700   6.094   1.507  13.892 -0.3079  0.4465  0.9177
10762TIP3    H153701   6.085   1.578  13.828  2.6101 -0.1545 -0.3242
10762TIP3    H253702   6.156   1.540  13.956  1.2024 -0.9611  0.2422
10763TIP3   OH253703   3.087   2.442   0.171 -0.1174 -0.6701 -0.2982
10763TIP3    H153704   3.127   2.485   0.095  1.1959 -0.9316  0.2259
10763TIP3    H253705   3.099   2.504   0.243 -1.2432 -0.4808 -0.2534
10764TIP3   OH253706   5.892   4.544   5.616  0.0125  0.6285 -0.3642
10764TIP3    H153707   5.863   4.537   5.706  1.5312  0.4084  0.1353
10764TIP3    H253708   5.869   4.459   5.577 -0.9439  0.8461 -0.2918
10765TIP3   OH253709   4.051   2.049  11.958  0.0161  0.1431  0.6220
10765TIP3    H153710   4.103   2.125  11.934  0.2583  0.4924  2.1337
10765TIP3    H253711   4.013   2.018  11.875 -0.3119  2.0606  0.0078
10766TIP3   OH253712   3.725   0.023  11.602 -0.5100  0.9765 -0.2031
10766TIP3    H153713   3.796   0.053  11.658  0.7661 -0.9202 -0.7207
10766TIP3    H253714   3.648   0.071  11.633  0.5966  1.6129  1.6951
10767TIP3   OH253715   5.396   0.116  11.603  0.5063 -0.4985 -0.2145
10767TIP3    H153716   5.306   0.109  11.570  0.5091  1.0788 -0.6170
10767TIP3    H253717   5.388   0.103  11.698 -0.3292  0.8202 -0.0862
10768TIP3   OH253718   0.453   4.295   2.251 -0.4372  0.3543 -0.1990
10768TIP3    H153719   0.404   4.241   2.189 -0.0602 -1.1806  0.7811
10768TIP3    H253720   0.510   4.233   2.297 -0.3817  1.5039  1.3652
10769TIP3   OH253721   4.016   3.760   6.440 -0.1112  0.9779  0.9849
10769TIP3    H153722   3.926   3.763   6.405  0.0323 -1.7030  0.1496
10769TIP3    H253723   4.029   3.669   6.464  2.7413  1.0537  0.1057
10770TIP3   OH253724   4.035   5.913   3.146  0.2981 -0.2002  0.3007
10770TIP3    H153725   3.989   5.916   3.062  0.4239  1.6685  0.2539
10770TIP3    H253726   4.009   5.829   3.184 -0.4664 -0.6887 -1.2051
10771TIP3   OH253727   1.991   5.287   1.346  0.1127 -0.2578  0.5195
10771TIP3    H153728   1.998   5.230   1.422  1.4908  1.3419  1.6831
10771TIP3    H253729   2.044   5.363   1.369 -0.5948  0.9110 -1.4806
10772TIP3   OH253730   5.159   6.049  15.277 -0.2539  0.0218  0.2038
10772TIP3    H153731   5.220   6.116  15.245  1.0055 -0.7978  0.8498
10772TIP3    H253732   5.073   6.082  15.250  0.4959  0.8639 -1.3549
10773TIP3   OH253733   5.946   0.385  15.108 -1.0418 -0.3407  0.1389
10773TIP3    H153734   6.032   0.412  15.075 -0.9572 -0.3303  0.3648
10773TIP3    H253735   5.962   0.302  15.153 -1.1510 -0.3413  0.1769
10774TIP3   OH253736   6.309   3.377  16.762 -0.4601  0.0103 -0.3016
10774TIP3    H153737   6.345   3.464  16.781 -0.7969 -0.0090  0.4571
10774TIP3    H253738   6.354   3.349  16.683  1.7087 -0.3105  0.9922
10775TIP3   OH253739   1.070   5.031  15.466 -0.1800 -0.0329 -0.0868
10775TIP3    H153740   1.080   4.936  15.475 -0.3271 -0.0133  0.2800
10775TIP3    H253741   0.976   5.047  15.474 -0.3738 -0.0290 -1.8502
10776TIP3   OH253742   4.480   3.261  15.212 -0.0203 -0.2797 -0.3439
10776TIP3    H153743   4.465   3.295  15.300 -2.5491 -1.7791 -0.0947
10776TIP3    H253744   4.396   3.276  15.167  0.3767 -1.8213 -1.6768
10777TIP3   OH253745   5.714   5.981   6.259  0.0686  0.1170 -0.4553
10777TIP3    H153746   5.663   6.061   6.243 -0.7848  0.0900  1.8061
10777TIP3    H253747   5.650   5.910   6.254  0.2337 -0.1131  0.4658
10778TIP3   OH253748   3.228   0.250   3.020 -0.0004 -0.0567  0.0292
10778TIP3    H153749   3.234   0.155   3.023  1.7170  0.0189 -0.1848
10778TIP3    H253750   3.314   0.281   3.050 -0.4471  1.4230 -0.1186
10779TIP3   OH253751   6.272   1.988  11.926 -0.5348  0.3022  0.6354
10779TIP3    H153752   6.216   1.926  11.879 -0.2470  0.2571  0.3531
10779TIP3    H253753   6.359   1.976  11.888 -0.6207  1.4145  0.0435
10780TIP3   OH253754   0.501   1.344  13.820 -0.4652 -0.1497 -0.3352
10780TIP3    H153755   0.441   1.398  13.872 -1.0747 -0.4752 -0.6916
10780TIP3    H253756   0.476   1.254  13.841  0.7835 -0.3130  0.5358
10781TIP3   OH253757   0.435   5.001  13.529  0.0450 -0.1868 -0.6228
10781TIP3    H153758   0.366   5.065  13.514  1.2128  1.4689  0.6747
10781TIP3    H253759   0.488   5.003  13.449 -1.0888 -1.1013 -1.4182
10782TIP3   OH253760   3.091   1.125   3.014 -0.3962  0.0509 -0.2389
10782TIP3    H153761   3.092   1.083   3.100  0.9618 -1.0723 -0.7605
10782TIP3    H253762   3.103   1.218   3.033 -0.6000 -0.1230  0.8134
10783TIP3   OH253763   5.304   0.242   2.043 -0.0539  0.1352 -0.0319
10783TIP3    H153764   5.320   0.296   1.966  0.0356  0.9271  0.5353
10783TIP3    H253765   5.392   0.214   2.071  0.0278  0.9292  0.5423
10784TIP3   OH253766   3.253   1.236  13.594  0.0791 -0.0049  0.3711
10784TIP3    H153767   3.241   1.331  13.588  0.0658 -0.0688 -1.2061
10784TIP3    H253768   3.267   1.209  13.503  1.3985 -1.3459  0.9347
10785TIP3   OH253769   0.693   2.285  11.070  0.4944  0.9296 -0.0867
10785TIP3    H153770   0.734   2.312  10.988  1.5669  0.5634  0.3091
10785TIP3    H253771   0.705   2.190  11.073  1.0438  1.0136  0.7833
10786TIP3   OH253772   3.017   2.598  14.284 -0.0728 -0.1438  0.3047
10786TIP3    H153773   2.942   2.538  14.288 -0.2166 -0.1122 -1.2960
10786TIP3    H253774   3.067   2.578  14.363 -1.5054 -0.5045  1.1707
10787TIP3   OH253775   5.198   5.676  11.200  0.5205  0.0388 -0.7108
10787TIP3    H153776   5.224   5.655  11.109  2.6543 -1.1313  0.0792
10787TIP3    H253777   5.274   5.722  11.236  0.2108 -0.6118  0.8382
10788TIP3   OH253778   4.917   4.776  14.877 -0.8011  0.6889  0.1242
10788TIP3    H153779   4.936   4.857  14.925  2.2285  0.2682 -0.2055
10788TIP3    H253780   5.001   4.731  14.872 -2.2046 -2.0145 -0.6278
10789TIP3   OH253781   3.371   1.829   6.420 -0.3928  0.2390  0.5182
10789TIP3    H153782   3.385   1.923   6.412 -0.7222  0.3275  0.9487
10789TIP3    H253783   3.362   1.813   6.514 -0.7710 -0.1563  0.4227
10790TIP3   OH253784   5.077   4.995   3.211  0.3048 -0.3356  0.3846
10790TIP3    H153785   5.072   5.067   3.148  0.0561  0.1563  0.9587
10790TIP3    H253786   4.990   4.956   3.210 -0.3227  0.9100  1.8398
10791TIP3   OH253787   0.936   5.839  11.185  0.2729 -0.0481  0.5335
10791TIP3    H153788   0.939   5.769  11.120  0.6079 -0.5961  1.1343
10791TIP3    H253789   0.891   5.911  11.140  0.6870 -0.3433 -0.3676
10792TIP3   OH253790   1.836   3.599  11.388 -0.1969  0.3730  0.4341
10792TIP3    H153791   1.815   3.507  11.403 -0.5147  0.1436 -1.1670
10792TIP3    H253792   1.804   3.616  11.299  0.9454  1.6933  0.2409
10793TIP3   OH253793   3.125   6.425  14.055  0.1639 -0.5078 -0.5494
10793TIP3    H153794   3.181   6.375  14.114 -0.0539 -0.3798 -0.2372
10793TIP3    H253795   3.137   6.382  13.970  0.4188 -0.7357 -0.4008
10794TIP3   OH253796   3.742   2.812   5.305 -0.6805 -0.0831  0.0857
10794TIP3    H153797   3.828   2.850   5.320 -1.2702  0.9113  1.1132
10794TIP3    H253798   3.691   2.836   5.382 -1.0796 -3.1336  0.8811
10795TIP3   OH253799   3.840   0.522  15.120  0.1339  1.3342 -0.4525
10795TIP3    H153800   3.763   0.565  15.156 -0.9917 -0.0527 -1.1244
10795TIP3    H253801   3.806   0.462  15.054  1.6890 -0.1669  0.0407
10796TIP3   OH253802   1.838   1.175  15.857 -0.4673 -0.4595 -0.5307
10796TIP3    H153803   1.874   1.226  15.930  0.3341 -3.0549  1.0013
10796TIP3    H253804   1.743   1.182  15.867 -0.3659 -0.8938  0.8838
10797TIP3   OH253805   1.711   2.421   4.764  0.0747 -0.0561 -0.2238
10797TIP3    H153806   1.714   2.479   4.688 -0.1175 -1.4165 -1.3267
10797TIP3    H253807   1.641   2.359   4.744 -0.3371 -0.1309  1.3281
10798TIP3   OH253808   3.424   2.303  13.346  0.0164 -0.1231  0.3147
10798TIP3    H153809   3.376   2.278  13.425  0.8359 -0.8294  0.6149
10798TIP3    H253810   3.357   2.313  13.279 -0.6101 -0.4215  0.8827
10799TIP3   OH253811   1.170   5.892   4.104 -0.0658 -0.4026 -0.1528
10799TIP3    H153812   1.255   5.885   4.149  0.4740  0.7275 -0.9515
10799TIP3    H253813   1.162   5.984   4.082 -2.3696 -0.1342  1.4668
10800TIP3   OH253814   0.762   6.433   3.060 -0.4145  0.2142  0.3124
10800TIP3    H153815   0.680   6.409   3.018 -0.6150  0.3695  0.6106
10800TIP3    H253816   0.762   6.384   3.143 -1.0446  1.5572  1.1494
10801TIP3   OH253817   1.745   2.957  13.190  0.6977  0.0266  0.0193
10801TIP3    H153818   1.676   3.004  13.237  1.1874  0.8109 -0.0324
10801TIP3    H253819   1.763   2.880  13.245  0.7866  0.5775  0.7897
10802TIP3   OH253820   5.229   2.367   4.128 -0.0299 -0.0797  0.3155
10802TIP3    H153821   5.145   2.405   4.153  0.5421  0.6654  1.1541
10802TIP3    H253822   5.217   2.341   4.037 -0.7575  1.2233  0.0177
10803TIP3   OH253823   4.673   0.067  13.518 -0.1039 -0.3183  0.0464
10803TIP3    H153824   4.724   0.134  13.473 -1.4055  0.0956 -0.8623
10803TIP3    H253825   4.583   0.078  13.486 -0.9040 -0.6776  1.9739
10804TIP3   OH253826   5.013   0.329   1.517  0.0767 -0.5101 -0.0570
10804TIP3    H153827   5.018   0.420   1.487  1.5731 -0.5961 -0.1445
10804TIP3    H253828   4.933   0.295   1.477 -0.3311  0.6745 -0.2831
10805TIP3   OH253829   5.529   5.564  17.098  0.0650 -0.6143  0.2404
10805TIP3    H153830   5.544   5.538  17.189 -0.0512 -0.2799  0.3545
10805TIP3    H253831   5.544   5.484  17.048  1.0759 -0.5714  0.4611
10806TIP3   OH253832   4.667   2.353   2.686  0.3283  0.4468  0.4264
10806TIP3    H153833   4.749   2.377   2.729 -0.1802  2.3501  0.4047
10806TIP3    H253834   4.650   2.423   2.623 -1.3432  0.1502  0.4867
10807TIP3   OH253835   4.582   1.509   6.370 -0.1630  0.8215 -0.2808
10807TIP3    H153836   4.535   1.428   6.388  0.1802 -0.3153 -3.8546
10807TIP3    H253837   4.515   1.577   6.377 -1.4399 -0.2758 -1.2840
10808TIP3   OH253838   2.573   6.508   2.042 -0.6970  0.2572 -0.1701
10808TIP3    H153839   2.620   6.430   2.071 -2.1936 -1.2853 -1.6241
10808TIP3    H253840   2.607   6.524   1.954 -0.6467  1.0478 -0.0108
10809TIP3   OH253841   3.100   5.842  15.344 -0.0962 -0.4623  0.5903
10809TIP3    H153842   3.181   5.794  15.327  0.1052  0.0218  0.1476
10809TIP3    H253843   3.078   5.820  15.435  0.8723 -0.1221  0.9245
10810TIP3   OH253844   4.171   1.329   2.661 -0.2051  0.3428 -0.3521
10810TIP3    H153845   4.114   1.308   2.588 -0.7024  1.2098 -0.2221
10810TIP3    H253846   4.118   1.385   2.718  0.3136  0.0345  0.4579
10811TIP3   OH253847   0.489   2.037  13.338  0.3880 -0.1414 -0.4082
10811TIP3    H153848   0.442   2.104  13.388  0.2009  0.6804 -1.6540
10811TIP3    H253849   0.434   1.959  13.344  1.3461 -0.7398  2.3884
10812TIP3   OH253850   0.602   1.571   1.189 -0.3707 -0.4970  0.0934
10812TIP3    H153851   0.638   1.590   1.276 -1.1783 -2.1569  0.8491
10812TIP3    H253852   0.577   1.656   1.154  0.4513  0.2669  1.2706
10813TIP3   OH253853   4.131   6.771  11.942  0.2045  0.2237  0.6063
10813TIP3    H153854   4.160   6.812  11.860  0.1489  0.0170  0.4800
10813TIP3    H253855   4.174   6.686  11.942 -0.7491 -0.2764  0.1871
10814TIP3   OH253856   1.587   1.444  16.206 -0.0314 -0.1520 -0.1906
10814TIP3    H153857   1.551   1.355  16.209 -0.1177 -0.0936  1.2128
10814TIP3    H253858   1.591   1.465  16.113 -0.6263 -1.3735 -0.5154
10815TIP3   OH253859   6.076   5.171  15.235 -0.4039  0.4904 -0.2041
10815TIP3    H153860   6.011   5.208  15.175 -0.1570  1.5030  0.1375
10815TIP3    H253861   6.099   5.243  15.293  0.7540  0.0388 -0.0822
10816TIP3   OH253862   1.126   6.515   1.408 -0.2154  0.0310 -0.4519
10816TIP3    H153863   1.047   6.482   1.450  0.4063  0.4237  1.0971
10816TIP3    H253864   1.186   6.532   1.480  0.7666  1.1300 -1.4834
10817TIP3   OH253865   3.392   0.206  15.253  0.1824 -0.8019  0.2071
10817TIP3    H153866   3.308   0.227  15.293 -0.4902 -1.3557 -0.8512
10817TIP3    H253867   3.373   0.130  15.197  1.0175  0.0187 -1.2695
10818TIP3   OH253868   4.068   2.333   6.197  0.4493 -0.3854  0.2445
10818TIP3    H153869   4.142   2.381   6.235 -0.5195  0.9765  0.4988
10818TIP3    H253870   4.019   2.302   6.273  0.0264 -0.0996  0.0878
10819TIP3   OH253871   6.594   3.748  12.884 -0.6063 -0.4814 -0.0446
10819TIP3    H153872   6.637   3.663  12.888 -1.1695 -0.8556 -1.3577
10819TIP3    H253873   6.536   3.749  12.960  1.9237  0.2098  2.0227
10820TIP3   OH253874   4.708   3.778   0.093  0.3392 -0.3219 -0.2883
10820TIP3    H153875   4.699   3.819   0.007 -1.3792 -1.0818 -0.5096
10820TIP3    H253876   4.712   3.851   0.154  3.3415  0.3046 -1.0702
10821TIP3   OH253877   6.350   3.172  14.748  0.1134 -0.1953  0.1963
10821TIP3    H153878   6.316   3.236  14.685  0.1796 -1.1809 -0.8719
10821TIP3    H253879   6.367   3.223  14.827  0.1136  1.0899 -0.6086
10822TIP3   OH253880   2.195   1.333   3.317  0.3151 -0.1864 -0.0171
10822TIP3    H153881   2.138   1.297   3.249  0.3861 -0.3086 -0.0135
10822TIP3    H253882   2.272   1.364   3.269  0.5828 -0.7280  0.0600
10823TIP3   OH253883   0.087   6.397   5.305  0.3043  0.0501 -0.1754
10823TIP3    H153884   0.129   6.480   5.283  2.1513 -1.1221 -1.2809
10823TIP3    H253885   0.135   6.366   5.381 -0.4230 -0.0095  0.2716
10824TIP3   OH253886   3.131   5.262   1.433  0.0743 -0.2390  0.3125
10824TIP3    H153887   3.110   5.292   1.345  1.0376 -0.8297 -0.1312
10824TIP3    H253888   3.224   5.280   1.443 -0.1143  0.2330  1.3855
10825TIP3   OH253889   1.404   3.749   4.190 -0.2775  0.3834 -0.3838
10825TIP3    H153890   1.469   3.780   4.128 -1.1776  1.2953 -0.8954
10825TIP3    H253891   1.441   3.768   4.276 -0.1448  1.5036 -0.6789
10826TIP3   OH253892   3.797   6.326   5.803  0.3477 -0.0280  0.0934
10826TIP3    H153893   3.768   6.418   5.809  0.8851  0.0637  1.7437
10826TIP3    H253894   3.891   6.329   5.821  0.2577 -0.9678  0.7613
10827TIP3   OH253895   3.339   6.115   5.201 -0.5342  0.8437 -0.4989
10827TIP3    H153896   3.420   6.087   5.159  1.2461  1.6652  2.1430
10827TIP3    H253897   3.270   6.071   5.152  1.5345 -0.5598 -2.3277
10828TIP3   OH253898   2.169   1.026   5.470 -0.3426 -0.3424 -0.4864
10828TIP3    H153899   2.123   0.949   5.436 -1.1034  0.9486 -2.5436
10828TIP3    H253900   2.119   1.051   5.547  0.4295 -2.3653  0.7683
10829TIP3   OH253901   3.073   0.842   5.188 -0.0332  0.4450  0.4948
10829TIP3    H153902   3.060   0.879   5.100  2.3975  0.5153  0.0969
10829TIP3    H253903   3.018   0.897   5.244  0.9045  2.6105 -0.5501
10830TIP3   OH253904   0.957   1.317   0.596  0.1932  0.0772  0.0286
10830TIP3    H153905   0.874   1.274   0.614  0.2035  0.3014  0.6058
10830TIP3    H253906   0.935   1.386   0.533  0.1553 -0.6639 -0.7944
10831TIP3   OH253907   2.102   6.342   1.597 -0.1779 -0.2757 -0.6107
10831TIP3    H153908   2.080   6.431   1.626  0.0846 -0.3443 -0.1866
10831TIP3    H253909   2.110   6.292   1.678  0.3016 -0.5386 -0.8118
10832TIP3   OH253910   2.256   2.126   3.002  0.7059  0.3023 -0.1654
10832TIP3    H153911   2.189   2.093   3.062  0.4519  0.0118 -0.6079
10832TIP3    H253912   2.284   2.049   2.953  3.8627 -0.3778  2.3228
10833TIP3   OH253913   0.733   4.011   4.448  0.2269  0.0683  0.0004
10833TIP3    H153914   0.660   4.032   4.506  0.4195  0.8563 -0.0334
10833TIP3    H253915   0.759   3.922   4.473 -0.8716 -0.3010 -0.1298
10834TIP3   OH253916   4.438   0.741   4.614  0.4204 -0.0370  0.0411
10834TIP3    H153917   4.367   0.802   4.594  0.4880  0.2867  0.7635
10834TIP3    H253918   4.460   0.702   4.529 -0.9156 -0.4873 -0.1231
10835TIP3   OH253919   2.005   6.687  11.960  0.1620 -0.5849 -0.5386
10835TIP3    H153920   1.965   6.684  12.047 -1.0501 -4.1585 -1.0398
10835TIP3    H253921   1.940   6.733  11.906 -0.4778 -0.9741 -0.1199
10836TIP3   OH253922   5.241   6.660   1.968  0.3775 -0.4721  0.6023
10836TIP3    H153923   5.208   6.707   2.045 -0.5232 -0.1508  0.0252
10836TIP3    H253924   5.328   6.630   1.995  0.2300 -0.0418  1.6165
10837TIP3   OH253925   6.394   3.560  12.294 -0.6156 -0.5828  0.2745
10837TIP3    H153926   6.320   3.585  12.350 -0.0767  2.0360 -0.0166
10837TIP3    H253927   6.367   3.589  12.206 -0.0411 -1.4186 -0.1833
10838TIP3   OH253928   5.328   0.756   2.298  0.3254 -0.1336  0.3388
10838TIP3    H153929   5.379   0.746   2.378 -0.4466 -1.5289  0.6968
10838TIP3    H253930   5.278   0.837   2.311  0.6689 -0.0205  0.9939
10839TIP3   OH253931   3.094   3.661   4.997  0.0811  0.1473  0.2657
10839TIP3    H153932   3.006   3.625   4.995 -0.6456  1.7688  0.8472
10839TIP3    H253933   3.086   3.746   4.954  2.1416 -1.0711 -2.9309
10840TIP3   OH253934   3.612   4.358  10.401  0.7670 -0.0941  0.3148
10840TIP3    H153935   3.532   4.313  10.427 -0.1558  1.4041  0.1670
10840TIP3    H253936   3.641   4.314  10.321 -0.7972  0.3427 -0.5180
10841TIP3   OH253937   5.486   6.417   0.790  0.0291 -0.2421 -0.3713
10841TIP3    H153938   5.500   6.460   0.706  0.4853 -1.2317 -0.8213
10841TIP3    H253939   5.574   6.405   0.826  0.0999 -2.4116 -1.1115
10842TIP3   OH253940   0.856   4.999   1.639 -0.2272  0.1456  0.2187
10842TIP3    H153941   0.916   5.054   1.689  1.4365 -2.1028  0.9204
10842TIP3    H253942   0.807   4.950   1.705 -0.5478 -0.3252 -0.3538
10843TIP3   OH253943   5.045   4.165  15.665 -0.3366  0.4889 -0.1023
10843TIP3    H153944   4.997   4.132  15.588  0.3359  1.5339 -0.9924
10843TIP3    H253945   4.983   4.153  15.738 -0.6184 -1.4774 -0.5806
10844TIP3   OH253946   5.077   4.802  14.047 -0.2016  0.4141 -0.0944
10844TIP3    H153947   5.170   4.779  14.054 -0.2116 -0.7930 -2.6382
10844TIP3    H253948   5.075   4.897  14.057  1.1321  0.3578  1.0792
10845TIP3   OH253949   1.237   1.647  16.674  0.1147 -0.0246 -0.0779
10845TIP3    H153950   1.332   1.638  16.668  0.0053 -0.1382 -2.7846
10845TIP3    H253951   1.223   1.741  16.688  0.6105  0.2602 -1.3907
10846TIP3   OH253952   2.809   1.283  11.848 -0.0956  0.0266  0.0872
10846TIP3    H153953   2.857   1.304  11.928 -0.4489 -1.5197  0.7391
10846TIP3    H253954   2.719   1.308  11.866  0.0342  0.8102 -0.2983
10847TIP3   OH253955   5.387   3.818  14.132  0.1504 -0.9184  0.7322
10847TIP3    H153956   5.431   3.880  14.073 -0.4874 -0.2613  0.9195
10847TIP3    H253957   5.453   3.795  14.197  0.9814 -1.9379 -0.4234
10848TIP3   OH253958   5.354   1.172  11.980 -0.3708 -0.5106 -0.3752
10848TIP3    H153959   5.309   1.181  11.896 -0.6655 -1.5366 -0.3357
10848TIP3    H253960   5.301   1.111  12.030 -0.0441 -0.1227  0.4649
10849TIP3   OH253961   4.183   2.315   4.295  0.5243  0.3017  0.4196
10849TIP3    H153962   4.241   2.250   4.335  0.0667 -2.2530 -2.5932
10849TIP3    H253963   4.095   2.278   4.306  0.3861 -0.6636 -2.7549
10850TIP3   OH253964   2.771   5.840   5.043  0.2736 -0.6462 -0.6280
10850TIP3    H153965   2.717   5.762   5.037  0.4413 -1.0062  1.6686
10850TIP3    H253966   2.784   5.868   4.952 -2.1700 -1.6130 -1.3498
10851TIP3   OH253967   0.208   3.130  13.364 -0.3593  0.4516  0.2656
10851TIP3    H153968   0.214   3.037  13.341  1.5105  0.7012 -0.4217
10851TIP3    H253969   0.246   3.136  13.451 -1.6083  0.4259  0.8339
10852TIP3   OH253970   4.039   1.234   1.414 -0.0241 -0.4483  0.2482
10852TIP3    H153971   3.968   1.227   1.478  0.4766 -2.2375  0.6648
10852TIP3    H253972   4.066   1.326   1.419 -0.7373 -0.2788  1.8010
10853TIP3   OH253973   6.351   5.345  16.782  0.4004  0.2363 -0.0686
10853TIP3    H153974   6.304   5.407  16.726  1.6051  0.4866 -0.8094
10853TIP3    H253975   6.421   5.310  16.728 -0.6910 -2.4064  0.0643
10854TIP3   OH253976   2.393   1.624   0.313 -0.5757  0.6112 -0.2771
10854TIP3    H153977   2.397   1.666   0.400 -0.8256  1.0574 -0.4755
10854TIP3    H253978   2.484   1.620   0.284 -0.6282  2.1923 -0.7928
10855TIP3   OH253979   3.355   0.407  17.058 -0.0247  0.3911 -0.5400
10855TIP3    H153980   3.418   0.357  17.007 -0.5590 -0.1553 -0.6808
10855TIP3    H253981   3.385   0.498  17.051  1.2787  0.0442  0.1909
10856TIP3   OH253982   5.540   1.605  11.423 -0.3354  0.1085 -0.5143
10856TIP3    H153983   5.621   1.578  11.381  0.8459  0.7703  1.2266
10856TIP3    H253984   5.548   1.700  11.434 -0.9867  0.0825  0.3523
10857TIP3   OH253985   4.601   1.203  12.470 -0.0639  0.3533  0.0398
10857TIP3    H153986   4.621   1.229  12.560 -0.4989 -0.8062  0.4927
10857TIP3    H253987   4.687   1.188  12.431  0.1077 -0.5013  0.7022
10858TIP3   OH253988   6.095   4.822  13.764  0.0237 -0.0785 -0.5459
10858TIP3    H153989   6.101   4.745  13.822 -1.0848 -0.1615 -0.5216
10858TIP3    H253990   6.020   4.804  13.708 -0.2049  0.9527 -0.5947
10859TIP3   OH253991   0.828   1.782   5.356  0.3769 -0.1791 -0.2133
10859TIP3    H153992   0.833   1.797   5.262  0.2160 -1.1424 -0.3842
10859TIP3    H253993   0.898   1.836   5.393 -0.1927  0.9786 -0.7800
10860TIP3   OH253994   3.840   0.555  13.836  1.2113 -0.3449  0.2464
10860TIP3    H153995   3.788   0.585  13.911  0.4579 -1.5853  0.2556
10860TIP3    H253996   3.891   0.631  13.810 -1.6532  1.4285 -0.6923
10861TIP3   OH253997   0.101   4.226  13.738 -0.2803  0.8538  0.1785
10861TIP3    H153998   0.083   4.319  13.725 -2.2463  0.3719 -0.9017
10861TIP3    H253999   0.043   4.199  13.809  0.4927  0.5001  0.6905
10862TIP3   OH254000   2.974   1.984   2.545  0.2169 -0.1158  0.5937
10862TIP3    H154001   2.891   2.011   2.585 -0.2443 -2.8733  1.7431
10862TIP3    H254002   3.040   2.000   2.614  0.2579 -0.1077  0.5528
10863TIP3   OH254003   6.154   2.106   3.977  0.0340 -0.1582 -0.3774
10863TIP3    H154004   6.194   2.185   3.941 -0.9064  0.2282 -0.5947
10863TIP3    H254005   6.114   2.134   4.059  0.5871 -0.6388  0.0621
10864TIP3   OH254006   6.687   1.545  15.646 -0.4612  0.4839  0.2957
10864TIP3    H154007   6.747   1.523  15.575 -0.5617  0.3692  0.2458
10864TIP3    H254008   6.600   1.538  15.607 -0.6374 -1.5595  0.9458
10865TIP3   OH254009   5.669   2.164  12.544 -0.3658  0.1768 -0.0927
10865TIP3    H154010   5.680   2.096  12.478 -1.9486  0.9719 -1.2459
10865TIP3    H254011   5.692   2.121  12.627  0.1478 -1.2951 -0.9622
10866TIP3   OH254012   4.481   0.463  13.935  0.4184 -0.2749  0.3165
10866TIP3    H154013   4.409   0.518  13.969  2.3942  1.0661  2.6678
10866TIP3    H254014   4.511   0.509  13.857 -0.4159 -0.1413  0.0599
10867TIP3   OH254015   6.289   4.127  10.388 -0.3100  0.1353  0.8440
10867TIP3    H154016   6.301   4.034  10.408  1.7682 -0.2394 -1.6727
10867TIP3    H254017   6.376   4.159  10.366 -1.3885  1.9125 -1.2911
10868TIP3   OH254018   1.062   2.110  16.724 -1.3060 -1.0746 -0.0770
10868TIP3    H154019   1.124   2.045  16.690  0.8750 -0.0427  1.6623
10868TIP3    H254020   1.070   2.103  16.820 -1.4154  1.3037  0.1765
10869TIP3   OH254021   2.517   4.186   0.745  0.3458 -0.1627  0.5429
10869TIP3    H154022   2.496   4.276   0.721  1.9570  0.6036  1.8146
10869TIP3    H254023   2.474   4.133   0.678  1.4591  1.6569 -1.7594
10870TIP3   OH254024   2.429   4.189   2.955 -0.0652 -0.1833 -0.7670
10870TIP3    H154025   2.349   4.160   2.910 -1.7448  2.1373  0.4953
10870TIP3    H254026   2.439   4.280   2.928  1.6889 -0.1882 -0.2095
10871TIP3   OH254027   0.893   3.234   1.702  0.5072  0.3587 -0.5018
10871TIP3    H154028   0.805   3.270   1.714  0.7936  1.7405 -2.1711
10871TIP3    H254029   0.885   3.177   1.625  0.8957 -0.1672 -0.1537
10872TIP3   OH254030   2.520   2.156   2.876 -0.1496  0.1662  0.2164
10872TIP3    H154031   2.596   2.215   2.876  0.1863 -0.2596  0.2032
10872TIP3    H254032   2.488   2.160   2.966 -0.0572  0.2751  0.2461
10873TIP3   OH254033   3.866   0.463   4.975  0.0704 -0.6988  0.0878
10873TIP3    H154034   3.797   0.405   4.943  1.1266 -1.9237 -0.0476
10873TIP3    H254035   3.829   0.551   4.968 -1.4110 -1.3148 -0.1162
10874TIP3   OH254036   2.706   0.172  14.612 -0.5902 -0.0004  0.4348
10874TIP3    H154037   2.639   0.125  14.662 -0.7715 -1.0920 -0.7810
10874TIP3    H254038   2.676   0.263  14.612 -1.0222 -0.1276  1.5897
10875TIP3   OH254039   0.254   1.143   1.103  0.0080 -0.4586 -0.0447
10875TIP3    H154040   0.308   1.097   1.038 -1.4073 -0.1934 -1.4896
10875TIP3    H254041   0.289   1.232   1.104  0.0591 -0.4708 -0.4351
10876TIP3   OH254042   0.455   6.448   2.088 -0.3125  0.4402 -0.2657
10876TIP3    H154043   0.478   6.356   2.102  0.8158  0.7770  0.1759
10876TIP3    H254044   0.510   6.476   2.015 -2.6903  0.0332 -2.3682
10877TIP3   OH254045   6.353   6.273   4.873  0.0835 -0.1620  0.1813
10877TIP3    H154046   6.293   6.302   4.804  0.5507 -0.0857 -0.2020
10877TIP3    H254047   6.356   6.178   4.864  1.2023 -0.0637 -0.8261
10878TIP3   OH254048   1.034   2.043   4.928 -0.0705 -0.0267  0.2048
10878TIP3    H154049   1.121   2.035   4.967  0.6521 -0.5475 -1.4171
10878TIP3    H254050   1.051   2.065   4.837 -1.5754 -1.7008 -0.5408
10879TIP3   OH254051   0.240   1.638   1.002  0.5519 -0.1373 -0.0295
10879TIP3    H154052   0.167   1.578   0.992  0.0346  0.0174  2.2651
10879TIP3    H254053   0.318   1.585   0.988  0.1020 -1.4162  1.8962
10880TIP3   OH254054   0.337   2.558  14.667 -0.5419 -0.1881 -0.5184
10880TIP3    H154055   0.396   2.577  14.594 -0.8974 -0.3771 -0.8543
10880TIP3    H254056   0.260   2.612  14.650 -0.5859 -0.1570 -0.2279
10881TIP3   OH254057   4.933   1.883  13.336 -0.3969  0.7041 -0.3191
10881TIP3    H154058   4.845   1.852  13.315 -0.4371  1.0627 -0.7073
10881TIP3    H254059   4.932   1.976  13.312 -0.2998  1.0301  0.8717
10882TIP3   OH254060   6.773   5.540   3.839 -0.6868  0.7666  0.0347
10882TIP3    H154061   6.835   5.472   3.815 -1.5662 -0.3116  0.7360
10882TIP3    H254062   6.789   5.610   3.776  1.9224  0.9801  0.7980
10883TIP3   OH254063   4.487   2.956   1.526 -0.1935  0.1903 -0.3057
10883TIP3    H154064   4.406   2.952   1.576  0.5076  1.3248  0.9798
10883TIP3    H254065   4.549   2.903   1.576  0.1988  0.3640 -0.5976
10884TIP3   OH254066   5.979   5.031  12.726  0.0091  0.3189  0.1072
10884TIP3    H154067   5.982   5.049  12.632 -3.2759  1.1266  0.0668
10884TIP3    H254068   5.930   4.950  12.733 -1.4864  1.2775  1.1783
10885TIP3   OH254069   2.052   6.523   3.376  0.1303  0.6431 -0.3098
10885TIP3    H154070   2.107   6.460   3.330  1.8851  1.8422  0.0644
10885TIP3    H254071   2.051   6.492   3.467 -0.8244 -0.0255 -0.5298
10886TIP3   OH254072   5.875   2.665   6.313  0.3712 -0.0881 -0.4446
10886TIP3    H154073   5.837   2.751   6.295 -0.4405 -0.7346 -1.9643
10886TIP3    H254074   5.960   2.684   6.352  0.1560  1.4034 -0.6508
10887TIP3   OH254075   4.842   5.334  14.956  0.9637 -0.8163  0.4861
10887TIP3    H154076   4.842   5.238  14.959  0.8714 -0.8661 -0.7755
10887TIP3    H254077   4.933   5.358  14.939  0.6050 -0.8063 -1.6878
10888TIP3   OH254078   1.405   6.538   1.856 -0.1593  0.0171  0.0415
10888TIP3    H154079   1.474   6.582   1.807  0.2065 -1.3899 -0.7573
10888TIP3    H254080   1.367   6.606   1.911 -0.7004  1.7325 -2.2959
10889TIP3   OH254081   1.464   5.760   1.760 -0.2187  0.4226  0.2488
10889TIP3    H154082   1.462   5.853   1.740 -0.6349  0.3669  0.0127
10889TIP3    H254083   1.398   5.722   1.702 -0.2925  0.0286  0.5869
10890TIP3   OH254084   4.672   0.170   1.275  0.6304 -0.6036  0.0698
10890TIP3    H154085   4.766   0.187   1.271  0.4041  0.6954 -0.3216
10890TIP3    H254086   4.632   0.251   1.243 -0.5986 -1.4623 -0.6537
10891TIP3   OH254087   1.590   0.778  11.965  0.2369 -0.0768 -0.4124
10891TIP3    H154088   1.514   0.767  11.908 -0.0532 -1.5740  0.2396
10891TIP3    H254089   1.602   0.693  12.007  1.4861  0.5076  0.4840
10892TIP3   OH254090   4.561   3.280   2.595 -0.1098 -0.4939 -0.0956
10892TIP3    H154091   4.500   3.210   2.617  1.1196 -1.6902 -0.3192
10892TIP3    H254092   4.521   3.360   2.630 -1.6913 -1.2560 -0.1058
10893TIP3   OH254093   4.719   1.440   0.292 -0.3032 -0.7980  0.1226
10893TIP3    H154094   4.642   1.435   0.235  0.6438  0.1463 -1.2746
10893TIP3    H254095   4.792   1.455   0.233  0.6022  1.1567  1.6505
10894TIP3   OH254096   4.218   4.140  13.508  0.1417  0.2046  0.2264
10894TIP3    H154097   4.250   4.160  13.419 -1.0567 -1.0327 -0.5279
10894TIP3    H254098   4.144   4.199  13.521 -0.8385 -0.8502 -0.3691
10895TIP3   OH254099   3.391   4.644  12.700 -0.2025  0.4173 -0.4292
10895TIP3    H154100   3.428   4.726  12.668 -2.6960  1.5526 -0.6548
10895TIP3    H254101   3.390   4.587  12.623  0.1364  0.7242 -0.6644
10896TIP3   OH254102   6.398   3.508   3.040  0.0095  0.7084 -0.1945
10896TIP3    H154103   6.408   3.510   3.135  0.1741 -1.0771 -0.1512
10896TIP3    H254104   6.467   3.566   3.008 -1.4743  3.2174  0.8029
10897TIP3   OH254105   4.538   4.438  16.988 -0.0813 -0.0303 -0.2467
10897TIP3    H154106   4.608   4.382  17.024  0.0544  0.2423 -0.0850
10897TIP3    H254107   4.461   4.381  16.986 -0.1788  0.0350  0.7875
10898TIP3   OH254108   5.904   0.559   4.233  0.4252  1.0687  0.6266
10898TIP3    H154109   5.952   0.577   4.314  0.7400  0.6901  0.5276
10898TIP3    H254110   5.951   0.607   4.166  0.3078  1.1845  0.6271
10899TIP3   OH254111   1.643   6.631  14.738  0.2014  0.1164  0.4117
10899TIP3    H154112   1.720   6.577  14.754 -1.4931 -2.1990  1.3923
10899TIP3    H254113   1.673   6.699  14.679  2.6365 -1.5815 -0.4718
10900TIP3   OH254114   5.263   3.864   2.811 -0.2996  0.4945 -0.8484
10900TIP3    H154115   5.220   3.858   2.896  0.3671  0.6823 -0.4952
10900TIP3    H254116   5.357   3.865   2.831 -0.0812 -0.9709 -1.6632
10901TIP3   OH254117   4.888   5.287   0.913 -0.1393 -0.0875 -0.7019
10901TIP3    H154118   4.855   5.337   0.839  0.6992  0.6745 -0.5787
10901TIP3    H254119   4.971   5.251   0.883 -0.7629 -1.4907 -0.8100
10902TIP3   OH254120   4.700   2.879  15.128  0.0173  0.4506 -0.0960
10902TIP3    H154121   4.662   2.936  15.061 -3.1073 -0.7654  0.4791
10902TIP3    H254122   4.666   2.913  15.211  1.0223 -0.1616  0.5944
10903TIP3   OH254123   3.432   2.203  14.472  0.2923 -0.4020  0.5795
10903TIP3    H154124   3.439   2.197  14.567 -0.2213 -1.3639  0.5677
10903TIP3    H254125   3.502   2.148  14.438  0.5399  0.0199  0.3939
10904TIP3   OH254126   6.685   4.760   5.227 -0.0660 -0.4055  0.4591
10904TIP3    H154127   6.610   4.726   5.177 -0.3593  0.3459  0.3723
10904TIP3    H254128   6.653   4.842   5.264  1.1202  0.5769 -0.6387
10905TIP3   OH254129   1.887   2.234   1.360  0.6447  0.2299  0.5631
10905TIP3    H154130   1.809   2.262   1.313  0.5767 -0.9169 -0.0459
10905TIP3    H254131   1.937   2.315   1.374 -1.5055  1.2980  2.6858
10906TIP3   OH254132   1.209   1.321   5.182 -0.0407 -0.0138 -0.2168
10906TIP3    H154133   1.154   1.243   5.193  0.4481 -0.2856  0.3298
10906TIP3    H254134   1.298   1.291   5.199 -0.0997  1.2380  2.9580
10907TIP3   OH254135   0.818   4.153  14.285 -0.0056 -0.5385 -0.3159
10907TIP3    H154136   0.724   4.133  14.282  0.1325 -1.4480  0.7512
10907TIP3    H254137   0.861   4.071  14.258  0.4799  0.1480 -1.7044
10908TIP3   OH254138   0.470   1.284  10.754 -0.0181  0.0331  0.1108
10908TIP3    H154139   0.440   1.370  10.727 -1.2359 -0.9135 -1.7281
10908TIP3    H254140   0.430   1.271  10.840  0.2515  1.3073  0.4509
10909TIP3   OH254141   0.198   4.868   4.895 -0.0795  0.3692 -0.2071
10909TIP3    H154142   0.227   4.819   4.972  0.0300  2.4629  1.1647
10909TIP3    H254143   0.126   4.922   4.926 -0.9107  0.3305 -1.9280
10910TIP3   OH254144   4.852   5.417  12.838 -0.4674 -0.3621  0.6712
10910TIP3    H154145   4.837   5.424  12.744 -2.8040  1.2736  1.0862
10910TIP3    H254146   4.869   5.324  12.852 -0.2155 -0.6758 -1.3301
10911TIP3   OH254147   1.863   1.051  16.895  0.7207  0.0771 -0.2287
10911TIP3    H154148   1.818   0.986  16.842 -1.2341  2.6062 -1.9035
10911TIP3    H254149   1.953   1.019  16.902  0.0603 -2.3137 -1.7063
10912TIP3   OH254150   5.442   3.726  13.762  0.3359  0.9252 -0.2074
10912TIP3    H154151   5.359   3.680  13.775  0.7556  0.1268 -0.3080
10912TIP3    H254152   5.438   3.759  13.673  0.6009 -0.1131 -0.6167
10913TIP3   OH254153   0.788   3.358   4.286  0.4682 -0.3884  0.2790
10913TIP3    H154154   0.759   3.296   4.220 -1.2130  1.0016 -0.3572
10913TIP3    H254155   0.711   3.412   4.305  0.6316 -1.1331  3.8939
10914TIP3   OH254156   0.863   1.530  12.006 -0.2071  0.3321  0.0926
10914TIP3    H154157   0.843   1.439  11.983  0.8194  0.3630 -1.0398
10914TIP3    H254158   0.847   1.535  12.101  1.1022 -1.4324  0.4678
10915TIP3   OH254159   6.184   6.791   3.450  0.1389  0.4809 -0.1602
10915TIP3    H154160   6.207   6.734   3.377 -0.1591  0.9069 -0.5926
10915TIP3    H254161   6.220   6.747   3.527  0.4414  0.0201 -0.5592
10916TIP3   OH254162   2.562   4.317   6.523  0.7188  0.6240 -0.2835
10916TIP3    H154163   2.640   4.315   6.579  0.1711 -0.2475  0.4699
10916TIP3    H254164   2.504   4.250   6.560  0.6615 -0.5558 -2.3451
10917TIP3   OH254165   5.251   4.479  16.661 -0.0481 -0.0009 -0.2847
10917TIP3    H154166   5.155   4.482  16.668  0.0134  2.8040  0.5768
10917TIP3    H254167   5.268   4.485  16.567 -0.6470 -3.0256 -0.6937
10918TIP3   OH254168   0.334   1.297   4.383  0.2718 -0.0172 -0.1241
10918TIP3    H154169   0.377   1.282   4.468 -0.5629  1.5503  0.6227
10918TIP3    H254170   0.247   1.327   4.406 -0.1573 -0.0956 -1.5765
10919TIP3   OH254171   6.169   1.024  14.122 -0.1973 -0.4165  0.3350
10919TIP3    H154172   6.205   0.973  14.049 -2.8752 -0.4987 -1.0542
10919TIP3    H254173   6.150   0.958  14.189 -0.3734 -0.7482 -0.0348
10920TIP3   OH254174   2.753   0.617  15.448 -0.2323 -0.1050  0.3382
10920TIP3    H154175   2.845   0.620  15.474  0.2454 -0.7682 -1.1389
10920TIP3    H254176   2.725   0.528  15.469 -0.4454  0.0008  0.5034
10921TIP3   OH254177   1.959   0.377   1.071  0.4582  0.0203  0.1936
10921TIP3    H154178   1.970   0.446   1.006  1.3961 -0.0419  0.2710
10921TIP3    H254179   1.865   0.376   1.089  0.3654  0.9442 -0.1640
10922TIP3   OH254180   4.785   2.155   2.525 -0.9155 -0.0059 -0.5166
10922TIP3    H154181   4.700   2.198   2.522 -0.2939  1.2373 -1.4204
10922TIP3    H254182   4.838   2.202   2.460 -0.0295 -1.8266 -1.1882
10923TIP3   OH254183   4.948   4.394   2.780  0.1792  0.5162 -0.1609
10923TIP3    H154184   4.937   4.360   2.869 -0.7256 -0.2740 -0.5481
10923TIP3    H254185   4.918   4.485   2.785  0.9747  0.7534  0.5235
10924TIP3   OH254186   3.884   0.259  13.966  0.4411  0.2647  0.4666
10924TIP3    H154187   3.810   0.219  14.012  0.1079  0.1545 -0.1569
10924TIP3    H254188   3.883   0.350  13.994  1.7385 -0.2928  2.6069
10925TIP3   OH254189   4.416   6.104   2.894  0.3405 -0.4913 -0.3721
10925TIP3    H154190   4.450   6.030   2.845  1.1835 -1.3268  1.3650
10925TIP3    H254191   4.371   6.158   2.829  1.3723 -1.5257 -2.0063
10926TIP3   OH254192   0.871   4.248   3.648 -0.1119  0.5793 -0.8002
10926TIP3    H154193   0.958   4.215   3.625 -1.0452 -1.1214 -2.0596
10926TIP3    H254194   0.842   4.294   3.569 -1.1398 -0.6154 -1.1512
10927TIP3   OH254195   4.338   0.578   0.275 -0.2621 -0.2633 -0.0163
10927TIP3    H154196   4.323   0.574   0.369 -0.3490  0.0515 -0.0152
10927TIP3    H254197   4.268   0.526   0.236  0.8199 -1.9670  0.1788
10928TIP3   OH254198   1.889   5.432   5.540  0.1040  0.4868  0.1496
10928TIP3    H154199   1.793   5.433   5.541 -0.0667 -0.7293 -3.0453
10928TIP3    H254200   1.914   5.523   5.560 -1.5398  0.4461  2.8794
10929TIP3   OH254201   1.112   0.347   2.142 -0.0046  0.2202  0.7543
10929TIP3    H154202   1.201   0.378   2.121 -0.4151  0.8355 -0.1151
10929TIP3    H254203   1.078   0.314   2.059 -0.3178 -0.7297  1.2518
10930TIP3   OH254204   0.558   5.120  14.509  0.1051 -0.3891  0.6915
10930TIP3    H154205   0.649   5.093  14.500  0.4178  0.2436  1.8224
10930TIP3    H254206   0.527   5.076  14.588 -0.1013  0.6116  1.1788
10931TIP3   OH254207   3.270   3.854  13.455  0.6105 -0.1677 -0.6202
10931TIP3    H154208   3.276   3.942  13.493 -2.3920 -0.2392  0.2405
10931TIP3    H254209   3.230   3.868  13.370  0.0019 -0.7030 -0.4240
10932TIP3   OH254210   2.662   5.401  15.552 -0.5229 -0.2187 -0.3155
10932TIP3    H154211   2.715   5.450  15.615 -2.0157 -1.3643  1.9693
10932TIP3    H254212   2.717   5.395  15.474  1.4008  1.3353  0.8231
10933TIP3   OH254213   1.688   0.141   0.636  0.0562 -0.4260 -0.7197
10933TIP3    H154214   1.743   0.156   0.713  0.1450 -0.3675 -0.7952
10933TIP3    H254215   1.604   0.112   0.673  0.4255 -1.4351 -0.6339
10934TIP3   OH254216   0.225   1.198  16.287  0.6061 -0.5457 -0.7334
10934TIP3    H154217   0.187   1.121  16.245 -1.4724 -0.5075  0.9245
10934TIP3    H254218   0.164   1.269  16.267  0.1715 -0.2903  1.3339
10935TIP3   OH254219   2.981   4.989   6.379 -0.3654  0.3078 -0.2961
10935TIP3    H154220   3.052   5.034   6.333 -0.7998 -1.0024 -2.3729
10935TIP3    H254221   2.925   5.060   6.410  0.2992  1.2929 -1.2639
10936TIP3   OH254222   1.076   4.434  14.948  0.3585  0.4133 -0.1052
10936TIP3    H154223   1.004   4.494  14.967  0.6157  0.5200  0.5534
10936TIP3    H254224   1.081   4.432  14.853 -0.1226  0.8747 -0.1437
10937TIP3   OH254225   1.465   5.658   5.669  0.0167  0.3477 -0.4788
10937TIP3    H154226   1.422   5.743   5.680  0.6824  0.6421 -0.0849
10937TIP3    H254227   1.456   5.615   5.754 -0.5868 -0.1093 -0.7676
10938TIP3   OH254228   0.168   5.986  15.553 -0.2683  0.5234 -0.3581
10938TIP3    H154229   0.253   5.946  15.571 -0.6373  0.3834  1.1584
10938TIP3    H254230   0.183   6.080  15.562 -0.2925  0.4940 -0.0117
10939TIP3   OH254231   5.116   1.885  12.503 -0.4973  0.4374  0.3133
10939TIP3    H154232   5.079   1.867  12.416  1.6851  1.1864 -0.8696
10939TIP3    H254233   5.197   1.933  12.484 -1.2040  2.9175  2.8668
10940TIP3   OH254234   3.441   5.393   1.668  0.3788  0.4328 -0.9993
10940TIP3    H154235   3.530   5.370   1.693  0.7006  2.2387 -0.3328
10940TIP3    H254236   3.393   5.311   1.670  1.6198 -0.2893  0.4143
10941TIP3   OH254237   3.044   1.360  14.801  0.2633  0.6528  0.2681
10941TIP3    H154238   3.001   1.439  14.770  0.1550  0.4714 -0.0566
10941TIP3    H254239   2.997   1.336  14.881  0.2303  0.8612  0.3097
10942TIP3   OH254240   0.614   0.429  15.422  0.0051 -0.2846  0.1515
10942TIP3    H154241   0.632   0.413  15.515  0.3063 -0.6948  0.0271
10942TIP3    H254242   0.545   0.366  15.401  1.0197 -1.2901 -0.2793
10943TIP3   OH254243   4.177   6.553  15.152 -0.3737 -0.4514 -0.1265
10943TIP3    H154244   4.221   6.471  15.170  0.6243 -0.2139 -1.3792
10943TIP3    H254245   4.160   6.551  15.057 -0.1277  0.8644 -0.2169
10944TIP3   OH254246   2.300   6.260  14.014  0.2751 -0.5363 -0.5810
10944TIP3    H154247   2.241   6.188  14.034 -0.9428  0.7973  0.8839
10944TIP3    H254248   2.387   6.227  14.037  0.0306 -2.1835 -1.8381
10945TIP3   OH254249   4.745   3.156   5.348 -0.5996 -0.3335 -0.0161
10945TIP3    H154250   4.788   3.230   5.392 -0.4494 -1.1263  1.2219
10945TIP3    H254251   4.676   3.129   5.409 -0.8804 -0.9987 -0.6128
10946TIP3   OH254252   2.737   3.070   3.408  0.6977  0.3627  0.0722
10946TIP3    H154253   2.788   3.096   3.485 -0.5892 -0.8016  1.3801
10946TIP3    H254254   2.665   3.132   3.405 -0.6564 -1.0732  1.3616
10947TIP3   OH254255   3.264   1.427  13.856 -0.9840 -0.2543  0.0820
10947TIP3    H154256   3.339   1.470  13.898 -0.4525 -1.1648  0.0879
10947TIP3    H254257   3.216   1.498  13.814  0.4801  0.2217 -0.8634
10948TIP3   OH254258   2.111   4.603  15.305  0.1610  0.2438  0.1726
10948TIP3    H154259   2.072   4.615  15.392  0.8927  0.9648  0.4191
10948TIP3    H254260   2.083   4.679  15.255  1.0767  0.6769  0.2984
10949TIP3   OH254261   1.163   0.924  14.771  1.0530  0.1276  0.4197
10949TIP3    H154262   1.128   1.012  14.786  0.0349  0.0430 -1.1834
10949TIP3    H254263   1.217   0.906  14.848  0.7639  1.8897  1.0840
10950TIP3   OH254264   4.291   1.901  14.789  0.0499 -0.2695 -0.3358
10950TIP3    H154265   4.301   1.985  14.834  3.5313 -0.9130  0.3651
10950TIP3    H254266   4.321   1.836  14.853 -0.4887 -1.8445 -1.6141
10951TIP3   OH254267   5.963   3.862   1.367  0.2090  0.0944  0.1930
10951TIP3    H154268   5.869   3.863   1.387  0.2349 -1.3590  0.4793
10951TIP3    H254269   5.999   3.932   1.422 -0.5008 -0.3113  1.2048
10952TIP3   OH254270   0.105   6.253  13.601  0.2776 -0.1005  0.6695
10952TIP3    H154271   0.076   6.217  13.517  1.5893 -0.6450  0.4092
10952TIP3    H254272   0.056   6.334  13.611 -2.3039 -1.6164  0.9623
10953TIP3   OH254273   3.167   0.409  15.939  0.2826 -0.5762 -0.2327
10953TIP3    H154274   3.076   0.380  15.932  0.3032 -0.9086  0.6454
10953TIP3    H254275   3.168   0.466  16.016  0.7247 -0.1933 -0.5185
10954TIP3   OH254276   4.519   4.359   1.665  0.0427  0.4221  0.9737
10954TIP3    H154277   4.444   4.372   1.722 -0.7189  2.1878 -0.3295
10954TIP3    H254278   4.595   4.379   1.720 -0.5805  0.8374  1.7018
10955TIP3   OH254279   1.252   6.079  11.535  0.2025 -0.5635 -0.1527
10955TIP3    H154280   1.196   6.149  11.569 -2.6364 -2.5336 -0.4248
10955TIP3    H254281   1.302   6.049  11.611 -1.2556 -0.5956  0.8462
10956TIP3   OH254282   6.331   4.533   5.726  0.6154 -0.0694 -0.0034
10956TIP3    H154283   6.419   4.559   5.753 -0.0193  1.8099  0.3685
10956TIP3    H254284   6.281   4.614   5.723 -1.2248 -1.1292  0.1567
10957TIP3   OH254285   6.772   6.303   2.644 -0.1113  0.2254 -0.4013
10957TIP3    H154286   6.721   6.316   2.724 -0.3315 -0.1023 -0.4847
10957TIP3    H254287   6.707   6.304   2.574  0.2636  2.2390 -0.7568
10958TIP3   OH254288   2.201   0.652   3.402  0.1150 -0.3271  0.0841
10958TIP3    H154289   2.275   0.700   3.366 -1.2463  2.5842  0.9197
10958TIP3    H254290   2.193   0.682   3.492 -3.4578  1.4004 -0.6177
10959TIP3   OH254291   4.736   2.683  11.397 -0.0169  0.6140  0.4679
10959TIP3    H154292   4.764   2.695  11.307 -0.5052  0.1285  0.2422
10959TIP3    H254293   4.807   2.719  11.450  0.1613  1.1216 -0.1124
10960TIP3   OH254294   4.314   0.944  15.612 -0.6099 -0.3477  0.2009
10960TIP3    H154295   4.392   0.997  15.626 -0.4182 -0.7104  0.5195
10960TIP3    H254296   4.295   0.954  15.519  0.5524 -1.2699 -0.1536
10961TIP3   OH254297   2.289   6.462   2.605  0.6904 -0.1321 -0.1677
10961TIP3    H154298   2.241   6.379   2.603  0.9865 -0.2952 -0.5167
10961TIP3    H254299   2.221   6.528   2.593  0.5247 -0.3522 -0.4664
10962TIP3   OH254300   6.127   4.715   6.131 -0.3942 -0.3238 -0.1263
10962TIP3    H154301   6.189   4.760   6.073  0.0149  1.0025  1.2686
10962TIP3    H254302   6.152   4.623   6.126  0.2514 -0.1134 -1.2810
10963TIP3   OH254303   2.476   4.065  12.160  0.3484 -0.4731  0.9673
10963TIP3    H154304   2.507   4.139  12.108  0.4823 -0.6793  0.7485
10963TIP3    H254305   2.524   3.990  12.125 -1.7055 -1.1438 -0.6553
10964TIP3   OH254306   6.086   1.419  15.497 -0.2056 -0.8076 -0.0237
10964TIP3    H154307   6.057   1.391  15.584 -0.1333  1.4809  0.8151
10964TIP3    H254308   6.156   1.358  15.474  1.0342 -0.4130  2.3699
10965TIP3   OH254309   3.075   2.155   3.763  0.3315  0.4290 -0.5714
10965TIP3    H154310   3.043   2.196   3.682 -3.1153 -0.6072  0.0974
10965TIP3    H254311   3.084   2.063   3.741  0.1154  0.2618  0.0360
10966TIP3   OH254312   4.869   3.427   0.804 -0.5098 -0.4328 -0.3997
10966TIP3    H154313   4.962   3.437   0.785 -0.4738 -1.1271 -0.6383
10966TIP3    H254314   4.864   3.420   0.900 -0.7291  3.4684  0.0115
10967TIP3   OH254315   1.649   0.187   3.695 -0.0838  0.5294  0.1131
10967TIP3    H154316   1.642   0.200   3.790  1.3815  0.4620  0.2509
10967TIP3    H254317   1.562   0.208   3.662 -0.8357 -0.1611  1.5498
10968TIP3   OH254318   6.299   0.751  13.426 -0.0410 -0.5209 -0.3763
10968TIP3    H154319   6.286   0.657  13.414 -1.3843 -0.5967  1.3025
10968TIP3    H254320   6.231   0.777  13.488  2.1204  1.0077  1.5294
10969TIP3   OH254321   4.354   4.732  11.604 -0.3154  0.1378 -0.3394
10969TIP3    H154322   4.346   4.820  11.567  1.2764 -0.5371 -2.5488
10969TIP3    H254323   4.394   4.745  11.689 -0.7080  1.5902 -0.3511
10970TIP3   OH254324   0.013   6.704  16.405  0.3689 -0.2407  0.0330
10970TIP3    H154325   0.049   6.702  16.316  0.8366  0.2374  0.2127
10970TIP3    H254326   0.087   6.688  16.462  0.6200  2.1376  0.4863
10971TIP3   OH254327   1.293   5.767  12.941 -0.3809 -0.9196  0.6229
10971TIP3    H154328   1.212   5.737  12.981 -2.1024  0.1163 -1.8554
10971TIP3    H254329   1.334   5.688  12.907 -0.9829 -1.3186  0.8212
10972TIP3   OH254330   6.602   1.367  16.402  0.2533 -0.1694 -0.1126
10972TIP3    H154331   6.553   1.447  16.421 -0.0203 -0.2745 -0.3751
10972TIP3    H254332   6.547   1.296  16.436 -0.4120 -0.3926 -1.5974
10973TIP3   OH254333   3.909   3.384  16.717 -0.0584  0.2243  0.8969
10973TIP3    H154334   3.825   3.429  16.729  0.4416  1.6203 -0.4538
10973TIP3    H254335   3.902   3.305  16.770 -1.7179  0.9654  1.8709
10974TIP3   OH254336   3.805   4.986  10.611 -0.3300 -0.0745 -0.3339
10974TIP3    H154337   3.867   5.011  10.542  2.0820 -0.7525  1.4525
10974TIP3    H254338   3.796   5.066  10.664 -0.5501 -0.1494 -0.2567
10975TIP3   OH254339   2.378   2.071  13.077  0.1602  0.8188 -0.3116
10975TIP3    H154340   2.371   2.144  13.016 -1.2149  0.8419 -0.1690
10975TIP3    H254341   2.309   2.010  13.051  0.4444  0.1784  0.3662
10976TIP3   OH254342   2.374   5.468  15.499 -0.4284 -0.0871 -0.1917
10976TIP3    H154343   2.457   5.445  15.539  1.2434 -1.0453 -3.7772
10976TIP3    H254344   2.385   5.560  15.473  0.3386 -0.7163 -2.2745
10977TIP3   OH254345   1.560   6.064  14.043 -0.2703  0.9394  0.2110
10977TIP3    H154346   1.482   6.024  14.082  0.0762  0.2654  0.2258
10977TIP3    H254347   1.564   6.029  13.955  0.5095  0.2545  0.5012
10978TIP3   OH254348   5.579   5.088  15.979  0.4385 -0.0945  0.3137
10978TIP3    H154349   5.656   5.095  16.035  0.0387 -0.6775  0.9449
10978TIP3    H254350   5.511   5.137  16.026 -0.5905 -2.5940  1.6025
10979TIP3   OH254351   3.405   1.860  15.937 -0.0290  0.3683  0.3688
10979TIP3    H154352   3.400   1.865  15.842  0.5535 -1.9299  0.1512
10979TIP3    H254353   3.315   1.840  15.964 -0.0933  0.4839  0.2412
10980TIP3   OH254354   3.670   0.017  15.640 -0.3796  0.3934 -0.4912
10980TIP3    H154355   3.690   0.037  15.732 -0.5195  0.3395 -0.4488
10980TIP3    H254356   3.701   0.093  15.592  0.5272  0.0376 -0.4962
10981TIP3   OH254357   4.280   1.597  16.327 -0.4092 -0.2005  0.1864
10981TIP3    H154358   4.299   1.583  16.234  0.0859 -0.6768  0.3536
10981TIP3    H254359   4.355   1.646  16.360  1.4218 -3.3820  1.1849
10982TIP3   OH254360   1.984   1.651  14.175  0.2191  0.1154 -0.6468
10982TIP3    H154361   1.975   1.575  14.233 -1.2107  0.5241 -0.2956
10982TIP3    H254362   2.040   1.712  14.223  0.4119 -0.2268 -0.4283
10983TIP3   OH254363   2.141   1.361   1.821  0.3191  0.1806 -0.0459
10983TIP3    H154364   2.154   1.285   1.877 -0.9776 -2.7453 -3.3422
10983TIP3    H254365   2.217   1.362   1.763 -0.0842  0.8919 -0.5779
10984TIP3   OH254366   2.751   6.697  12.288 -0.1532 -1.0194  0.1360
10984TIP3    H154367   2.765   6.715  12.195  0.0149 -1.2427  0.1186
10984TIP3    H254368   2.798   6.766  12.333 -1.0032 -0.3552  0.0480
10985TIP3   OH254369   2.545   2.646  11.483  0.0851 -1.2868  0.0522
10985TIP3    H154370   2.517   2.633  11.393  1.7154  1.4053 -0.9264
10985TIP3    H254371   2.554   2.557  11.518  0.4926 -2.4564 -2.7682
10986TIP3   OH254372   0.064   4.763   1.591 -0.0102  0.3645  0.8634
10986TIP3    H154373   0.021   4.677   1.588  0.4150  0.1663  0.1512
10986TIP3    H254374  -0.007   4.825   1.601 -0.5694  0.0919 -0.9595
10987TIP3   OH254375   4.533   3.431   1.522 -0.5723 -0.3196 -0.1071
10987TIP3    H154376   4.552   3.521   1.497 -0.4848 -0.6257 -1.1741
10987TIP3    H254377   4.512   3.436   1.615  0.4087  0.6552  0.0758
10988TIP3   OH254378   5.220   2.809  13.754  0.5092  0.1706  0.2261
10988TIP3    H154379   5.268   2.777  13.830  0.5319  2.6076  1.3351
10988TIP3    H254380   5.250   2.899  13.743 -0.4037  0.2713 -1.9532
10989TIP3   OH254381   1.250   2.921  11.331 -0.0321  0.0611  0.0983
10989TIP3    H154382   1.297   2.896  11.251  1.7887 -0.2257  1.1951
10989TIP3    H254383   1.201   2.842  11.355 -0.2534  0.0120 -0.5112
10990TIP3   OH254384   3.889   6.595  11.551 -0.1749 -0.2823  0.4920
10990TIP3    H154385   3.833   6.524  11.518  0.2701 -0.0151 -0.9172
10990TIP3    H254386   3.827   6.661  11.582 -0.6108 -0.7488  0.6428
10991TIP3   OH254387   3.696   0.627  14.052 -0.5129  0.8331  0.0005
10991TIP3    H154388   3.731   0.664  14.133 -0.9024  0.1630  0.4861
10991TIP3    H254389   3.640   0.555  14.080 -0.8595  0.7483 -0.8546
10992TIP3   OH254390   6.385   4.928  15.061 -0.4596  0.1384 -0.6910
10992TIP3    H154391   6.308   4.937  15.116  0.2237  0.0812  0.2908
10992TIP3    H254392   6.373   4.844  15.017 -2.0933  1.1738 -2.3968
10993TIP3   OH254393   3.433   5.832   2.523  0.3393  0.1772 -0.3020
10993TIP3    H154394   3.345   5.840   2.487  0.5134  2.3246 -0.4239
10993TIP3    H254395   3.431   5.753   2.577 -1.5656  0.0297 -0.5404
10994TIP3   OH254396   5.798   2.150  15.255 -0.8250 -0.0344  0.0180
10994TIP3    H154397   5.793   2.245  15.249 -0.7573 -0.0701 -0.7710
10994TIP3    H254398   5.871   2.126  15.198 -0.2326 -0.4906  0.9577
10995TIP3   OH254399   2.613   3.042   0.532 -0.2725  0.6878 -0.2237
10995TIP3    H154400   2.628   3.135   0.512 -0.4991  0.6549 -0.5640
10995TIP3    H254401   2.524   3.040   0.568  0.5413  0.9039  1.9104
10996TIP3   OH254402   1.985   6.199  11.645 -0.1752 -0.1372 -0.2846
10996TIP3    H154403   2.026   6.285  11.650 -0.9008  0.1514  1.5355
10996TIP3    H254404   2.056   6.138  11.664 -0.1016  0.2188  0.6349
10997TIP3   OH254405   0.510   6.706   4.518  0.4222  0.4310 -0.0565
10997TIP3    H154406   0.586   6.756   4.548  1.9681 -2.0358  0.4557
10997TIP3    H254407   0.469   6.674   4.599 -0.3979  0.6837 -0.3688
10998TIP3   OH254408   1.058   4.862  15.076  0.2935 -0.2357  0.0825
10998TIP3    H154409   1.080   4.953  15.056 -2.6711  0.3425 -0.9788
10998TIP3    H254410   1.072   4.816  14.994 -1.9681  0.0974 -0.5426
10999TIP3   OH254411   6.674   6.669   1.781  0.3293  0.1163  0.0425
10999TIP3    H154412   6.709   6.722   1.710  0.3976 -0.8686 -0.6834
10999TIP3    H254413   6.752   6.641   1.830  0.1913  2.0373  1.4508
11000TIP3   OH254414   1.741   2.743  16.331  0.3680 -0.3312 -0.3236
11000TIP3    H154415   1.754   2.677  16.264 -0.4943  0.1237 -0.9682
11000TIP3    H254416   1.647   2.741  16.349  0.0971  1.5725 -1.2962
11001TIP3   OH254417   6.720   2.657  15.066  0.1278 -0.2555 -0.3234
11001TIP3    H154418   6.625   2.645  15.057  0.2537 -0.1395 -2.2654
11001TIP3    H254419   6.729   2.734  15.123 -0.9476 -0.1971 -0.2047
11002TIP3   OH254420   1.009   1.600   4.753 -0.1954  0.1906  0.4814
11002TIP3    H154421   1.019   1.517   4.800 -1.0665 -0.0086  0.3202
11002TIP3    H254422   1.077   1.657   4.791  1.1298 -0.9048 -0.1460
11003TIP3   OH254423   2.877   2.865  11.727 -0.8306 -0.0548 -0.4767
11003TIP3    H154424   2.895   2.857  11.821 -0.3178  1.1677 -0.4545
11003TIP3    H254425   2.889   2.776  11.693 -0.3321 -0.3800  0.5058
11004TIP3   OH254426   2.430   3.922  12.988 -0.2574  0.4981  0.5296
11004TIP3    H154427   2.347   3.905  13.033 -1.1092 -1.1973 -1.5054
11004TIP3    H254428   2.421   4.011  12.955 -0.6832  0.8298  1.5136
11005TIP3   OH254429   2.105   4.460   3.618 -0.2838  1.5530  0.9750
11005TIP3    H154430   2.183   4.410   3.642  0.8902  0.9453 -3.2833
11005TIP3    H254431   2.032   4.400   3.632  0.6189  0.2387  0.2213
11006TIP3   OH254432   4.440   5.549   1.036 -0.4321  0.1222 -0.4613
11006TIP3    H154433   4.527   5.528   1.070 -1.2642 -1.4684  0.8190
11006TIP3    H254434   4.396   5.594   1.109 -1.3188 -0.8615 -0.3617
11007TIP3   OH254435   4.884   2.414  13.745 -0.2034  0.3794  0.2274
11007TIP3    H154436   4.812   2.455  13.794 -0.8686  0.4308 -0.7645
11007TIP3    H254437   4.875   2.321  13.762 -1.7980  0.1585 -1.5019
11008TIP3   OH254438   4.657   1.022   3.894  0.1667 -0.1889  0.3346
11008TIP3    H154439   4.628   0.946   3.943  1.0133 -0.5695  0.2619
11008TIP3    H254440   4.662   1.092   3.959  0.5151 -0.4921  0.6358
11009TIP3   OH254441   4.534   4.255   1.215 -0.4263  0.7109 -1.1891
11009TIP3    H154442   4.442   4.228   1.217 -0.1849 -0.1227 -0.9323
11009TIP3    H254443   4.578   4.193   1.273  0.2591  1.2666 -1.1075
11010TIP3   OH254444   1.509   4.691  16.402 -0.1362  0.4869 -0.2079
11010TIP3    H154445   1.451   4.630  16.356  0.1486  1.2608 -1.6302
11010TIP3    H254446   1.498   4.668  16.494 -1.4690 -0.4604 -0.5647
11011TIP3   OH254447   0.923   2.110   0.058 -0.4191  0.3530  0.3379
11011TIP3    H154448   0.893   2.190   0.014 -0.5998  0.9646  1.5161
11011TIP3    H254449   0.865   2.041   0.025 -1.1904  0.9809  0.3523
11012TIP3   OH254450   0.516   2.032  15.667  0.0840 -0.2065  0.2395
11012TIP3    H154451   0.436   2.036  15.720 -0.1265  2.3403 -0.1264
11012TIP3    H254452   0.585   2.065  15.725  0.9420 -2.4087  0.5594
11013TIP3   OH254453   3.565   3.597  11.659  0.1581 -0.1785 -0.0205
11013TIP3    H154454   3.632   3.566  11.598  0.8435 -0.2560  0.7564
11013TIP3    H254455   3.498   3.636  11.603  1.5025  1.1870 -0.7535
11014TIP3   OH254456   5.827   3.655  17.063  0.2410  0.1659 -0.4702
11014TIP3    H154457   5.916   3.686  17.045 -0.3952  1.8284 -0.8412
11014TIP3    H254458   5.783   3.658  16.978  0.4731 -3.0856 -0.8411
11015TIP3   OH254459   5.677   1.128  11.579 -0.3564 -0.7177 -0.3103
11015TIP3    H154460   5.747   1.120  11.514  0.4969  0.7286  0.3683
11015TIP3    H254461   5.645   1.218  11.568 -1.0733 -0.8846  0.3955
11016TIP3   OH254462   0.109   3.289   2.459 -0.0380 -0.5793 -0.5099
11016TIP3    H154463   0.139   3.377   2.438  1.4666 -1.1727 -0.9988
11016TIP3    H254464   0.015   3.291   2.442 -0.1290  1.0716  0.0299
11017TIP3   OH254465   4.547   0.069   4.044  0.0875 -0.2247  0.1595
11017TIP3    H154466   4.484   0.115   4.100 -0.8477 -1.3748  0.0967
11017TIP3    H254467   4.616   0.042   4.104  1.1893  2.0703  0.0437
11018TIP3   OH254468   6.788   0.222   1.464  0.6085 -0.2579  0.0379
11018TIP3    H154469   6.832   0.142   1.494 -0.3724 -1.1688 -0.8833
11018TIP3    H254470   6.778   0.275   1.544  0.5115 -1.4217  0.8234
11019TIP3   OH254471   1.692   0.664   5.038  0.3575  0.0416  0.3293
11019TIP3    H154472   1.783   0.691   5.045  0.4206  0.1218 -0.6517
11019TIP3    H254473   1.681   0.642   4.945  0.1297 -2.6444  0.9260
11020TIP3   OH254474   3.687   0.468  16.247 -0.0582  0.0622  0.0123
11020TIP3    H154475   3.733   0.464  16.331 -1.6215 -2.1572  0.8653
11020TIP3    H254476   3.725   0.397  16.195 -1.3498 -0.7336  0.1202
11021TIP3   OH254477   5.411   5.895  11.823 -0.7438  0.2247 -0.3424
11021TIP3    H154478   5.449   5.820  11.868  0.6221  1.5744  0.8633
11021TIP3    H254479   5.373   5.858  11.743  0.0548 -1.7077  0.1160
11022TIP3   OH254480   3.196   3.516  13.316  0.3866 -0.1280  0.2173
11022TIP3    H154481   3.116   3.567  13.298  0.1169 -0.7464 -0.3528
11022TIP3    H254482   3.202   3.455  13.243  1.9353  0.5747 -0.2767
11023TIP3   OH254483   1.861   5.904   0.483 -0.3942  0.0794 -0.5347
11023TIP3    H154484   1.773   5.905   0.445 -0.1953  0.1017 -1.0039
11023TIP3    H254485   1.854   5.843   0.557 -0.6344 -0.4577 -0.9948
11024TIP3   OH254486   3.419   6.352  12.995  0.5795 -0.0883  0.2169
11024TIP3    H154487   3.393   6.312  13.078 -1.1198  1.3520  0.4233
11024TIP3    H254488   3.461   6.435  13.020  0.3883  0.1827 -0.3423
11025TIP3   OH254489   0.655   1.415  16.169 -0.3417 -0.0651  0.7458
11025TIP3    H154490   0.589   1.395  16.103 -0.3117 -1.5641  1.1166
11025TIP3    H254491   0.621   1.376  16.250  0.8813 -0.7129  0.9819
11026TIP3   OH254492   5.644   2.593  16.016  0.1985  0.2551  0.0627
11026TIP3    H154493   5.629   2.560  15.928 -0.2652 -0.1700  0.2875
11026TIP3    H254494   5.557   2.590  16.057  0.6532 -1.0388  1.0194
11027TIP3   OH254495   2.021   0.743  14.215  0.0847  0.5590 -0.0868
11027TIP3    H154496   1.966   0.774  14.287 -0.8690 -0.5203 -0.3280
11027TIP3    H254497   2.000   0.802  14.142 -0.0448  0.7238  0.0819
11028TIP3   OH254498   5.764   5.600  16.604 -0.5676 -0.4311 -0.1810
11028TIP3    H154499   5.837   5.539  16.597 -1.1036 -1.3017  1.2183
11028TIP3    H254500   5.689   5.553  16.566 -0.5063  0.3029 -1.2557
11029TIP3   OH254501   4.523   0.779   0.259  0.0556 -0.9176 -0.6266
11029TIP3    H154502   4.530   0.823   0.344  1.7777  0.6438 -1.4969
11029TIP3    H254503   4.447   0.721   0.268 -0.0870 -0.4611  1.8028
11030TIP3   OH254504   0.970   3.062   5.514  0.0691 -0.1748 -0.5357
11030TIP3    H154505   0.906   3.000   5.477  2.5176 -3.0454 -0.3813
11030TIP3    H254506   0.988   3.027   5.602  1.7822  0.5661 -0.5630
11031TIP3   OH254507   6.450   3.332  11.255  0.4930 -0.9466  0.4060
11031TIP3    H154508   6.419   3.243  11.237  0.0434 -0.7002 -0.0485
11031TIP3    H254509   6.380   3.372  11.306  0.3605 -0.6130 -0.0346
11032TIP3   OH254510   2.873   3.005   0.892  0.5120 -0.6759 -0.3955
11032TIP3    H154511   2.948   2.949   0.911  0.5431 -0.7299 -0.6777
11032TIP3    H254512   2.835   2.968   0.813  1.1208  0.2868 -1.1684
11033TIP3   OH254513   0.371   4.248   6.264  0.2206 -0.4330 -0.2366
11033TIP3    H154514   0.411   4.162   6.251  0.1968 -0.4567 -0.1507
11033TIP3    H254515   0.432   4.309   6.223  0.9191 -0.3504  0.8921
11034TIP3   OH254516   5.793   3.867  13.999 -0.0432  0.1064  0.1722
11034TIP3    H154517   5.846   3.945  13.980  0.0410 -0.2183 -1.0003
11034TIP3    H254518   5.807   3.810  13.924  1.0150 -1.6680  1.6469
11035TIP3   OH254519   6.602   3.569   6.618 -0.2237  0.7451 -0.2636
11035TIP3    H154520   6.616   3.641   6.681  3.0276 -1.9795  2.5388
11035TIP3    H254521   6.682   3.567   6.566 -1.0143  0.1738 -1.4986
11036TIP3   OH254522   6.380   6.216   5.737 -0.0561 -0.4612  0.5662
11036TIP3    H154523   6.471   6.216   5.708 -0.2352 -1.4292 -0.0478
11036TIP3    H254524   6.367   6.303   5.774  0.0831  1.0115 -2.5360
11037TIP3   OH254525   0.991   4.338   1.766  0.6408  0.3636 -0.3358
11037TIP3    H154526   0.994   4.347   1.671 -0.1835  1.5737 -0.2778
11037TIP3    H254527   1.024   4.422   1.799 -2.4646  1.4856  0.3519
11038TIP3   OH254528   5.242   0.050   0.056 -0.7449 -0.1131 -0.0849
11038TIP3    H154529   5.327   0.079   0.091 -0.8578  0.1572 -0.0270
11038TIP3    H254530   5.226   0.109  -0.017 -1.5147  0.7292  0.7308
11039TIP3   OH254531   2.310   0.803  14.179  0.6265  0.2700  0.7087
11039TIP3    H154532   2.229   0.755  14.197  0.3327  0.3766 -0.2762
11039TIP3    H254533   2.374   0.764  14.238  0.0307 -0.3224  0.9803
11040TIP3   OH254534   0.624   6.340   2.489 -0.1930 -0.0580 -0.2004
11040TIP3    H154535   0.701   6.348   2.432  0.8455 -1.0419  0.9899
11040TIP3    H254536   0.561   6.402   2.454  1.6915  1.8834 -0.3259
11041TIP3   OH254537   3.166   3.646  15.841 -0.3815  0.3026  0.2162
11041TIP3    H154538   3.148   3.582  15.909  0.6919 -1.1630 -0.8257
11041TIP3    H254539   3.248   3.688  15.869  0.7567 -1.1876 -0.7313
11042TIP3   OH254540   6.528   5.397   3.858  0.4624  0.6746 -0.4233
11042TIP3    H154541   6.613   5.441   3.863  0.3640  0.7659  1.0453
11042TIP3    H254542   6.548   5.304   3.869  0.4186  0.6471 -0.5794
11043TIP3   OH254543   1.031   1.458   4.066  0.0415 -0.3019  0.0043
11043TIP3    H154544   1.003   1.454   4.157 -0.8345 -0.7564 -0.2727
11043TIP3    H254545   1.088   1.381   4.055  1.5372  0.6774  0.5931
11044TIP3   OH254546   4.862   1.110  12.386  0.1096 -0.6234  0.2345
11044TIP3    H154547   4.943   1.060  12.379 -0.1161 -0.8518 -1.0764
11044TIP3    H254548   4.868   1.176  12.316 -0.9103 -0.7906 -0.0365
11045TIP3   OH254549   4.536   0.500   1.761  0.1007 -0.2893 -0.1352
11045TIP3    H154550   4.562   0.409   1.777  3.4099  0.2319 -1.7005
11045TIP3    H254551   4.476   0.495   1.687  1.6663 -1.1419 -1.4083
11046TIP3   OH254552   6.758   4.933  16.080 -0.2308  0.6536  0.1921
11046TIP3    H154553   6.770   4.840  16.062 -1.5582  0.7343 -1.2807
11046TIP3    H254554   6.687   4.935  16.145 -1.0531  0.6600 -0.6857
11047TIP3   OH254555   3.194   4.604  16.122  0.1449 -0.3433 -0.0094
11047TIP3    H154556   3.133   4.540  16.158 -0.2671 -0.9137 -1.6424
11047TIP3    H254557   3.262   4.612  16.189 -1.8437  0.5833  2.0376
11048TIP3   OH254558   5.867   5.482  15.236 -0.7278 -0.0252 -0.2901
11048TIP3    H154559   5.860   5.573  15.265  0.9223  0.6013 -1.6375
11048TIP3    H254560   5.915   5.438  15.306 -1.4356  0.1670  0.3211
11049TIP3   OH254561   3.032   4.788  13.382 -0.3072 -0.6226 -0.3791
11049TIP3    H154562   2.959   4.727  13.386 -0.5567 -0.2489  1.7727
11049TIP3    H254563   2.990   4.874  13.373 -0.3693 -0.1540  3.1517
11050TIP3   OH254564   5.865   4.765  13.652 -0.1611 -0.3872 -0.2613
11050TIP3    H154565   5.773   4.747  13.669 -0.3498  1.1062  0.4972
11050TIP3    H254566   5.871   4.772  13.557 -1.1799  1.0354 -0.2533
11051TIP3   OH254567   4.945   1.771   5.753 -0.3295  0.1567  0.1024
11051TIP3    H154568   5.000   1.724   5.690 -0.3630 -0.9119  0.8458
11051TIP3    H254569   5.007   1.804   5.818 -0.2291  1.7283 -0.7339
11052TIP3   OH254570   0.429   2.533   4.282 -0.1859 -0.7463 -0.1548
11052TIP3    H154571   0.504   2.589   4.301  0.5593 -1.7496 -0.0985
11052TIP3    H254572   0.381   2.528   4.365  0.9428 -1.9581  0.4531
11053TIP3   OH254573   6.175   4.689  10.443 -0.0026 -0.2596 -0.6361
11053TIP3    H154574   6.109   4.646  10.498  1.8737 -1.2947  0.9266
11053TIP3    H254575   6.243   4.717  10.504  1.2154  0.4209 -2.2180
11054TIP3   OH254576   1.736   6.540  11.965 -0.2886  0.0984 -0.0137
11054TIP3    H154577   1.705   6.474  11.903  2.5038 -2.5541  1.1495
11054TIP3    H254578   1.745   6.620  11.914 -1.1495 -1.1114 -2.1884
11055TIP3   OH254579   6.575   0.621  12.554  0.2597 -0.1493  0.4827
11055TIP3    H154580   6.628   0.547  12.584 -0.6403 -0.4813  1.2950
11055TIP3    H254581   6.551   0.597  12.464 -0.3882 -1.0779  0.8827
11056TIP3   OH254582   6.460   5.203   0.733  0.2093  0.3489 -0.3377
11056TIP3    H154583   6.427   5.223   0.821 -3.3474 -2.2106 -0.9015
11056TIP3    H254584   6.540   5.256   0.726 -0.6935  2.6408  3.4255
11057TIP3   OH254585   4.945   1.169   5.523  0.2279  0.1099 -0.1928
11057TIP3    H154586   4.960   1.075   5.529 -1.1847 -0.3364 -2.3557
11057TIP3    H254587   4.978   1.204   5.605  1.3587 -2.1840  0.4217
11058TIP3   OH254588   6.612   6.221   0.879  0.0405  0.5569 -0.3458
11058TIP3    H154589   6.654   6.198   0.796 -0.7309 -0.6658 -0.4263
11058TIP3    H254590   6.566   6.302   0.861  2.7996  2.3250 -0.0840
11059TIP3   OH254591   2.694   1.451   2.125 -0.1036  0.2821 -0.2998
11059TIP3    H154592   2.661   1.362   2.111 -0.4893  0.1408  1.3928
11059TIP3    H254593   2.625   1.495   2.174 -0.5847  2.0201 -2.3869
11060TIP3   OH254594   6.069   6.309  16.893 -0.0916 -0.0041  0.1878
11060TIP3    H154595   6.034   6.398  16.893 -2.0689 -0.7369  0.3036
11060TIP3    H254596   5.995   6.254  16.917  1.2942 -1.6221  1.0126
11061TIP3   OH254597   5.106   5.085  13.990  0.3044 -0.1737 -0.2933
11061TIP3    H154598   5.198   5.086  13.964  0.3130 -0.8115 -0.2882
11061TIP3    H254599   5.068   5.163  13.948  1.1678  0.9226  0.8692
11062TIP3   OH254600   0.013   4.467  13.505 -0.8524  0.4281 -0.3155
11062TIP3    H154601   0.062   4.548  13.489 -1.0709  0.3011 -1.8505
11062TIP3    H254602   0.056   4.402  13.450 -0.6749 -0.5199  0.9090
11063TIP3   OH254603   6.102   1.436   4.314  0.0160 -0.0340  0.1293
11063TIP3    H154604   6.188   1.467   4.285 -0.7046  0.9929 -1.0416
11063TIP3    H254605   6.061   1.514   4.352 -0.2779 -0.6038  0.9979
11064TIP3   OH254606   4.685   6.206  15.756  0.1753  0.5365 -0.3515
11064TIP3    H154607   4.608   6.242  15.713  0.0370  1.4326  0.5940
11064TIP3    H254608   4.668   6.217  15.850  0.9607 -0.2977 -0.0892
11065TIP3   OH254609   1.958   0.414  12.344 -0.4332 -0.4518  0.1820
11065TIP3    H154610   2.028   0.425  12.280  0.4684  1.9352  1.4344
11065TIP3    H254611   2.003   0.390  12.425 -0.9475  1.5124  1.1148
11066TIP3   OH254612   1.179   4.496   5.792  0.4382  0.1691 -0.5612
11066TIP3    H154613   1.112   4.541   5.844  0.3309  0.6626 -1.1138
11066TIP3    H254614   1.258   4.548   5.804  0.3313  0.4816 -1.1467
11067TIP3   OH254615   2.008   0.931  12.255  0.1349 -0.2963  0.1470
11067TIP3    H154616   2.088   0.983  12.265  0.5633 -0.9819  0.3678
11067TIP3    H254617   1.938   0.988  12.285  0.7170 -0.2266  1.4221
11068TIP3   OH254618   4.812   1.289   0.766  0.0874 -0.4344 -0.4936
11068TIP3    H154619   4.874   1.278   0.693  0.7383  0.6960 -0.1516
11068TIP3    H254620   4.746   1.350   0.732 -0.1249 -0.6328 -0.4381
11069TIP3   OH254621   0.349   1.133   3.923 -0.0163 -0.9562  0.4360
11069TIP3    H154622   0.340   1.183   4.003 -0.8104  0.0058 -0.2295
11069TIP3    H254623   0.441   1.105   3.922 -0.3157 -2.1633  2.3323
11070TIP3   OH254624   3.329   6.756   5.060 -0.5786  0.4336  0.5201
11070TIP3    H154625   3.390   6.726   5.127  1.8660  2.1685 -0.7366
11070TIP3    H254626   3.294   6.839   5.095 -1.6317 -0.1476  0.8833
11071TIP3   OH254627   4.697   4.776   6.674 -0.5248  0.3939  0.0594
11071TIP3    H154628   4.772   4.724   6.645 -1.0866 -0.5062  0.1633
11071TIP3    H254629   4.631   4.711   6.698 -1.3720  1.1640 -0.1178
11072TIP3   OH254630   0.386   2.032   2.808 -0.0041  0.5764  0.1489
11072TIP3    H154631   0.293   2.040   2.790 -0.4277  0.2597  2.0108
11072TIP3    H254632   0.417   2.123   2.814 -0.2568  0.6827 -0.1323
11073TIP3   OH254633   0.569   2.443   1.118  0.2242  0.1024  0.4110
11073TIP3    H154634   0.551   2.396   1.036  0.9165 -0.5000  0.5955
11073TIP3    H254635   0.488   2.433   1.168 -0.3438  0.8025 -0.3413
11074TIP3   OH254636   4.730   4.337   0.884  0.3732 -0.0863  0.0417
11074TIP3    H154637   4.666   4.396   0.924 -1.1581 -0.6507 -1.4545
11074TIP3    H254638   4.805   4.339   0.943 -0.7815  1.0760  1.5421
11075TIP3   OH254639   1.907   5.379  16.575 -0.6741  0.0246  0.2724
11075TIP3    H154640   1.877   5.458  16.619  1.3839  0.6679  0.5949
11075TIP3    H254641   1.956   5.331  16.642 -0.4068 -0.6730 -0.4045
11076TIP3   OH254642   3.672   6.526  15.051 -0.2743 -0.1311 -0.1304
11076TIP3    H154643   3.762   6.505  15.027  0.3678  0.9979  1.1709
11076TIP3    H254644   3.669   6.621  15.053 -0.8091 -0.1296  2.1477
11077TIP3   OH254645   3.860   5.877   3.583 -0.3215 -0.2565  0.7416
11077TIP3    H154646   3.866   5.812   3.653  0.4641 -1.5667 -0.4760
11077TIP3    H254647   3.948   5.880   3.546 -0.4224  1.3239  0.5892
11078TIP3   OH254648   2.038   1.194  15.654  0.0382 -0.0138  0.8201
11078TIP3    H154649   2.056   1.104  15.625  1.0314 -0.0113  1.3533
11078TIP3    H254650   1.971   1.184  15.722  0.7991 -0.4677  1.5299
11079TIP3   OH254651   6.792   1.297  14.506  0.1763 -0.1900 -0.2051
11079TIP3    H154652   6.796   1.208  14.543 -0.0914 -0.9573 -1.9177
11079TIP3    H254653   6.884   1.322  14.495  0.2729 -0.7061 -0.6747
11080TIP3   OH254654   6.353   2.940   4.531 -0.4972 -0.4298  0.6925
11080TIP3    H154655   6.289   2.876   4.563  0.1851 -0.9083  1.1164
11080TIP3    H254656   6.435   2.891   4.524 -0.5798 -0.3384 -1.7643
11081TIP3   OH254657   1.781   2.150  11.990  0.2702  0.4522  0.1337
11081TIP3    H154658   1.689   2.147  11.962  0.3974 -0.8828 -0.1904
11081TIP3    H254659   1.831   2.145  11.908  0.6376 -2.2665  0.4489
11082TIP3   OH254660   4.989   2.493   3.641 -0.9004 -0.2041 -0.0630
11082TIP3    H154661   5.080   2.466   3.652 -0.6833  0.4789 -0.1352
11082TIP3    H254662   4.955   2.436   3.571 -0.5576 -0.5186  0.0265
11083TIP3   OH254663   1.838   2.690  12.438  0.0230 -0.0119 -0.4007
11083TIP3    H154664   1.858   2.606  12.397  1.6276  0.5312 -0.7974
11083TIP3    H254665   1.829   2.751  12.365 -2.3156 -0.0153 -0.1895
11084TIP3   OH254666   2.774   3.683   2.844  0.0627 -0.5698  0.2823
11084TIP3    H154667   2.794   3.772   2.816 -1.2122  0.4493  2.2968
11084TIP3    H254668   2.834   3.627   2.795 -0.4676  1.1822 -2.5393
11085TIP3   OH254669   3.937   6.307  15.376 -0.4122 -0.4453 -0.5637
11085TIP3    H154670   3.884   6.233  15.406 -0.8448 -0.2990 -0.9488
11085TIP3    H254671   3.892   6.384  15.411 -0.6391 -0.3034 -1.1539
11086TIP3   OH254672   5.866   6.049   4.501  0.7378  0.7234  0.2083
11086TIP3    H154673   5.938   6.003   4.544  1.3479  2.8070  1.5518
11086TIP3    H254674   5.801   6.062   4.570  0.0999  0.9265 -0.4164
11087TIP3   OH254675   3.203   2.774  13.111 -0.0332  0.4061  0.1996
11087TIP3    H154676   3.177   2.773  13.203 -0.3491 -1.8387  0.1540
11087TIP3    H254677   3.120   2.786  13.063 -0.0638  0.1440  0.1859
11088TIP3   OH254678   3.432   5.322   1.365 -0.3619 -0.3220 -0.0345
11088TIP3    H154679   3.418   5.411   1.398  0.1409  0.2174 -1.2241
11088TIP3    H254680   3.504   5.288   1.419  0.2249  0.4224 -0.3279
11089TIP3   OH254681   3.616   4.801  10.489 -0.1334  0.0634  0.2009
11089TIP3    H154682   3.524   4.825  10.488 -0.7976 -1.9924  2.1219
11089TIP3    H254683   3.658   4.869  10.541 -0.6116  0.8622 -0.4418
11090TIP3   OH254684   4.296   2.827  15.075 -0.5124 -0.0623 -0.6508
11090TIP3    H154685   4.209   2.786  15.077 -0.1270 -0.8572  0.2369
11090TIP3    H254686   4.340   2.794  15.153 -0.6719  3.1728  0.9658
11091TIP3   OH254687   2.354   4.148  15.108 -0.2022 -0.3984 -0.0456
11091TIP3    H154688   2.288   4.101  15.057 -0.6229  1.3296 -1.1868
11091TIP3    H254689   2.358   4.235  15.068  2.3601 -0.2469  0.3601
11092TIP3   OH254690   4.612   0.622  11.167  0.2167  0.0796  0.5285
11092TIP3    H154691   4.587   0.535  11.135 -1.4853  0.3782  0.9311
11092TIP3    H254692   4.658   0.662  11.094  0.3258 -0.8777  0.0582
11093TIP3   OH254693   4.380   1.468   0.759  0.0895  0.5443  0.4151
11093TIP3    H154694   4.351   1.387   0.802 -0.4585  0.4073 -0.2048
11093TIP3    H254695   4.475   1.459   0.754 -0.0620 -0.6879 -0.8702
11094TIP3   OH254696   1.721   2.508  12.279  0.1007  0.2446 -0.2535
11094TIP3    H154697   1.760   2.477  12.197 -0.1771  0.6430 -0.5442
11094TIP3    H254698   1.633   2.471  12.279  0.3361 -0.3088  0.1958
11095TIP3   OH254699   6.073   5.360  17.183 -0.7212 -0.2992  0.0239
11095TIP3    H154700   6.135   5.361  17.110 -1.9791 -0.2838 -1.0774
11095TIP3    H254701   6.015   5.286  17.165 -1.0857 -0.2647  0.9865
11096TIP3   OH254702   3.258   5.381  14.877 -0.7499 -0.6152 -0.4421
11096TIP3    H154703   3.268   5.368  14.971  1.3085  1.2826 -0.3041
11096TIP3    H254704   3.212   5.465  14.870 -2.9203 -1.7990 -1.1935
11097TIP3   OH254705   1.002   4.240  15.613 -0.6301 -0.1403 -0.5074
11097TIP3    H154706   0.945   4.271  15.543  0.2157 -0.6427 -1.4272
11097TIP3    H254707   0.941   4.221  15.685 -1.2375  3.5053  0.1615
11098TIP3   OH254708   3.241   1.847  16.715  0.0011  0.3529 -0.1760
11098TIP3    H154709   3.299   1.898  16.772 -1.1571  0.7028  0.7079
11098TIP3    H254710   3.229   1.764  16.761  0.7774 -0.2151 -0.9584
11099TIP3   OH254711   2.287   5.522   4.276 -0.3697 -0.0493  0.2015
11099TIP3    H154712   2.297   5.557   4.187 -1.1185 -1.3322 -0.4077
11099TIP3    H254713   2.376   5.503   4.304 -0.2457 -1.4938 -1.0635
11100TIP3   OH254714   2.360   1.399   5.261  0.6633  0.4220 -0.1677
11100TIP3    H154715   2.355   1.350   5.343  0.1000  0.9388  0.1168
11100TIP3    H254716   2.272   1.436   5.250  1.1025  1.4409 -0.3231
11101TIP3   OH254717   0.748   4.876  15.167 -0.0402  0.0940  0.0076
11101TIP3    H154718   0.791   4.948  15.120  0.7346  0.1617  0.7840
11101TIP3    H254719   0.790   4.797  15.131  0.3756  0.1326  0.3983
11102TIP3   OH254720   1.170   3.412  11.549 -0.4377  0.3143  0.0020
11102TIP3    H154721   1.158   3.507  11.558 -0.9988  0.2891 -0.4026
11102TIP3    H254722   1.107   3.387  11.481  0.8623 -0.0928 -1.1052
11103TIP3   OH254723   1.518   3.965   5.937 -0.2864  0.2932  0.0450
11103TIP3    H154724   1.427   3.981   5.961 -0.1906  1.8265 -0.4737
11103TIP3    H254725   1.568   4.029   5.988  0.3985  0.1221 -0.4007
11104TIP3   OH254726   6.098   0.600  11.016 -0.1405 -0.0811 -0.1832
11104TIP3    H154727   6.108   0.578  10.924 -1.9019  0.6925 -0.5994
11104TIP3    H254728   6.104   0.696  11.018  0.2704 -0.1175  0.5639
11105TIP3   OH254729   4.200   2.922  10.812  0.0912 -0.2591  0.4864
11105TIP3    H154730   4.118   2.882  10.783  0.4793 -1.3428  0.8665
11105TIP3    H254731   4.255   2.923  10.733 -0.6988  1.6220 -0.0948
11106TIP3   OH254732   3.332   0.613   4.207  0.4797  0.4637 -0.2152
11106TIP3    H154733   3.361   0.648   4.291 -2.3337  0.4802  0.8598
11106TIP3    H254734   3.333   0.518   4.218  1.5559  0.3971 -0.7389
11107TIP3   OH254735   5.537   3.943  13.950 -0.2698  0.0492  0.0653
11107TIP3    H154736   5.522   3.856  13.912 -1.2038 -0.4620  1.4984
11107TIP3    H254737   5.615   3.931  14.005  0.1153  0.3625 -0.4029
11108TIP3   OH254738   3.788   2.057  13.937 -0.3583  0.1822  0.1051
11108TIP3    H154739   3.748   1.970  13.943 -0.4591  0.1687 -0.6316
11108TIP3    H254740   3.718   2.118  13.962  0.2315 -0.0168  2.4708
11109TIP3   OH254741   6.566   0.682  14.825  0.0721 -0.0722  0.9403
11109TIP3    H154742   6.646   0.641  14.790  0.1104  0.8234 -0.0465
11109TIP3    H254743   6.573   0.774  14.802 -2.1238 -0.2691 -0.8702
11110TIP3   OH254744   6.536   4.030  10.624 -0.0861 -0.1018 -1.0863
11110TIP3    H154745   6.534   4.107  10.567 -1.6235  2.6236  2.2260
11110TIP3    H254746   6.450   3.990  10.613 -0.5465  0.6790 -0.4212
11111TIP3   OH254747   3.271   4.877  13.041 -0.4277 -0.1407 -0.2697
11111TIP3    H154748   3.261   4.837  13.127 -1.5406 -0.7103 -0.6438
11111TIP3    H254749   3.231   4.964  13.051 -0.9854 -0.3856 -0.3280
11112TIP3   OH254750   4.936   1.329  14.423  0.2358  0.1988 -0.7156
11112TIP3    H154751   4.939   1.388  14.347 -0.4089 -1.6380 -2.2656
11112TIP3    H254752   4.850   1.287  14.417 -0.6541  1.3718  2.2185
11113TIP3   OH254753   3.725   2.144  15.012 -0.2661  0.4952  0.5615
11113TIP3    H154754   3.767   2.197  15.080 -0.8934  2.3047 -0.3885
11113TIP3    H254755   3.639   2.184  15.001  0.7815  2.2511 -3.2794
11114TIP3   OH254756   0.607   1.492   5.190 -0.1221  0.3264  0.2303
11114TIP3    H154757   0.605   1.497   5.286  2.2750 -1.2168  0.4414
11114TIP3    H254758   0.697   1.470   5.169 -1.2610 -2.6981 -2.1876
11115TIP3   OH254759   0.747   0.742   5.481 -0.1162  0.1555 -0.4390
11115TIP3    H154760   0.747   0.720   5.574  0.0078  2.3281  0.1170
11115TIP3    H254761   0.840   0.740   5.456 -0.1547 -0.4964 -0.5722
11116TIP3   OH254762   5.612   1.955   0.839  0.3949  0.2956 -0.5235
11116TIP3    H154763   5.562   2.022   0.793  1.9809  0.8375 -1.5411
11116TIP3    H254764   5.609   1.981   0.931 -0.1639  0.9771 -0.7276
11117TIP3   OH254765   1.909   4.384   1.549 -0.1377  0.0270  0.0570
11117TIP3    H154766   1.841   4.449   1.533  1.8532  2.1002 -0.7156
11117TIP3    H254767   1.991   4.430   1.528  1.6692 -1.7051  2.6690
11118TIP3   OH254768   2.503   2.619   5.621 -0.7982  0.0182  0.2416
11118TIP3    H154769   2.433   2.648   5.562 -1.5208  0.7662  1.4245
11118TIP3    H254770   2.575   2.679   5.603 -1.0898  0.3795  0.2429
11119TIP3   OH254771   4.792   1.510  11.970  0.3839  0.0723  0.3742
11119TIP3    H154772   4.827   1.582  11.917  0.9702  0.4673  1.2817
11119TIP3    H254773   4.698   1.510  11.950  0.5501  0.3563 -0.4829
11120TIP3   OH254774   3.296   4.775  14.632 -0.1183  0.2848 -0.1089
11120TIP3    H154775   3.351   4.776  14.710 -1.7015  0.0463  1.0619
11120TIP3    H254776   3.254   4.689  14.635  0.1636  0.0752 -1.5187
11121TIP3   OH254777   1.531   0.866  16.952 -0.1449  0.1662 -0.0968
11121TIP3    H154778   1.576   0.938  16.997  1.4074  0.1527 -1.5325
11121TIP3    H254779   1.553   0.788  17.004 -3.0192  0.7613  2.3278
11122TIP3   OH254780   6.405   0.313  16.459  1.0577 -0.6194 -0.0715
11122TIP3    H154781   6.479   0.279  16.409  1.5384 -1.9441  1.4383
11122TIP3    H254782   6.339   0.243  16.456  0.8914 -0.5103  0.6559
11123TIP3   OH254783   0.057   4.089   5.241  0.4175  0.3671 -0.2005
11123TIP3    H154784   0.032   4.022   5.177  0.0210  0.0563  0.2657
11123TIP3    H254785   0.007   4.167   5.216 -1.5469 -0.4016  1.0440
11124TIP3   OH254786   3.798   5.132  14.492 -0.0374  0.0734  0.3236
11124TIP3    H154787   3.752   5.205  14.450  0.6944  0.4668  0.1858
11124TIP3    H254788   3.766   5.132  14.582 -0.3416  0.3174  0.2163
11125TIP3   OH254789   3.559   4.808  14.389  0.4265 -0.0545  0.4218
11125TIP3    H154790   3.614   4.803  14.467  0.2527 -1.1541  0.4852
11125TIP3    H254791   3.612   4.769  14.319  0.6584  1.0994 -0.0797
11126TIP3   OH254792   5.852   2.685   2.459 -0.3071  0.0859 -0.1091
11126TIP3    H154793   5.844   2.620   2.390  1.2284 -0.3447  0.0737
11126TIP3    H254794   5.795   2.652   2.529 -0.9637 -0.0807 -0.7062
11127TIP3   OH254795   5.718   4.869  11.976 -0.3039  0.1690  0.1088
11127TIP3    H154796   5.646   4.867  11.912 -0.5712  1.5457  0.3496
11127TIP3    H254797   5.792   4.829  11.929 -0.8560 -0.0630 -0.5915
11128TIP3   OH254798   2.955   4.653  11.716  0.6445  0.0322  0.7022
11128TIP3    H154799   2.999   4.593  11.775  1.9956 -0.7687 -1.0287
11128TIP3    H254800   2.990   4.739  11.738  1.8958 -0.3873  0.4249
11129TIP3   OH254801   3.686   5.940   3.074 -0.0011  0.2427 -0.3868
11129TIP3    H154802   3.718   5.898   3.154  0.6531  0.7694 -0.3528
11129TIP3    H254803   3.766   5.966   3.027 -0.3765  0.1158 -1.1194
11130TIP3   OH254804   4.905   5.880  16.189  0.1993  0.5278  0.0799
11130TIP3    H154805   4.891   5.796  16.146 -1.3481 -0.4952  2.3861
11130TIP3    H254806   4.988   5.869  16.236  1.6097  1.4593 -2.0354
11131TIP3   OH254807   6.411   3.900  16.123  0.0310 -0.0307  0.0519
11131TIP3    H154808   6.469   3.878  16.195  0.0752  0.9468  0.3205
11131TIP3    H254809   6.469   3.907  16.047  0.1955  0.3687  0.2088
11132TIP3   OH254810   3.007   6.720  15.859  0.1955  0.2203  0.6470
11132TIP3    H154811   3.074   6.658  15.887  0.1061  0.1861  0.7886
11132TIP3    H254812   2.962   6.745  15.940 -0.7397 -0.6624  0.4227
11133TIP3   OH254813   5.085   1.407  14.626 -0.2194  0.8741 -0.3491
11133TIP3    H154814   5.031   1.389  14.548 -1.2894 -2.6999  1.0443
11133TIP3    H254815   5.038   1.478  14.671 -1.7677  0.3297 -1.0159
11134TIP3   OH254816   1.273   3.119   2.761  0.0362  0.3457  0.3886
11134TIP3    H154817   1.272   3.214   2.765  1.1581  0.4429 -0.7954
11134TIP3    H254818   1.207   3.097   2.695  0.3413  0.3591  0.0759
11135TIP3   OH254819   4.649   2.122   0.406  0.2621 -1.1890 -0.1576
11135TIP3    H154820   4.639   2.211   0.440 -2.5811 -1.1106 -0.8880
11135TIP3    H254821   4.711   2.131   0.333  1.5260 -0.2212  0.9908
11136TIP3   OH254822   3.419   4.136  10.440  0.0789  0.1365 -0.2096
11136TIP3    H154823   3.447   4.069  10.378 -2.0788 -0.8478 -0.2068
11136TIP3    H254824   3.343   4.176  10.399  0.7527  1.9506  0.2391
11137TIP3   OH254825   2.922   1.763   2.891  0.5645  0.2912  0.7500
11137TIP3    H154826   3.015   1.745   2.877  0.4091 -0.5716  0.7287
11137TIP3    H254827   2.912   1.856   2.873  1.4549  0.4255  0.9156
11138TIP3   OH254828   6.788   5.960   1.201  0.2901 -0.0263 -1.0678
11138TIP3    H154829   6.865   5.929   1.153  0.4415  0.0816 -0.8944
11138TIP3    H254830   6.746   6.022   1.141  2.0276  2.2949  0.0043
11139TIP3   OH254831   1.881   2.952  16.944  0.5871  0.6741  0.5408
11139TIP3    H154832   1.937   2.964  17.020  0.0370 -1.4505  1.3317
11139TIP3    H254833   1.939   2.917  16.876  0.3760 -0.9650  1.1751
11140TIP3   OH254834   5.368   3.543   4.463  0.0520  0.1371  0.6345
11140TIP3    H154835   5.313   3.614   4.430  0.5546 -0.2120 -1.0503
11140TIP3    H254836   5.307   3.486   4.511 -0.6401  0.8880  0.6745
11141TIP3   OH254837   3.226   0.206  10.909  0.3674 -0.2266  0.4399
11141TIP3    H154838   3.252   0.133  10.853  0.9125  0.5038 -0.2689
11141TIP3    H254839   3.306   0.235  10.951  0.1980  0.1008  0.5455
11142TIP3   OH254840   1.012   0.724   2.378  0.4842 -0.5020 -0.5922
11142TIP3    H154841   1.017   0.802   2.433  1.4457 -1.4444  0.7297
11142TIP3    H254842   0.932   0.735   2.327 -0.1443  0.6738  0.6119
11143TIP3   OH254843   5.449   2.874  13.356 -0.2429  0.4936  0.6035
11143TIP3    H154844   5.436   2.967  13.374  0.5950  0.6641  0.3701
11143TIP3    H254845   5.367   2.833  13.383 -0.9732  1.4120 -0.1385
11144TIP3   OH254846   0.616   1.917   5.435  0.9938 -0.4182  0.8444
11144TIP3    H154847   0.700   1.877   5.456  0.8826 -0.7126  0.7405
11144TIP3    H254848   0.630   1.959   5.350  1.1066 -0.2487  0.9458
11145TIP3   OH254849   3.542   0.201   0.107  0.0398  0.4634 -0.5704
11145TIP3    H154850   3.513   0.203   0.198 -0.7523  0.8926 -0.8186
11145TIP3    H254851   3.629   0.163   0.111  0.2969  1.1101  0.4474
11146TIP3   OH254852   1.797   2.158  13.802  0.4353  0.9536 -0.9456
11146TIP3    H154853   1.857   2.093  13.765 -0.6819  0.4095 -1.8195
11146TIP3    H254854   1.742   2.185  13.729  0.1677  2.0933 -0.3418
11147TIP3   OH254855   5.563   1.582   2.277 -0.4796  0.3616 -0.1271
11147TIP3    H154856   5.531   1.616   2.194 -0.7605 -1.3377 -0.7466
11147TIP3    H254857   5.576   1.489   2.262  4.6161  0.7614  0.1098
11148TIP3   OH254858   2.860   5.741  13.998  0.6004  0.0201  0.4229
11148TIP3    H154859   2.956   5.749  13.992  0.6200 -0.6613 -0.3779
11148TIP3    H254860   2.836   5.801  14.068  1.4978  1.0739 -0.1278
11149TIP3   OH254861   0.700   0.088  14.358 -0.3329  0.1755  0.0921
11149TIP3    H154862   0.734   0.170  14.323  0.2500 -0.1174 -0.0313
11149TIP3    H254863   0.777   0.034  14.372 -0.8360 -1.2948 -2.1857
11150TIP3   OH254864   5.127   3.484   0.716 -0.1292  0.3222 -0.5156
11150TIP3    H154865   5.178   3.403   0.718 -0.7036 -0.0398 -0.2515
11150TIP3    H254866   5.148   3.524   0.631 -1.4891 -1.1969 -1.6264
11151TIP3   OH254867   2.809   5.586   2.670 -0.1686 -0.2541 -0.5735
11151TIP3    H154868   2.891   5.605   2.624 -0.3158 -0.4501 -0.9240
11151TIP3    H254869   2.828   5.509   2.723  0.3218  0.6213  0.5582
11152TIP3   OH254870   4.546   4.714  13.951 -0.2980 -0.0933 -0.3690
11152TIP3    H154871   4.628   4.731  13.998 -0.8454  0.6554  0.3374
11152TIP3    H254872   4.540   4.619  13.947 -0.5416 -0.2158  1.6727
11153TIP3   OH254873   2.198   2.454  12.566  0.3300  0.4624  0.3185
11153TIP3    H154874   2.198   2.539  12.522 -0.5225 -0.1307 -0.9057
11153TIP3    H254875   2.114   2.415  12.541  1.4069 -1.4187 -0.5512
11154TIP3   OH254876   0.090   5.571  12.912 -0.2113 -0.2198  0.1723
11154TIP3    H154877   0.124   5.617  12.835 -1.7299  0.7988  0.0666
11154TIP3    H254878   0.061   5.641  12.971  0.0890 -1.0041  1.2891
11155TIP3   OH254879   6.452   4.579   4.087  0.1108 -0.1490  0.2533
11155TIP3    H154880   6.391   4.520   4.130  0.1697 -0.6154 -0.2910
11155TIP3    H254881   6.499   4.524   4.025 -0.2735  0.5702 -0.7127
11156TIP3   OH254882   5.306   4.397   0.049 -0.4472  0.0527 -0.4621
11156TIP3    H154883   5.250   4.327   0.016  1.3189 -1.6817  0.0462
11156TIP3    H254884   5.292   4.469  -0.012 -1.7850 -0.9771 -1.4300
11157TIP3   OH254885   3.012   1.973   0.126 -0.1906  0.3441  0.1516
11157TIP3    H154886   2.925   1.934   0.137  0.2237 -0.9535 -0.8111
11157TIP3    H254887   3.068   1.925   0.187  0.1810 -0.0575 -0.4922
11158TIP3   OH254888   2.819   1.356  11.582  0.1262 -0.6736  0.6556
11158TIP3    H154889   2.750   1.415  11.553  0.4029 -0.2996  0.7488
11158TIP3    H254890   2.784   1.315  11.661 -0.2216 -0.9276  0.3716
11159TIP3   OH254891   1.907   1.426   0.635  0.3116 -0.2218  0.2816
11159TIP3    H154892   1.964   1.350   0.642  0.0663 -0.4017  0.3582
11159TIP3    H254893   1.945   1.491   0.693  0.3870 -0.3737  0.4008
11160TIP3   OH254894   5.935   4.166  13.601  0.1352 -0.2671  0.5651
11160TIP3    H154895   5.924   4.261  13.592 -0.5189 -0.4714 -1.3428
11160TIP3    H254896   6.011   4.146  13.546 -1.1104 -1.0723 -0.9685
11161TIP3   OH254897   6.347   3.771  14.370  0.1614  0.6078 -0.5144
11161TIP3    H154898   6.285   3.818  14.425 -0.3024 -1.6530  1.0431
11161TIP3    H254899   6.323   3.796  14.281 -0.2787  2.9378  0.1784
11162TIP3   OH254900   2.017   4.257   0.310  0.5935  0.1295 -0.1967
11162TIP3    H154901   2.066   4.192   0.360 -1.0751 -1.4365 -0.4998
11162TIP3    H254902   2.029   4.231   0.219  1.2226  1.2318 -0.4423
11163TIP3   OH254903   6.138   6.121  16.714 -0.5055  0.3339  0.1634
11163TIP3    H154904   6.132   6.188  16.782 -0.6059 -0.7424  1.2466
11163TIP3    H254905   6.047   6.103  16.690 -0.6656 -1.2804  1.7953
11164TIP3   OH254906   6.056   3.399   1.345  0.2630  0.1593  0.1646
11164TIP3    H154907   6.083   3.481   1.386 -0.5560  0.6913 -0.3485
11164TIP3    H254908   6.015   3.349   1.416 -0.2493  0.6612  0.2218
11165TIP3   OH254909   0.361   4.387  15.135 -0.2473  0.3267 -0.4694
11165TIP3    H154910   0.352   4.399  15.041  0.9732  2.6021 -0.3973
11165TIP3    H254911   0.274   4.406  15.171 -1.3044 -2.6684 -1.1866
11166TIP3   OH254912   5.082   0.188   2.922  0.1073 -0.0524  0.5208
11166TIP3    H154913   5.150   0.123   2.943 -0.9120 -0.4294  3.0334
11166TIP3    H254914   5.003   0.137   2.907  0.2048  0.4114 -1.9870
11167TIP3   OH254915   0.818   0.679   3.231  0.2191  0.2569  0.5029
11167TIP3    H154916   0.872   0.620   3.284  0.2284 -1.0214 -0.8574
11167TIP3    H254917   0.874   0.699   3.156 -0.0245  1.5291  0.6549
11168TIP3   OH254918   5.112   1.728   1.125 -0.4815  0.1485  0.4709
11168TIP3    H154919   5.123   1.811   1.172 -1.0532 -0.0412  0.9639
11168TIP3    H254920   5.078   1.667   1.192  1.9588 -1.0955  0.6748
11169TIP3   OH254921   1.473   4.280  11.765  0.4249  0.8891  0.6877
11169TIP3    H154922   1.550   4.245  11.810  0.7048  2.0579  1.1684
11169TIP3    H254923   1.427   4.331  11.832 -0.5823  0.5191  0.3088
11170TIP3   OH254924   1.580   4.248   6.326 -0.0887 -0.1432 -0.3806
11170TIP3    H154925   1.637   4.171   6.334  0.7602  0.5252  0.1705
11170TIP3    H254926   1.640   4.322   6.322 -0.9056  0.5215 -0.6353
11171TIP3   OH254927   4.137   1.309  12.858  0.5098 -0.4025  0.3737
11171TIP3    H154928   4.177   1.224  12.838  0.1203 -0.6404  0.5779
11171TIP3    H254929   4.211   1.366  12.881  0.6648 -1.1510  1.9045
11172TIP3   OH254930   5.570   3.183  15.964  0.2603 -0.7599  0.2676
11172TIP3    H154931   5.524   3.158  16.043  0.7293  0.1693  0.8474
11172TIP3    H254932   5.607   3.270  15.983  0.5307 -0.5967 -0.8937
11173TIP3   OH254933   5.630   5.980   4.160  0.0668 -0.5216  0.3582
11173TIP3    H154934   5.669   6.055   4.204  1.0473 -2.0363  2.2267
11173TIP3    H254935   5.704   5.930   4.126 -0.3568 -1.8625  1.2879
11174TIP3   OH254936   6.683   1.852   1.615  0.2355  0.8069  0.3710
11174TIP3    H154937   6.645   1.937   1.638  1.9385  2.0489 -1.1251
11174TIP3    H254938   6.675   1.800   1.695 -0.6343  2.4415  1.4089
11175TIP3   OH254939   3.256   6.182  12.843  0.3616 -0.2432  0.7781
11175TIP3    H154940   3.297   6.264  12.867 -0.3349  0.2553  0.3055
11175TIP3    H254941   3.166   6.188  12.876  0.0279 -0.4210 -0.0503
11176TIP3   OH254942   1.714   2.983  14.798  0.1695  0.9427  0.3681
11176TIP3    H154943   1.792   2.932  14.820 -0.1473  0.9314  1.5361
11176TIP3    H254944   1.738   3.031  14.719  0.9146 -0.0362 -0.0222
11177TIP3   OH254945   5.402   0.792   6.022  0.5913  0.1363 -0.5429
11177TIP3    H154946   5.350   0.855   6.073  1.2980  0.6156 -0.3979
11177TIP3    H254947   5.426   0.724   6.085  2.2456  1.1914  0.0482
11178TIP3   OH254948   2.860   6.732  13.964 -0.4334 -0.3918 -0.3977
11178TIP3    H154949   2.793   6.750  14.030 -0.4144  1.3600 -0.8065
11178TIP3    H254950   2.939   6.775  13.998  0.8283 -3.2392  0.5532
11179TIP3   OH254951   6.399   2.378   5.383  0.1940 -0.8100  0.4320
11179TIP3    H154952   6.334   2.449   5.388  0.9259 -0.1911  1.6870
11179TIP3    H254953   6.482   2.421   5.399  0.7631 -1.8298  0.2893
11180TIP3   OH254954   0.637   3.880   3.215 -0.4042 -0.4601 -0.2978
11180TIP3    H154955   0.543   3.892   3.205 -0.3412 -0.7264 -1.3541
11180TIP3    H254956   0.649   3.860   3.307 -1.3163  0.1546 -0.0329
11181TIP3   OH254957   1.368   5.018  13.132  0.3852  0.2879  0.1725
11181TIP3    H154958   1.297   4.987  13.076 -0.5824  0.4230  1.2777
11181TIP3    H254959   1.418   4.940  13.154  0.6853  0.2111 -0.7296
11182TIP3   OH254960   5.884   4.828   5.539 -0.7159  0.3398 -0.6173
11182TIP3    H154961   5.910   4.830   5.447  0.0565  0.7412 -0.4029
11182TIP3    H254962   5.915   4.743   5.571 -0.5434  0.4012 -0.6152
11183TIP3   OH254963   0.942   6.364   3.635  0.1210 -0.1876 -0.0931
11183TIP3    H154964   0.997   6.363   3.713 -0.7761 -0.1294  0.5550
11183TIP3    H254965   0.918   6.456   3.624  1.0193 -0.0461 -1.0099
11184TIP3   OH254966   5.043   5.451  14.120  0.1643  0.5192 -0.2813
11184TIP3    H154967   5.006   5.537  14.102 -2.1061 -0.4630 -0.6293
11184TIP3    H254968   5.001   5.393  14.057  2.2353 -0.7600 -0.5950
11185TIP3   OH254969   5.472   5.262  14.694 -0.4010  0.2838  0.1911
11185TIP3    H154970   5.432   5.269  14.781 -0.2153  0.6586  0.2460
11185TIP3    H254971   5.532   5.336  14.689  0.5463 -0.4577  0.2390
11186TIP3   OH254972   2.799   5.976  16.639  0.1473  0.0779 -0.0796
11186TIP3    H154973   2.880   5.993  16.687 -0.6014  0.2266  1.1864
11186TIP3    H254974   2.793   5.881  16.635  1.5476  0.0219 -2.2832
11187TIP3   OH254975   2.195   2.859  15.466  0.3990 -0.2089 -0.1353
11187TIP3    H154976   2.260   2.804  15.509  0.1338  0.6756  1.4811
11187TIP3    H254977   2.142   2.894  15.537 -0.2436  1.1236 -1.2199
11188TIP3   OH254978   1.213   1.615   1.516 -0.2054  0.3979 -0.1437
11188TIP3    H154979   1.186   1.550   1.450  1.5958 -1.9414  1.2536
11188TIP3    H254980   1.158   1.596   1.592 -1.1735  2.0266 -0.3929
11189TIP3   OH254981   0.786   5.024   0.548 -0.1502  0.3201  0.5525
11189TIP3    H154982   0.815   5.036   0.639 -0.2063 -2.3377  1.0052
11189TIP3    H254983   0.696   4.992   0.556 -1.2944  2.9163 -0.6289
11190TIP3   OH254984   2.627   2.178   3.211 -0.0332 -0.3761  0.3907
11190TIP3    H154985   2.699   2.226   3.169  0.4520 -0.0275  1.5712
11190TIP3    H254986   2.569   2.246   3.244 -1.1305 -0.6538 -0.8486
11191TIP3   OH254987   0.003   0.317   2.276  0.3012  0.3719  0.5684
11191TIP3    H154988  -0.068   0.362   2.230 -0.3005 -1.7121 -0.6200
11191TIP3    H254989   0.081   0.370   2.258 -0.5172  1.3802 -0.0860
11192TIP3   OH254990   6.789   3.283  16.845 -0.2154  0.0750 -0.4267
11192TIP3    H154991   6.824   3.196  16.863  0.7776  0.2550 -1.3916
11192TIP3    H254992   6.735   3.272  16.767  1.0302  0.5512 -1.3920
11193TIP3   OH254993   5.084   2.330  13.547  0.5194  0.4609  0.3471
11193TIP3    H154994   5.130   2.414  13.545  0.5870  0.5243  2.3667
11193TIP3    H254995   4.999   2.350  13.585  0.6085 -0.3831  1.0394
11194TIP3   OH254996   5.567   3.258  11.206 -0.1794 -0.3389  0.0651
11194TIP3    H154997   5.581   3.238  11.298 -0.4924 -2.0331 -0.2137
11194TIP3    H254998   5.472   3.250  11.194 -0.3456  1.4826 -0.0827
11195TIP3   OH254999   5.452   4.642   5.767 -0.6126  0.1916  0.3138
11195TIP3    H155000   5.496   4.687   5.839  1.0312 -0.8271  0.0123
11195TIP3    H255001   5.376   4.601   5.807  0.5005 -0.7083  1.6035
11196TIP3   OH255002   0.510   3.175  12.786 -0.5708  0.5299  0.2697
11196TIP3    H155003   0.546   3.145  12.702 -0.9006  1.3570 -0.1825
11196TIP3    H255004   0.587   3.193  12.840 -0.3580 -0.1439  0.2029
11197TIP3   OH255005   1.850   1.259  10.696 -0.3587 -0.2747  0.1537
11197TIP3    H155006   1.802   1.280  10.776  0.1094 -0.5998  0.5321
11197TIP3    H255007   1.933   1.306  10.705  0.4395 -1.7032  0.7192
11198TIP3   OH255008   6.315   0.447   1.227 -0.6730  0.4132 -0.4927
11198TIP3    H155009   6.361   0.388   1.167 -2.2913 -0.3142 -1.0738
11198TIP3    H255010   6.368   0.447   1.307  0.6836  0.1623 -1.3774
11199TIP3   OH255011   2.139   5.199  15.301 -0.3830 -0.0746 -0.0926
11199TIP3    H155012   2.096   5.122  15.264 -0.4861 -0.7824  1.4040
11199TIP3    H255013   2.203   5.162  15.362  0.0581  1.0315  0.1257
11200TIP3   OH255014   4.421   5.280   3.428 -0.3215  0.0111  0.5188
11200TIP3    H155015   4.483   5.353   3.434  1.8429 -1.7163  0.7800
11200TIP3    H255016   4.355   5.309   3.366  2.0387  1.1642 -1.6622
11201TIP3   OH255017   2.718   4.195   3.677 -0.0207 -0.1563 -0.0003
11201TIP3    H155018   2.661   4.222   3.604  1.1063 -0.4697 -1.0276
11201TIP3    H255019   2.664   4.207   3.755 -1.0408  0.8430 -0.8192
11202TIP3   OH255020   0.091   3.254   0.889  0.0133 -0.0288  0.3602
11202TIP3    H155021   0.100   3.342   0.850 -0.8104 -0.9437 -2.1174
11202TIP3    H255022   0.029   3.266   0.961 -0.3895  1.3826 -0.1759
11203TIP3   OH255023   5.188   5.857   2.205 -0.4138 -0.2512  0.5443
11203TIP3    H155024   5.204   5.793   2.136  0.9941  0.7157 -0.0580
11203TIP3    H255025   5.275   5.889   2.230 -1.0811  1.7423  0.5214
11204TIP3   OH255026   2.673   3.820  13.588 -0.6173 -0.1733 -0.7080
11204TIP3    H155027   2.598   3.796  13.642 -0.0978 -1.7359 -0.6539
11204TIP3    H255028   2.749   3.807  13.645 -0.1190 -1.1164 -1.5700
11205TIP3   OH255029   3.100   4.786  10.840  0.6049 -0.1012 -1.1712
11205TIP3    H155030   3.063   4.698  10.837 -1.6975  0.7210  0.2465
11205TIP3    H255031   3.026   4.842  10.861  1.9224  2.2555 -2.4139
11206TIP3   OH255032   3.463   2.425  16.288 -0.2339 -0.0978  0.3242
11206TIP3    H155033   3.402   2.465  16.350 -0.9439  0.4808 -0.7190
11206TIP3    H255034   3.415   2.350  16.252  0.3932 -0.7842  0.8880
11207TIP3   OH255035   5.637   6.575  11.528 -0.6005 -0.6495  0.7760
11207TIP3    H155036   5.645   6.491  11.484 -2.2017 -0.6129  0.3528
11207TIP3    H255037   5.647   6.554  11.621 -0.7979 -1.2751  0.6607
11208TIP3   OH255038   0.608   1.089  13.547  0.0381 -0.5066 -0.3131
11208TIP3    H155039   0.534   1.044  13.588  1.1984 -1.7662  0.4647
11208TIP3    H255040   0.658   1.019  13.505  1.9745 -0.0020  1.0532
11209TIP3   OH255041   4.394   2.680  12.375 -0.1280 -0.4706 -0.0067
11209TIP3    H155042   4.367   2.754  12.429  1.1978 -0.5145  0.7623
11209TIP3    H255043   4.468   2.714  12.324 -0.5504 -0.8044 -0.8572
11210TIP3   OH255044   0.077   6.602   2.679 -0.2295  0.2507 -0.2194
11210TIP3    H155045   0.036   6.515   2.684  1.1790 -0.3963  0.8566
11210TIP3    H255046   0.004   6.662   2.666 -1.0708 -1.2466 -3.2428
11211TIP3   OH255047   4.720   4.199  16.099 -0.4777  0.3642 -0.4077
11211TIP3    H155048   4.641   4.146  16.088 -0.8493  0.7525  0.3127
11211TIP3    H255049   4.721   4.222  16.192  0.4097  0.4877 -0.4321
11212TIP3   OH255050   0.958   5.044  11.287 -0.1600  0.1230 -0.4058
11212TIP3    H155051   0.978   5.057  11.379  0.3493 -0.1321 -0.4729
11212TIP3    H255052   1.044   5.034  11.245 -0.3924  0.0319 -0.8708
11213TIP3   OH255053   1.338   5.066  16.782 -0.4550  0.5160  0.1598
11213TIP3    H155054   1.337   4.994  16.845  2.2042 -0.2529 -0.5348
11213TIP3    H255055   1.366   5.026  16.700 -0.4436  2.0855 -0.6326
11214TIP3   OH255056   1.131   5.317   4.559  0.5106  0.1903  0.0604
11214TIP3    H155057   1.114   5.343   4.649  1.0385 -1.1097  0.5713
11214TIP3    H255058   1.170   5.230   4.567  3.1759  1.1620 -1.2666
11215TIP3   OH255059   6.266   6.253   4.084 -0.5971 -0.1983 -0.3160
11215TIP3    H155060   6.255   6.208   4.000 -0.8064 -0.3027 -0.2335
11215TIP3    H255061   6.314   6.190   4.138 -0.2163 -0.0207 -0.4482
11216TIP3   OH255062   4.295   5.903  11.859 -0.1859 -0.5295 -0.1044
11216TIP3    H155063   4.354   5.947  11.797  0.6844 -1.2600  0.1754
11216TIP3    H255064   4.287   5.964  11.932 -0.4351 -0.0761 -0.5069
11217TIP3   OH255065   3.263   4.907   4.355  0.2683 -0.5458  0.0791
11217TIP3    H155066   3.270   4.832   4.295 -2.7120 -1.6564  0.9450
11217TIP3    H255067   3.222   4.976   4.303 -0.6566 -0.9043  0.3104
11218TIP3   OH255068   6.283   0.594  12.692  0.3029  0.6851 -0.3673
11218TIP3    H155069   6.288   0.672  12.638  1.9463 -1.1960 -3.1593
11218TIP3    H255070   6.358   0.600  12.751 -0.0354  1.5456 -0.0169
11219TIP3   OH255071   4.360   4.518   2.612 -0.1769 -0.1524 -0.1565
11219TIP3    H155072   4.290   4.575   2.645  0.7032  2.6719 -2.6298
11219TIP3    H255073   4.315   4.454   2.557 -0.9814  0.4069 -0.1704
11220TIP3   OH255074   4.356   1.849   5.477 -0.1485 -0.1305  0.5351
11220TIP3    H155075   4.297   1.775   5.462 -1.5317  0.8090  1.1331
11220TIP3    H255076   4.322   1.918   5.420  1.6758 -0.1836 -0.7201
11221TIP3   OH255077   5.604   3.903   2.135 -0.5648  0.4396  0.4518
11221TIP3    H155078   5.642   3.830   2.183 -2.3876 -0.1834  1.0547
11221TIP3    H255079   5.647   3.901   2.050 -0.4730 -1.2610  0.5047
11222TIP3   OH255080   3.334   6.199  12.566 -0.6243 -0.1948 -0.2247
11222TIP3    H155081   3.291   6.176  12.648  0.4336  0.5403  0.5497
11222TIP3    H255082   3.338   6.294  12.566  1.4794 -0.2434  0.0038
11223TIP3   OH255083   5.066   4.563   0.122  0.1559 -0.3515  0.1376
11223TIP3    H155084   5.089   4.654   0.144  1.0950 -0.2563 -1.1273
11223TIP3    H255085   5.150   4.517   0.124  0.1092 -0.5887 -1.9391
11224TIP3   OH255086   3.787   2.364   2.205  0.8600  0.2412  0.1058
11224TIP3    H155087   3.729   2.387   2.277  1.0055  0.3787  0.1792
11224TIP3    H255088   3.780   2.437   2.144  0.1637 -0.2163 -0.3746
11225TIP3   OH255089   2.059   6.103   0.480  0.5215 -0.0731  0.0677
11225TIP3    H155090   2.023   6.164   0.544  0.9107  0.6170 -0.3620
11225TIP3    H255091   1.999   6.029   0.481  0.2047  0.1837  0.8091
11226TIP3   OH255092   0.382   3.014   4.059 -0.3299 -0.0350 -0.3598
11226TIP3    H155093   0.358   3.011   4.151 -1.6591 -0.0961 -0.6995
11226TIP3    H255094   0.423   2.929   4.042 -1.8396 -0.8033 -0.2830
11227TIP3   OH255095   5.634   0.084  12.521  0.2116 -0.2496  0.3076
11227TIP3    H155096   5.677   0.147  12.462 -1.7821 -0.0511 -1.0441
11227TIP3    H255097   5.704   0.023  12.546  1.3871  0.2712 -1.4712
11228TIP3   OH255098   2.827   6.183   2.380  0.2521  0.3329 -0.4902
11228TIP3    H155099   2.833   6.276   2.399  1.2375  0.3655 -0.8911
11228TIP3    H255100   2.739   6.170   2.345 -0.7167  0.7002  1.6861
11229TIP3   OH255101   0.927   0.042  14.664 -0.2870  0.1519  0.4524
11229TIP3    H155102   0.929   0.045  14.760 -1.5672  0.5596  0.4887
11229TIP3    H255103   0.915  -0.051  14.644  0.6482 -0.0167  0.6631
11230TIP3   OH255104   4.373   4.595  13.523  0.0433 -0.1233  0.1130
11230TIP3    H155105   4.439   4.570  13.587  2.3101 -1.3890 -2.5343
11230TIP3    H255106   4.324   4.515  13.506 -0.4338  0.1659  0.1017
11231TIP3   OH255107   6.144   3.951   0.575  0.3170  0.1133  0.0764
11231TIP3    H155108   6.143   3.950   0.671 -0.3702  3.7986  0.2545
11231TIP3    H255109   6.056   3.921   0.551 -0.0444  0.6160  0.7071
11232TIP3   OH255110   3.242   3.398   5.340 -0.8019 -0.0701 -0.0968
11232TIP3    H155111   3.178   3.326   5.337  0.9979 -1.7295 -1.0027
11232TIP3    H255112   3.271   3.407   5.249  0.1624  0.7325  0.2809
11233TIP3   OH255113   3.288   6.280  14.899 -0.6368  0.4945  0.0753
11233TIP3    H155114   3.312   6.188  14.907  0.4290  0.7365 -0.2384
11233TIP3    H255115   3.274   6.309  14.989 -2.9435 -0.4517  0.0811
11234TIP3   OH255116   0.103   0.530   1.914 -0.4738  0.0656  0.1483
11234TIP3    H155117   0.028   0.470   1.907 -0.1722 -0.2903 -0.0254
11234TIP3    H255118   0.163   0.488   1.975  0.1460 -0.2441 -0.6613
11235TIP3   OH255119   0.963   3.437   0.459  0.5034  0.6228  0.1868
11235TIP3    H155120   0.963   3.446   0.363  1.8956 -1.8732 -0.1151
11235TIP3    H255121   1.055   3.429   0.482  0.0867 -0.7195  1.4996
11236TIP3   OH255122   3.268   2.516  12.525 -0.3376 -0.3646  0.0765
11236TIP3    H155123   3.313   2.437  12.554  0.2074 -0.6179 -1.3588
11236TIP3    H255124   3.290   2.523  12.432 -0.1481  1.6260  0.2257
11237TIP3   OH255125   3.974   0.719   6.723  0.0641  0.9505 -0.5945
11237TIP3    H155126   4.000   0.653   6.659 -0.0385 -0.2592  0.5467
11237TIP3    H255127   3.879   0.714   6.725  0.0579 -1.9939  2.4270
11238TIP3   OH255128   0.403   3.181  16.428  0.3285 -0.2306  0.3538
11238TIP3    H155129   0.339   3.162  16.496 -1.6651  0.6896 -1.1556
11238TIP3    H255130   0.399   3.276  16.418 -0.3206 -0.4366 -1.8059
11239TIP3   OH255131   2.708   2.112  15.731 -0.1294 -0.2647 -0.2941
11239TIP3    H155132   2.733   2.043  15.669 -1.3592 -0.5399 -0.5256
11239TIP3    H255133   2.636   2.074  15.781 -0.3192  0.5862  0.0991
11240TIP3   OH255134   6.201   0.342  14.930 -0.1284  0.0467 -0.3176
11240TIP3    H155135   6.287   0.380  14.942 -0.5134  0.4280  1.6039
11240TIP3    H255136   6.149   0.411  14.888  0.6439 -0.4575 -2.2259
11241TIP3   OH255137   6.333   4.283   4.927  0.1730 -0.6558 -0.4912
11241TIP3    H155138   6.238   4.287   4.918  0.0573 -0.8404  0.5167
11241TIP3    H255139   6.367   4.304   4.840 -0.7768  0.2816 -0.6522
11242TIP3   OH255140   1.298   1.768   5.761 -0.4707  0.8358  0.8699
11242TIP3    H155141   1.271   1.858   5.744 -0.6723  0.3112 -2.2436
11242TIP3    H255142   1.219   1.723   5.789 -1.4128  0.7983 -1.6142
11243TIP3   OH255143   3.781   6.705   2.851  0.3232  0.4332  0.1254
11243TIP3    H155144   3.732   6.780   2.818  1.2270  0.4585 -1.2308
11243TIP3    H255145   3.820   6.666   2.773  1.5847 -0.2034  1.0523
11244TIP3   OH255146   4.042   5.838  16.862  0.0486 -0.0154  0.2155
11244TIP3    H155147   3.955   5.800  16.866  0.1233 -0.1494  0.5394
11244TIP3    H255148   4.038   5.916  16.918 -0.1228  0.5008 -0.4955
11245TIP3   OH255149   5.937   4.346   2.409  0.2085  0.3104 -0.6634
11245TIP3    H155150   6.024   4.338   2.370 -0.3574  1.3763 -2.2476
11245TIP3    H255151   5.901   4.427   2.372 -1.4211 -0.0439  0.0328
11246TIP3   OH255152   1.588   0.485   2.601  0.6693  0.1093  0.0337
11246TIP3    H155153   1.558   0.494   2.510  0.0738 -0.4863  0.1633
11246TIP3    H255154   1.683   0.481   2.594  0.5836 -1.7573 -0.7570
11247TIP3   OH255155   5.308   6.528  13.510  0.2443  0.0342  0.1202
11247TIP3    H155156   5.254   6.573  13.575  0.3672 -0.1857  0.3787
11247TIP3    H255157   5.346   6.598  13.457 -0.6748  0.1794 -0.3824
11248TIP3   OH255158   3.400   0.796  11.542  0.8928  0.5217 -0.0700
11248TIP3    H155159   3.409   0.844  11.460 -1.7015  2.2547  0.5504
11248TIP3    H255160   3.397   0.863  11.609  0.3120 -0.6883  1.1663
11249TIP3   OH255161   4.579   2.927  12.694  0.6831  0.1296 -0.1607
11249TIP3    H155162   4.668   2.919  12.726  1.6077 -0.1727 -2.5913
11249TIP3    H255163   4.543   2.839  12.701  0.5855  0.2227  0.6842
11250TIP3   OH255164   5.912   5.771  17.074  0.5543  0.0387 -0.2934
11250TIP3    H155165   5.993   5.779  17.023  0.8617  2.7820  0.4897
11250TIP3    H255166   5.845   5.752  17.008  1.4131  0.3999 -1.3044
11251TIP3   OH255167   2.420   0.715  14.453  0.0169  0.6034  0.6688
11251TIP3    H155168   2.353   0.741  14.516 -0.6493  3.0236 -0.9234
11251TIP3    H255169   2.500   0.760  14.482  0.0331  0.6729  0.5188
11252TIP3   OH255170   4.336   0.471  10.947  0.2448  0.0201  0.0399
11252TIP3    H155171   4.308   0.471  10.856 -0.3369 -2.2390  0.1520
11252TIP3    H255172   4.421   0.426  10.946  1.1882  1.7055  0.4150
11253TIP3   OH255173   3.749   1.753   6.387 -0.6621 -0.1822 -0.3570
11253TIP3    H155174   3.671   1.756   6.332 -1.5432 -0.1364  0.8401
11253TIP3    H255175   3.750   1.663   6.422 -0.3734 -0.0810 -0.0985
11254TIP3   OH255176   2.859   6.432  12.321 -0.2099 -0.4812 -0.4428
11254TIP3    H155177   2.940   6.482  12.312 -0.0124 -0.6309  0.4119
11254TIP3    H255178   2.790   6.498  12.327  0.2959 -0.0750  3.6075
11255TIP3   OH255179   5.557   6.353  12.454 -0.0094 -0.4973 -0.3205
11255TIP3    H155180   5.620   6.417  12.488 -1.0495 -0.2145  1.1285
11255TIP3    H255181   5.611   6.292  12.404  1.5425 -0.6080  1.3848
11256TIP3   OH255182   4.923   6.726   2.232 -0.1861 -0.4361  1.3117
11256TIP3    H155183   5.019   6.735   2.236  0.1355 -2.9937  0.8670
11256TIP3    H255184   4.894   6.804   2.185  1.6477  0.4947  1.6147
11257TIP3   OH255185   0.160   4.543  17.161  0.0145  0.4757 -0.7579
11257TIP3    H155186   0.113   4.560  17.243  0.9006  1.5324 -0.4554
11257TIP3    H255187   0.241   4.500  17.189 -0.3660 -0.5650 -1.2128
11258TIP3   OH255188   0.828   0.858  13.187  0.0487  0.1633  0.4666
11258TIP3    H155189   0.892   0.813  13.241 -2.5883 -1.0324  2.8483
11258TIP3    H255190   0.832   0.949  13.216  0.0406 -0.0843  1.2545
11259TIP3   OH255191   0.627   0.487   1.176 -0.0982 -0.3114 -0.4560
11259TIP3    H155192   0.542   0.527   1.194  0.6879  0.4072  1.9523
11259TIP3    H255193   0.619   0.453   1.087 -2.4996  0.7576 -0.7109
11260TIP3   OH255194   4.143   2.780   1.432  0.1928  0.4507 -0.8347
11260TIP3    H155195   4.225   2.783   1.384  0.5306  0.2099 -0.2884
11260TIP3    H255196   4.168   2.795   1.523 -0.2088 -0.8106 -0.4954
11261TIP3   OH255197   5.487   0.801  17.018  0.6205 -0.3274  0.9776
11261TIP3    H155198   5.518   0.872  16.961  1.3431 -1.3459  0.0716
11261TIP3    H255199   5.565   0.772  17.065  0.1604  0.0340  1.9898
11262TIP3   OH255200   5.218   6.225   2.407  0.4824  0.3290 -0.4274
11262TIP3    H155201   5.123   6.222   2.405  0.4419 -0.6047  0.9668
11262TIP3    H255202   5.243   6.153   2.466  2.0293  0.7808 -0.4750
11263TIP3   OH255203   5.319   0.167  15.503 -0.5911  0.8602  0.1654
11263TIP3    H155204   5.305   0.239  15.563  1.4589  0.3070  1.4017
11263TIP3    H255205   5.366   0.101  15.554 -2.0487 -1.2266 -1.0120
11264TIP3   OH255206   3.126   4.654   0.273  0.3362  0.1430 -1.5883
11264TIP3    H155207   3.050   4.708   0.250 -0.3710 -0.0121  0.1938
11264TIP3    H255208   3.169   4.702   0.344 -0.6160 -1.7888  0.4168
11265TIP3   OH255209   3.883   2.911   4.961 -0.0922  0.3777 -0.6525
11265TIP3    H155210   3.796   2.939   4.932 -1.1735 -1.3553  0.6942
11265TIP3    H255211   3.941   2.929   4.887 -1.7922  0.6445 -1.9639
11266TIP3   OH255212   2.797   2.299  12.186 -0.5116  0.6601  1.0612
11266TIP3    H155213   2.835   2.227  12.236  0.7586  2.0349  2.1809
11266TIP3    H255214   2.766   2.361  12.252 -0.2008  1.8074  0.1654
11267TIP3   OH255215   5.424   2.072  11.614 -0.3484  0.9039 -0.1346
11267TIP3    H155216   5.356   2.074  11.547 -0.6667 -0.1897  0.1381
11267TIP3    H255217   5.482   2.144  11.591  0.0721  0.0002 -2.1358
11268TIP3   OH255218   0.900   6.098  12.243 -0.3682  0.3481 -0.2887
11268TIP3    H155219   0.885   6.014  12.288  0.7162 -0.4999 -1.4342
11268TIP3    H255220   0.838   6.097  12.170  0.4156 -0.0165 -0.9756
11269TIP3   OH255221   3.726   4.494  14.612  0.2586  0.1366 -0.1048
11269TIP3    H155222   3.694   4.427  14.551  1.0483 -0.3271 -0.0165
11269TIP3    H255223   3.666   4.489  14.687 -1.5991  1.6683 -1.3820
11270TIP3   OH255224   5.868   5.524   3.597  0.3795 -0.8446 -0.3322
11270TIP3    H155225   5.812   5.455   3.560 -1.4811  0.5312 -0.2087
11270TIP3    H255226   5.878   5.500   3.689 -0.2663 -0.9785 -0.2865
11271TIP3   OH255227   3.249   5.031  11.016 -0.8763  0.3755  0.0305
11271TIP3    H155228   3.261   5.087  11.093 -0.6994  0.9085 -0.3820
11271TIP3    H255229   3.261   5.090  10.942 -4.7676  0.7924 -0.4693
11272TIP3   OH255230   0.099   0.082  15.154  0.7405 -0.0409 -0.1830
11272TIP3    H155231   0.100   0.157  15.094 -0.2995 -0.3558 -0.6174
11272TIP3    H255232   0.006   0.063  15.167  0.8918  0.4845  2.1491
11273TIP3   OH255233   0.074   1.533   0.681  0.1574 -0.8776  0.0795
11273TIP3    H155234   0.092   1.474   0.608  0.2512 -1.5042  0.5978
11273TIP3    H255235   0.160   1.571   0.702 -0.1257  0.5986 -1.1939
11274TIP3   OH255236   4.853   2.706  12.144  0.0347 -0.8884  0.1449
11274TIP3    H155237   4.761   2.704  12.118  0.1938 -0.2360 -0.5199
11274TIP3    H255238   4.901   2.682  12.065  0.3885 -3.6704  1.0860
11275TIP3   OH255239   3.382   4.477  15.929  0.7243 -0.4001 -0.0067
11275TIP3    H155240   3.328   4.526  15.991  0.4710 -1.2325  0.4463
11275TIP3    H255241   3.319   4.428  15.876  0.9626 -0.0757 -0.5881
11276TIP3   OH255242   6.487   0.590  11.534  0.4214  0.2492  0.1619
11276TIP3    H155243   6.575   0.585  11.572 -0.1542 -0.1597  1.4897
11276TIP3    H255244   6.462   0.682  11.543  0.2803  0.1527  0.8404
11277TIP3   OH255245   4.540   6.468  12.437  0.6160  0.4501  0.0524
11277TIP3    H155246   4.462   6.446  12.387  2.0050 -1.8187 -1.3261
11277TIP3    H255247   4.539   6.564  12.443 -2.2389  0.5002  0.1706
11278TIP3   OH255248   2.206   1.794   5.431 -0.5324 -0.3001  0.1112
11278TIP3    H155249   2.242   1.882   5.442 -1.5900  0.3000 -0.9482
11278TIP3    H255250   2.257   1.756   5.360 -1.5710  0.3451 -1.0139
11279TIP3   OH255251   4.432   3.337  16.851  0.4751  0.8371  0.9434
11279TIP3    H155252   4.454   3.381  16.769 -0.4434 -1.6969 -0.8005
11279TIP3    H255253   4.355   3.385  16.884 -2.0524 -0.6761 -2.1788
11280TIP3   OH255254   6.313   0.628   3.515 -0.2167  0.0931 -0.4141
11280TIP3    H155255   6.294   0.711   3.472 -2.0814  0.6996  1.4184
11280TIP3    H255256   6.398   0.603   3.482 -0.7362  1.4263 -2.9828
11281TIP3   OH255257   0.500   2.582  14.409  0.2273 -0.0249 -0.3339
11281TIP3    H155258   0.547   2.498  14.410  1.1397  0.3175 -3.4071
11281TIP3    H255259   0.440   2.574  14.335 -1.6450  1.0860  1.0044
11282TIP3   OH255260   5.001   3.719  12.513 -0.6305  0.0641  0.8874
11282TIP3    H155261   5.050   3.751  12.438  0.1808  0.3152  1.5094
11282TIP3    H255262   4.940   3.790  12.534 -1.2348 -0.2261  0.1508
11283TIP3   OH255263   2.004   3.350  15.828  0.4133  0.8777 -0.7161
11283TIP3    H155264   2.024   3.308  15.745 -2.5225  0.9150 -1.5358
11283TIP3    H255265   1.914   3.324  15.848  0.9406  1.0039  2.3963
11284TIP3   OH255266   4.256   4.007  12.560 -0.0466 -0.1745  0.2865
11284TIP3    H155267   4.205   4.084  12.534  0.5840  0.3135  0.4708
11284TIP3    H255268   4.191   3.945  12.592 -0.5825  0.2083 -0.0422
11285TIP3   OH255269   3.090   5.567  15.039  0.2815 -0.0412 -0.2384
11285TIP3    H155270   3.055   5.513  14.968  0.7531 -1.5504  0.6143
11285TIP3    H255271   3.063   5.521  15.119  0.3450  1.2398  0.5421
11286TIP3   OH255272   3.667   1.060  15.470 -0.1885 -0.0221 -0.7787
11286TIP3    H155273   3.749   1.028  15.432 -1.8618 -2.5273 -2.6820
11286TIP3    H255274   3.650   1.142  15.424  1.6849  1.1091  0.4173
11287TIP3   OH255275   3.578   0.958   4.324  0.1722  1.1660  0.0797
11287TIP3    H155276   3.637   0.896   4.281 -1.2309 -0.1731  0.0115
11287TIP3    H255277   3.617   1.044   4.307  1.8669  0.3578 -0.2935
11288TIP3   OH255278   0.232   0.214   0.538  0.2096 -0.0783 -0.1675
11288TIP3    H155279   0.302   0.232   0.600 -0.0578 -0.7682  0.3472
11288TIP3    H255280   0.178   0.293   0.539  0.2324 -0.0715  0.4475
11289TIP3   OH255281   1.097   6.412  14.404 -0.2500  0.0840  0.2399
11289TIP3    H155282   1.125   6.504  14.411  1.1123 -0.0504 -2.2190
11289TIP3    H255283   1.170   6.362  14.439  0.1681 -0.0964 -0.8377
11290TIP3   OH255284   1.477   3.949  15.416  0.4447 -0.8504 -0.0723
11290TIP3    H155285   1.556   3.998  15.439 -0.3663  0.1324  0.7383
11290TIP3    H255286   1.475   3.875  15.477  0.1689 -0.2470  0.6691
11291TIP3   OH255287   0.050   6.036   0.004 -0.4338  0.1162  0.1482
11291TIP3    H155288  -0.014   6.001  -0.058  0.4425 -1.0426 -0.1332
11291TIP3    H255289   0.044   5.978   0.080 -0.3079  0.5085  0.4600
11292TIP3   OH255290   4.982   0.703   0.290 -0.3433 -0.1547  0.0991
11292TIP3    H155291   4.958   0.620   0.333  1.5185 -0.5225  0.5179
11292TIP3    H255292   4.902   0.730   0.245 -1.1210 -1.9722  0.2775
11293TIP3   OH255293   4.379   4.379  13.045 -0.7155 -0.4573  0.1539
11293TIP3    H155294   4.470   4.394  13.068 -0.3831 -1.5439 -0.3829
11293TIP3    H255295   4.339   4.342  13.124 -0.2448 -1.6291 -0.1329
11294TIP3   OH255296   6.543   2.181   1.555 -0.4821  0.6343  0.0565
11294TIP3    H155297   6.552   2.237   1.478 -0.1389  1.2244  0.5226
11294TIP3    H255298   6.472   2.221   1.605 -1.0171 -0.0098 -0.1651
11295TIP3   OH255299   3.444   2.124   5.109 -0.5158 -0.8562 -0.2759
11295TIP3    H155300   3.491   2.207   5.120 -0.8105 -0.7769  0.4162
11295TIP3    H255301   3.506   2.067   5.065 -0.7857  0.1768 -2.1016
11296TIP3   OH255302   3.402   3.904  14.351  0.5839 -0.6792 -0.7736
11296TIP3    H155303   3.342   3.898  14.425 -0.4315 -1.1894 -1.6016
11296TIP3    H255304   3.375   3.983  14.304  2.0911  0.4053  0.0998
11297TIP3   OH255305   5.818   3.495  14.070  0.4418  0.3116  0.1017
11297TIP3    H155306   5.738   3.530  14.031 -1.6297 -2.5171  1.4486
11297TIP3    H255307   5.845   3.562  14.133 -0.7688  1.4000 -0.4892
11298TIP3   OH255308   3.778   3.807   2.531 -0.0057 -0.0282 -0.5340
11298TIP3    H155309   3.865   3.768   2.524 -0.7814 -1.7540 -1.0162
11298TIP3    H255310   3.756   3.799   2.624  0.2928  0.3090 -0.4309
11299TIP3   OH255311   2.846   4.579  16.804 -0.1630  0.3961  0.1511
11299TIP3    H155312   2.793   4.539  16.735 -1.8100 -0.6092  1.8832
11299TIP3    H255313   2.867   4.666  16.771 -3.3730  1.0611 -0.5005
11300TIP3   OH255314   4.186   3.234  14.024 -0.1842 -0.1786 -0.3429
11300TIP3    H155315   4.143   3.320  14.018 -0.2895 -0.2909 -1.5904
11300TIP3    H255316   4.250   3.244  14.094 -0.2085  0.9306 -0.4520
11301TIP3   OH255317   0.743   6.168  13.005  0.0682 -0.2713 -0.1176
11301TIP3    H155318   0.714   6.169  12.913 -2.8763 -0.0668  0.7176
11301TIP3    H255319   0.749   6.260  13.029 -0.7970 -0.3204  0.3261
11302TIP3   OH255320   4.638   2.969   0.148  0.3122 -0.1985  0.9784
11302TIP3    H155321   4.573   2.995   0.213  0.0063  2.6330 -0.3054
11302TIP3    H255322   4.719   3.010   0.177 -0.1460  2.4196 -1.0221
11303TIP3   OH255323   3.567   3.059   0.725 -0.4608  0.0046  0.0332
11303TIP3    H155324   3.475   3.033   0.724 -0.8030  1.1092  0.8185
11303TIP3    H255325   3.614   2.984   0.688 -1.5538 -1.0522  0.7338
11304TIP3   OH255326   6.253   0.033   2.351 -0.4216 -0.3687 -0.1909
11304TIP3    H155327   6.188  -0.037   2.344 -1.0972  0.2239  0.1186
11304TIP3    H255328   6.318  -0.000   2.413 -1.2480 -0.3214  0.7046
11305TIP3   OH255329   5.643   5.328  16.569  0.3916  0.0583  0.3369
11305TIP3    H155330   5.654   5.363  16.481  0.7186  1.2444  0.8294
11305TIP3    H255331   5.550   5.307  16.576  0.2732  0.4219 -0.1228
11306TIP3   OH255332   0.891   3.697   4.782 -0.1257  0.8223 -0.0427
11306TIP3    H155333   0.924   3.611   4.809 -1.4736 -0.0255 -0.9739
11306TIP3    H255334   0.956   3.729   4.719  0.5087  0.6252  0.4895
11307TIP3   OH255335   0.161   2.815   5.556 -0.5242  0.0593 -0.1938
11307TIP3    H155336   0.124   2.835   5.642  0.2240  0.1378  0.1178
11307TIP3    H255337   0.197   2.727   5.565  1.0480  0.6918  0.1057
11308TIP3   OH255338   0.471   1.014   2.495 -0.1261 -0.1351  0.5017
11308TIP3    H155339   0.536   0.986   2.559 -0.0061 -0.2045  0.3499
11308TIP3    H255340   0.520   1.026   2.414 -0.2599  0.0546  0.4487
11309TIP3   OH255341   3.692   1.084   6.396  0.3315  0.1265 -0.6776
11309TIP3    H155342   3.678   1.049   6.308 -0.0528 -1.8595  0.1125
11309TIP3    H255343   3.784   1.112   6.397  0.2137  0.6015 -1.8290
11310TIP3   OH255344   3.098   4.915  10.585  0.1373  0.0170  0.8185
11310TIP3    H155345   3.079   4.862  10.662 -1.4473 -0.3350  0.2156
11310TIP3    H255346   3.032   4.890  10.521  1.1673  0.5919 -0.5333
11311TIP3   OH255347   1.791   3.164  17.172 -0.9114  0.2951  0.3767
11311TIP3    H155348   1.734   3.234  17.138 -1.7875 -0.1805  0.8269
11311TIP3    H255349   1.737   3.119  17.237 -0.3685 -0.8251  0.0769
11312TIP3   OH255350   6.469   6.320   1.904  0.1219 -1.3385 -0.9165
11312TIP3    H155351   6.536   6.262   1.941 -0.7038 -1.3643  0.5893
11312TIP3    H255352   6.423   6.355   1.980 -1.6328 -1.3692 -1.9268
11313TIP3   OH255353   5.574   2.310  10.874  0.1380  0.3884  0.3190
11313TIP3    H155354   5.515   2.323  10.799 -0.8577 -1.6682  0.6682
11313TIP3    H255355   5.658   2.347  10.845 -0.0480 -0.8626 -2.0895
11314TIP3   OH255356   2.599   2.521  12.576  0.5936  0.3767  0.4470
11314TIP3    H155357   2.589   2.612  12.547  0.6284  0.4432  0.6418
11314TIP3    H255358   2.552   2.517  12.660 -0.4327 -0.0850 -0.1292
11315TIP3   OH255359   0.212   5.933   1.026  0.4735 -0.3496 -0.1166
11315TIP3    H155360   0.183   5.845   1.002 -0.7089  0.4147 -1.6810
11315TIP3    H255361   0.256   5.967   0.948 -1.5637  1.4142 -0.6218
11316TIP3   OH255362   0.402   1.996   3.660 -0.1296  0.3883 -0.2162
11316TIP3    H155363   0.380   2.062   3.725  1.3352  0.4493  0.2407
11316TIP3    H255364   0.320   1.981   3.612 -0.6587  1.9911  0.1427
11317TIP3   OH255365   5.588   0.498  12.991 -0.1089 -0.2822  0.0943
11317TIP3    H155366   5.494   0.492  13.008 -0.1597 -0.5029 -0.2485
11317TIP3    H255367   5.594   0.529  12.900  0.1481 -0.8125 -0.0750
11318TIP3   OH255368   3.809   3.811  11.548  0.0651 -0.2836 -0.3138
11318TIP3    H155369   3.812   3.891  11.600  0.4281  0.4246 -1.3723
11318TIP3    H255370   3.715   3.792  11.539 -0.0581  0.4200 -0.6215
11319TIP3   OH255371   5.354   4.846  14.207 -0.4283  0.0176  0.1778
11319TIP3    H155372   5.426   4.909  14.206 -1.3645  1.1796  1.6995
11319TIP3    H255373   5.348   4.817  14.298 -2.3241  0.5282  0.2612
11320TIP3   OH255374   0.829   5.616  12.938 -0.0601 -0.1356  0.1095
11320TIP3    H155375   0.797   5.699  12.973 -0.5729  0.2781 -1.2731
11320TIP3    H255376   0.761   5.588  12.877  1.0838 -0.4744 -1.0636
11321TIP3   OH255377   2.814   6.441  11.441  0.5455 -0.3575 -0.1882
11321TIP3    H155378   2.804   6.520  11.493 -0.1211  0.4284 -1.4547
11321TIP3    H255379   2.907   6.438  11.420  0.4602  0.5228 -0.7507
11322TIP3   OH255380   0.564   4.617   5.569 -0.4746 -0.2390 -0.0697
11322TIP3    H155381   0.584   4.703   5.531  0.4788  1.2781  3.3708
11322TIP3    H255382   0.640   4.563   5.549 -1.0937 -0.3643 -2.3018
11323TIP3   OH255383   0.603   0.167   2.902 -0.0944  0.4664  0.3620
11323TIP3    H155384   0.651   0.111   2.841 -1.1922  0.2161 -0.2991
11323TIP3    H255385   0.556   0.106   2.959 -0.4764  0.7112  0.3085
11324TIP3   OH255386   3.511   4.247   0.800  0.2720  0.3505  0.3205
11324TIP3    H155387   3.600   4.214   0.809  0.1906 -0.4006 -1.2745
11324TIP3    H255388   3.502   4.312   0.870  2.4244  1.2361 -0.1507
11325TIP3   OH255389   5.431   5.542   3.916  0.5189 -0.1831 -0.3204
11325TIP3    H155390   5.483   5.623   3.912  0.8945 -0.3566  0.7368
11325TIP3    H255391   5.410   5.531   4.009 -2.8781  0.7625 -0.8478
11326TIP3   OH255392   0.821   1.305   2.734 -0.0892  0.7338 -0.0863
11326TIP3    H155393   0.745   1.267   2.778 -1.4692 -0.3138 -3.1310
11326TIP3    H255394   0.848   1.239   2.670  1.0228  2.5961 -1.6614
11327TIP3   OH255395   1.111   1.396   3.178  0.2903  0.6636 -0.2344
11327TIP3    H155396   1.034   1.421   3.126 -0.8885  1.2367  1.6988
11327TIP3    H255397   1.143   1.479   3.214  1.0663  0.2710  0.0072
11328TIP3   OH255398   1.075   2.340  13.677 -0.0532 -0.0944 -0.1150
11328TIP3    H155399   1.076   2.274  13.746  2.1197  0.4165  0.4096
11328TIP3    H255400   1.012   2.307  13.613  0.4242 -2.3034  0.4831
11329TIP3   OH255401   0.782   3.172   0.410 -0.1377 -0.1183  0.1038
11329TIP3    H155402   0.847   3.174   0.481  0.5032 -0.0607 -0.4678
11329TIP3    H255403   0.747   3.261   0.407  0.2028  0.0142  0.0211
11330TIP3   OH255404   4.121   4.249  11.260 -0.1014  0.3182 -0.0507
11330TIP3    H155405   4.033   4.216  11.245 -0.4356  1.5358 -0.9451
11330TIP3    H255406   4.157   4.263  11.172  1.0707 -0.3573  0.2948
11331TIP3   OH255407   1.750   5.288  15.979  0.4575  1.0111  0.2949
11331TIP3    H155408   1.806   5.210  15.976  2.9725  2.6734 -1.4567
11331TIP3    H255409   1.679   5.269  15.918  2.0249  0.6474 -1.5340
11332TIP3   OH255410   2.168   5.424   1.929 -0.7747  0.0771  0.1947
11332TIP3    H155411   2.116   5.369   1.988  1.3895  0.7376  2.9571
11332TIP3    H255412   2.171   5.509   1.973 -0.2917  1.0846 -1.6929
11333TIP3   OH255413   4.410   5.061  16.933 -0.3310 -0.3834  0.7212
11333TIP3    H155414   4.321   5.041  16.904 -0.3027 -1.4101  1.3002
11333TIP3    H255415   4.436   4.985  16.984  0.5958  0.2439  1.2108
11334TIP3   OH255416   3.852   1.801   1.510  0.2835 -0.0603  0.0505
11334TIP3    H155417   3.866   1.725   1.453 -0.0388 -0.0985  0.0182
11334TIP3    H255418   3.774   1.844   1.474 -0.3454 -0.4830  0.8875
11335TIP3   OH255419   0.620   2.096  16.261  0.3201 -0.0022 -0.6931
11335TIP3    H155420   0.539   2.135  16.229  0.5207  0.1238 -1.0568
11335TIP3    H255421   0.617   2.110  16.356 -0.9032 -1.5518 -0.4661
11336TIP3   OH255422   6.155   2.546   1.658  0.1775 -0.3969 -0.9289
11336TIP3    H155423   6.112   2.527   1.574  1.4957 -0.1516 -1.6864
11336TIP3    H255424   6.162   2.641   1.660  1.5110 -0.4624 -1.2809
11337TIP3   OH255425   3.538   3.305  12.881 -0.4268  0.1338 -0.1578
11337TIP3    H155426   3.498   3.247  12.946 -0.2965  0.5966  0.3377
11337TIP3    H255427   3.561   3.246  12.808  0.8459 -0.6652  0.8454
11338TIP3   OH255428   0.116   4.483  11.941 -0.1146  0.0785  0.2471
11338TIP3    H155429   0.047   4.419  11.924  0.0593 -0.8285  2.5082
11338TIP3    H255430   0.109   4.501  12.035  2.7166 -0.0518  0.5742
11339TIP3   OH255431   3.529   0.919   4.939  0.1737 -0.1403 -0.1783
11339TIP3    H155432   3.545   0.996   4.993 -2.3994  0.3258  0.0240
11339TIP3    H255433   3.519   0.954   4.850 -0.1165 -0.3351 -0.2238
11340TIP3   OH255434   1.786   1.507   3.917  0.1278 -0.0786 -0.0430
11340TIP3    H155435   1.747   1.532   3.833  1.4524  0.3030 -0.5738
11340TIP3    H255436   1.717   1.525   3.981 -0.7948 -0.0522 -0.9951
11341TIP3   OH255437   3.819   1.335   5.669  0.4382  0.0524 -0.2469
11341TIP3    H155438   3.797   1.394   5.597 -0.1649 -0.2655 -0.3282
11341TIP3    H255439   3.740   1.333   5.723 -0.3734 -2.3351 -1.3763
11342TIP3   OH255440   2.519   4.334  16.048  0.1771 -0.1789  0.0799
11342TIP3    H155441   2.467   4.312  16.125 -1.6219 -2.0872 -1.5228
11342TIP3    H255442   2.455   4.339  15.977  1.7595  1.4389 -1.3439
11343TIP3   OH255443   5.015   2.009   1.530 -0.0608  0.2166 -0.5430
11343TIP3    H155444   4.963   1.940   1.571 -2.0942  0.3643 -2.6458
11343TIP3    H255445   5.072   1.963   1.469 -3.0204  0.2696 -3.6768
11344TIP3   OH255446   2.520   1.275  14.880 -0.0031 -0.1249 -0.0480
11344TIP3    H155447   2.558   1.360  14.854  0.4248 -0.7689 -1.6674
11344TIP3    H255448   2.462   1.296  14.953  0.8743  1.4130  0.2567
11345TIP3   OH255449   1.653   3.886   2.125  0.1998 -0.2275 -0.0367
11345TIP3    H155450   1.653   3.791   2.110 -2.6655 -0.2354 -0.6183
11345TIP3    H255451   1.687   3.923   2.043 -0.0885 -0.7268 -0.3890
11346TIP3   OH255452   5.328   1.526  11.716 -0.2254 -0.0228  0.3722
11346TIP3    H155453   5.251   1.476  11.744 -0.0531 -1.0517 -0.9083
11346TIP3    H255454   5.298   1.617  11.717 -1.6705 -0.4418 -0.6487
11347TIP3   OH255455   4.322   1.003  14.088 -0.0991 -0.1592  0.6392
11347TIP3    H155456   4.281   1.084  14.116 -0.6706 -0.3460  0.3589
11347TIP3    H255457   4.333   1.012  13.994 -1.3958 -0.9368  0.3948
11348TIP3   OH255458   4.712   3.128   0.821 -0.1945  0.2076 -0.0721
11348TIP3    H155459   4.794   3.078   0.823  0.4523  1.2493  0.5068
11348TIP3    H255460   4.659   3.085   0.754  1.2771  0.2103 -1.2856
11349TIP3   OH255461   0.321   1.013  11.764 -0.1508  0.3304  0.1687
11349TIP3    H155462   0.359   0.927  11.777 -0.7102  0.3811  2.6297
11349TIP3    H255463   0.393   1.074  11.779 -0.0269  0.3280 -0.3959
11350TIP3   OH255464   2.063   1.861   4.447 -0.6851  0.2381  0.1901
11350TIP3    H155465   2.140   1.896   4.492 -0.4716  1.5780 -1.1251
11350TIP3    H255466   2.069   1.766   4.458  3.4797 -0.2153 -3.2360
11351TIP3   OH255467   1.444   4.398   0.172  0.0821 -0.1034  0.0276
11351TIP3    H155468   1.376   4.453   0.133 -0.9757 -0.5532  1.1748
11351TIP3    H255469   1.405   4.311   0.179  1.4852 -0.8740 -1.1089
11352TIP3   OH255470   4.183   1.899  16.587 -0.2678 -0.0550 -0.1858
11352TIP3    H155471   4.157   1.839  16.517  1.7855  1.5737 -2.4876
11352TIP3    H255472   4.263   1.860  16.623  0.1138  0.4319 -0.5079
11353TIP3   OH255473   3.702   4.142  14.757  0.8544 -0.3301 -0.4058
11353TIP3    H155474   3.709   4.107  14.846  0.5539 -1.0421 -0.6489
11353TIP3    H255475   3.625   4.198  14.759  0.8015 -0.4060 -0.2311
11354TIP3   OH255476   4.763   3.733   2.557  0.5517 -0.2384 -0.5860
11354TIP3    H155477   4.831   3.751   2.622  0.8652 -0.2957 -0.8929
11354TIP3    H255478   4.681   3.742   2.605  0.7734 -0.1091 -0.2243
11355TIP3   OH255479   2.740   3.041   5.669  0.6183 -0.8090 -0.2436
11355TIP3    H155480   2.834   3.030   5.654  0.5349 -2.0740  0.0985
11355TIP3    H255481   2.726   3.136   5.663  1.5482 -0.7564 -2.4692
11356TIP3   OH255482   1.397   5.485   1.598  0.5366  0.3947  0.1034
11356TIP3    H155483   1.320   5.541   1.592 -1.7377 -2.5903 -0.3346
11356TIP3    H255484   1.404   5.445   1.511  1.6384 -0.6065  0.6257
11357TIP3   OH255485   2.575   3.466   4.852 -0.1993  0.2847  0.0229
11357TIP3    H155486   2.571   3.385   4.903  1.5274 -0.2514 -0.6141
11357TIP3    H255487   2.529   3.446   4.771  0.3762 -0.1331 -0.2056
11358TIP3   OH255488   1.313   6.023   0.862  0.3322 -0.4454 -0.6409
11358TIP3    H155489   1.276   6.081   0.929  1.2950 -1.1219  0.5186
11358TIP3    H255490   1.256   6.034   0.786 -0.9767  0.1215  0.3925
11359TIP3   OH255491   1.041   4.538   0.268 -0.0127 -0.4766  0.6814
11359TIP3    H155492   0.952   4.566   0.246  0.2707  0.1082  0.2141
11359TIP3    H255493   1.055   4.570   0.357 -0.9910 -2.3975  1.5620
11360TIP3   OH255494   1.531   3.363  12.320 -0.0806 -0.2096 -0.0901
11360TIP3    H155495   1.563   3.273  12.329 -0.2025 -0.3466 -0.9581
11360TIP3    H255496   1.590   3.402  12.255 -0.1169  0.2942  0.1816
11361TIP3   OH255497   1.723   4.191   5.330  0.6186 -0.1757 -0.0686
11361TIP3    H155498   1.699   4.152   5.414  1.5953 -1.6210 -0.4127
11361TIP3    H255499   1.752   4.116   5.277  0.4016  0.7569 -1.5535
11362TIP3   OH255500   4.293   6.656   2.738  0.4889 -0.6827  0.1799
11362TIP3    H155501   4.299   6.737   2.788 -0.8732  0.4516 -1.4095
11362TIP3    H255502   4.354   6.667   2.665  0.1396 -0.9878 -0.1644
11363TIP3   OH255503   0.223   2.845   4.928  0.3931  0.7836  0.3050
11363TIP3    H155504   0.180   2.760   4.920  0.9284  0.4776  0.6314
11363TIP3    H255505   0.301   2.838   4.873  0.2199  1.2144 -0.0071
11364TIP3   OH255506   3.228   2.261  16.423 -0.6825 -1.1763  0.0530
11364TIP3    H155507   3.178   2.179  16.416 -0.3373 -1.3116 -1.0084
11364TIP3    H255508   3.262   2.260  16.512 -2.5192 -1.0958  0.8109
11365TIP3   OH255509   4.048   3.267  13.353 -0.3811  0.3658 -0.5091
11365TIP3    H155510   4.051   3.338  13.289 -0.2662  0.3681 -0.5014
11365TIP3    H255511   3.985   3.296  13.418  1.2023  1.4123  0.6335
11366TIP3   OH255512   6.003   6.140   4.073  0.4323  0.8398 -0.5526
11366TIP3    H155513   5.919   6.129   4.116  0.5289  1.5980 -0.1652
11366TIP3    H255514   6.016   6.234   4.069  2.4948  0.7397  1.8121
11367TIP3   OH255515   5.025   2.544   0.140  0.1784 -0.5488  0.7414
11367TIP3    H155516   4.931   2.532   0.129  0.4617 -1.8448 -0.6745
11367TIP3    H255517   5.035   2.636   0.161 -1.3766 -0.2880  0.4723
11368TIP3   OH255518   6.171   3.938  11.309  0.7314  0.3888  0.0408
11368TIP3    H155519   6.118   3.899  11.379  0.5853  1.1604  0.3723
11368TIP3    H255520   6.261   3.914  11.332  0.6650  0.4356  0.3626
11369TIP3   OH255521   4.518   5.613  15.140  0.5091  0.3878  0.4487
11369TIP3    H155522   4.550   5.703  15.142  3.9686 -0.7165 -0.0544
11369TIP3    H255523   4.486   5.601  15.051  2.6241  0.3789 -0.3597
11370TIP3   OH255524   2.220   2.208  14.618  0.3654 -0.1866  0.0717
11370TIP3    H155525   2.160   2.225  14.692 -0.8182  0.2444 -0.9441
11370TIP3    H255526   2.281   2.143  14.652 -0.8703 -0.8921  1.0830
11371TIP3   OH255527   1.423   4.562   1.438 -0.3826  0.5045 -0.6154
11371TIP3    H155528   1.369   4.617   1.380 -2.0415  0.6284  0.9483
11371TIP3    H255529   1.455   4.622   1.505 -2.5808 -0.3986  1.3666
11372TIP3   OH255530   6.665   3.349   3.515  0.1890 -0.7049  0.3849
11372TIP3    H155531   6.672   3.274   3.574  0.8890 -1.5476 -0.7285
11372TIP3    H255532   6.639   3.311   3.431  0.5651  0.2891 -0.1979
11373TIP3   OH255533   3.887   1.264  14.238  0.3226  0.4910  0.6600
11373TIP3    H155534   3.945   1.320  14.187  1.2235 -0.3309  0.7571
11373TIP3    H255535   3.820   1.324  14.272 -0.7005  0.9992 -1.9734
11374TIP3   OH255536   5.304   0.021   4.213  0.2502 -0.4855 -0.8569
11374TIP3    H155537   5.376   0.023   4.276  0.6090  0.3900 -1.2784
11374TIP3    H255538   5.272  -0.069   4.216  0.9412 -0.7180 -0.1884
11375TIP3   OH255539   3.108   2.233   3.193  0.2870 -0.6385 -0.0848
11375TIP3    H155540   3.149   2.315   3.220 -1.1761  0.0403  0.1348
11375TIP3    H255541   3.141   2.219   3.104  2.1749 -0.9359  0.6164
11376TIP3   OH255542   6.734   5.595  12.277 -0.1255  0.0235 -0.7103
11376TIP3    H155543   6.659   5.630  12.324  0.4534  1.2835 -0.6710
11376TIP3    H255544   6.704   5.585  12.187 -0.6438 -0.5127 -0.4879
11377TIP3   OH255545   5.158   0.635   0.499  0.5276 -0.4506 -0.4741
11377TIP3    H155546   5.069   0.664   0.520  0.1387 -0.1150 -2.4540
11377TIP3    H255547   5.147   0.558   0.445  1.5109 -1.3998  0.6156
11378TIP3   OH255548   0.653   0.964   0.668 -0.0578 -0.0533 -0.3163
11378TIP3    H155549   0.639   0.875   0.698  0.3452 -0.7225 -1.9956
11378TIP3    H255550   0.567   0.992   0.635 -0.1859  0.1999  0.2162
11379TIP3   OH255551   1.456   4.407   3.011 -0.1621 -0.1801  0.0706
11379TIP3    H155552   1.521   4.477   3.018 -0.7143  0.1849  2.2685
11379TIP3    H255553   1.392   4.427   3.079 -1.9397 -1.2150 -1.2385
11380TIP3   OH255554   6.492   0.620   5.646 -0.0360 -0.2082 -0.1045
11380TIP3    H155555   6.484   0.561   5.721 -0.9886 -0.2072 -0.1838
11380TIP3    H255556   6.401   0.643   5.625  0.1220 -1.1574 -2.0028
11381TIP3   OH255557   0.440   4.864  11.094  0.5592 -0.1912  0.0944
11381TIP3    H155558   0.422   4.859  11.000 -0.0140 -1.7631  0.2529
11381TIP3    H255559   0.495   4.787  11.111 -1.1682 -1.1959  1.4063
11382TIP3   OH255560   0.129   2.455  15.072  0.0386  0.2313  0.2849
11382TIP3    H155561   0.208   2.478  15.024 -0.7330  1.3254 -0.5287
11382TIP3    H255562   0.076   2.535  15.070 -0.0113  0.3488  3.0211
11383TIP3   OH255563   3.731   1.518   1.243  0.0664  0.0869  0.0418
11383TIP3    H155564   3.824   1.509   1.222 -0.0150 -0.3424 -0.1597
11383TIP3    H255565   3.703   1.598   1.199  0.2978  0.1114 -0.0587
11384TIP3   OH255566   6.786   3.950  15.663  0.4057 -0.0084 -0.1419
11384TIP3    H155567   6.776   3.964  15.569  2.4736  0.8383 -0.2993
11384TIP3    H255568   6.864   3.895  15.672 -0.2138 -0.7427  1.0577
11385TIP3   OH255569   5.962   3.725  15.752  0.6198  0.0967 -0.4334
11385TIP3    H155570   5.893   3.709  15.816  0.7624 -0.3246 -0.3774
11385TIP3    H255571   6.019   3.790  15.793  0.4907  0.1277 -0.3019
11386TIP3   OH255572   2.216   5.115  12.957 -0.8200  0.7512  0.3343
11386TIP3    H155573   2.122   5.127  12.971 -1.0591  0.7642 -1.1373
11386TIP3    H255574   2.255   5.199  12.979 -1.4216  1.4306 -1.1136
11387TIP3   OH255575   2.201   6.035   4.561  0.1348  0.1192  0.4523
11387TIP3    H155576   2.175   6.112   4.610 -1.5763 -0.2463  0.1936
11387TIP3    H255577   2.118   5.990   4.541  1.0060 -1.2582 -0.2437
11388TIP3   OH255578   2.804   1.622   4.098 -0.5943 -0.3199 -0.2186
11388TIP3    H155579   2.752   1.701   4.106  0.5134  0.2843  1.6613
11388TIP3    H255580   2.750   1.554   4.139 -1.1742 -0.3799 -1.0529
11389TIP3   OH255581   1.702   1.252   4.143 -0.4713  0.5632 -0.2959
11389TIP3    H155582   1.648   1.270   4.067 -1.4687  0.6124  0.4044
11389TIP3    H255583   1.644   1.267   4.218  0.4648  0.4558  0.4696
11390TIP3   OH255584   4.824   5.070   0.283 -0.4397 -0.2023 -0.2616
11390TIP3    H155585   4.733   5.043   0.275 -1.1246  1.6888  0.5802
11390TIP3    H255586   4.842   5.120   0.203 -0.1925 -0.4295 -0.3488
11391TIP3   OH255587   5.901   1.529   5.667  0.1490 -0.3930  0.8487
11391TIP3    H155588   5.901   1.533   5.763  1.3235 -3.7334  1.1375
11391TIP3    H255589   5.831   1.467   5.646  0.8780 -0.8386 -0.3258
11392TIP3   OH255590   3.438   4.515   0.084 -0.3219  0.3249 -0.2091
11392TIP3    H155591   3.349   4.492   0.058  0.3681 -0.5320 -1.9757
11392TIP3    H255592   3.439   4.611   0.082 -1.2882  0.3538  0.1860
11393TIP3   OH255593   4.376   2.380  15.224  0.1898 -0.1063  0.0607
11393TIP3    H155594   4.358   2.473  15.205  2.1366  0.0585 -1.1964
11393TIP3    H255595   4.365   2.373  15.319  1.3091  1.7287  0.3745
11394TIP3   OH255596   0.343   5.426  16.802  0.5967  0.4256  0.1508
11394TIP3    H155597   0.348   5.339  16.841  1.2135  0.3841 -0.0078
11394TIP3    H255598   0.273   5.419  16.737 -1.7634  1.0235  2.4908
11395TIP3   OH255599   5.097   5.583   5.950  0.0635  0.4111 -0.0303
11395TIP3    H155600   5.014   5.606   5.908  0.1547 -0.2936 -0.6176
11395TIP3    H255601   5.086   5.612   6.040  0.3801  3.2046 -0.8148
11396TIP3   OH255602   3.058   6.692   4.984  0.0992 -0.7114 -0.2745
11396TIP3    H155603   3.062   6.597   4.996 -0.5926 -0.4823  2.3529
11396TIP3    H255604   3.141   6.723   5.020  0.3546 -0.2828 -1.1989
11397TIP3   OH255605   1.174   0.796  14.138  0.0782 -0.1913  0.1932
11397TIP3    H155606   1.168   0.767  14.047 -1.3080  1.4221 -0.2975
11397TIP3    H255607   1.239   0.867  14.136  0.5664 -0.6226  0.6040
11398TIP3   OH255608   3.292   6.211  11.946 -0.1942  0.0823 -0.5741
11398TIP3    H155609   3.327   6.232  11.860  0.1635  1.3875 -0.1268
11398TIP3    H255610   3.292   6.294  11.993 -2.2876 -0.2063  0.0194
11399TIP3   OH255611   2.463   6.207   3.405 -0.0686 -0.7098  0.3033
11399TIP3    H155612   2.481   6.246   3.491 -1.6438 -1.5078  1.0476
11399TIP3    H255613   2.448   6.114   3.424  2.1334 -1.4388 -1.2291
11400TIP3   OH255614   5.139   5.434   4.692  0.5737 -0.0678 -0.2254
11400TIP3    H155615   5.150   5.500   4.761  0.2501 -0.2768  0.0210
11400TIP3    H255616   5.169   5.479   4.612 -1.1890  0.9598 -0.3668
11401TIP3   OH255617   6.299   6.104   0.703 -0.0253 -0.1412  0.0222
11401TIP3    H155618   6.266   6.029   0.653 -0.3318  0.5704 -0.8717
11401TIP3    H255619   6.377   6.132   0.654 -0.5345  0.7837 -0.2810
11402TIP3   OH255620   3.836   5.680   4.879 -0.2718  0.7181  0.5777
11402TIP3    H155621   3.791   5.630   4.811 -0.4706  1.3516  0.2363
11402TIP3    H255622   3.770   5.694   4.947  0.0760 -0.3868  1.1705
11403TIP3   OH255623   6.402   0.358  12.117  0.1448 -0.0068 -0.2295
11403TIP3    H155624   6.471   0.419  12.092 -0.2575  0.2367 -0.7654
11403TIP3    H255625   6.371   0.391  12.202  0.4322  0.1024 -0.1656
11404TIP3   OH255626   3.339   2.499   0.491 -0.1399  0.5058 -0.0666
11404TIP3    H155627   3.344   2.416   0.539  2.2035  0.4948 -0.1792
11404TIP3    H255628   3.246   2.512   0.474 -0.6640 -1.5369  0.9262
11405TIP3   OH255629   3.022   1.865  11.591  0.0004  0.4464 -0.8306
11405TIP3    H155630   2.944   1.919  11.578  0.0166  0.5793 -0.3956
11405TIP3    H255631   2.990   1.787  11.636 -0.2167 -0.4580 -2.4744
11406TIP3   OH255632   0.120   1.168  14.066  0.6562  0.3535  0.3701
11406TIP3    H155633   0.070   1.245  14.040  0.1010 -0.1663 -0.1292
11406TIP3    H255634   0.063   1.122  14.128 -0.3608 -1.2460 -1.6278
11407TIP3   OH255635   5.763   4.740  14.022 -0.2866 -0.5114  0.5403
11407TIP3    H155636   5.668   4.731  14.020 -0.3971  0.5379 -0.4002
11407TIP3    H255637   5.783   4.769  14.111 -0.9004 -0.2516  0.5998
11408TIP3   OH255638   3.369   6.298   3.244 -0.0283 -0.2430  0.2163
11408TIP3    H155639   3.287   6.305   3.292  0.1431 -0.8554  0.6103
11408TIP3    H255640   3.348   6.244   3.167 -0.0699 -0.1329  0.1513
11409TIP3   OH255641   6.228   0.708   0.633  0.8848  0.4411  0.6583
11409TIP3    H155642   6.313   0.698   0.676  0.7658 -0.7550  0.6266
11409TIP3    H255643   6.181   0.627   0.652 -0.0555  0.8655  0.2246
11410TIP3   OH255644   2.784   2.376  13.591  0.0318  0.0816  0.5043
11410TIP3    H155645   2.845   2.449  13.608 -0.1946 -0.0797  2.2285
11410TIP3    H255646   2.821   2.303  13.641 -0.6727 -0.5031  0.1791
11411TIP3   OH255647   3.116   5.253   3.061 -0.6565 -0.4101  0.2180
11411TIP3    H155648   3.045   5.205   3.104 -1.3865 -0.9524 -1.4629
11411TIP3    H255649   3.190   5.193   3.062 -0.6763 -0.4242  0.7123
11412TIP3   OH255650   1.366   1.449  16.958  0.2878  0.0359 -0.0889
11412TIP3    H155651   1.279   1.410  16.959  1.2600 -2.3500  1.8449
11412TIP3    H255652   1.397   1.442  17.048  2.0395  1.9603 -0.4552
11413TIP3   OH255653   0.222   3.645  12.668 -0.4489  0.2231  0.0473
11413TIP3    H155654   0.148   3.689  12.626 -1.5061  1.0480  2.5545
11413TIP3    H255655   0.184   3.601  12.744  1.0597 -2.7636 -0.7926
11414TIP3   OH255656   5.052   2.966  16.718  0.3130 -0.4990 -0.1573
11414TIP3    H155657   5.053   2.982  16.624 -1.1372  0.0693 -0.1112
11414TIP3    H255658   4.970   2.920  16.734  1.3576 -2.1667  0.6264
11415TIP3   OH255659   6.519   0.864  16.947 -0.0277 -0.1711  0.1162
11415TIP3    H155660   6.496   0.949  16.985 -2.4715 -0.8329  0.3256
11415TIP3    H255661   6.517   0.804  17.021  0.9336 -0.5613 -0.1612
11416TIP3   OH255662   0.714   5.784   3.291  0.0570 -0.4953  0.4689
11416TIP3    H155663   0.715   5.779   3.387  1.6211 -1.1121  0.4394
11416TIP3    H255664   0.645   5.848   3.271 -0.4493 -0.5302  1.9847
11417TIP3   OH255665   5.484   5.850  12.628 -0.0604  0.3770  0.2926
11417TIP3    H155666   5.416   5.916  12.636  0.0442  0.6450 -0.8242
11417TIP3    H255667   5.459   5.782  12.690 -1.6603  0.2129 -0.4789
11418TIP3   OH255668   5.057   0.138   3.895 -0.2297 -0.7233 -0.4089
11418TIP3    H155669   5.120   0.174   3.959  0.3968 -0.1279 -1.3292
11418TIP3    H255670   4.999   0.212   3.875  0.4315 -0.4807 -1.5423
11419TIP3   OH255671   3.425   1.383  16.915 -0.2939  0.2540  0.3576
11419TIP3    H155672   3.335   1.350  16.923 -0.1456 -0.0066  1.0761
11419TIP3    H255673   3.479   1.310  16.945 -0.0305  1.6216  3.5902
11420TIP3   OH255674   1.293   5.105  13.672  0.0848 -0.3730  0.8551
11420TIP3    H155675   1.363   5.155  13.631  0.5883 -1.7373 -0.0419
11420TIP3    H255676   1.213   5.154  13.653  0.4169 -0.4862 -1.0310
11421TIP3   OH255677   4.646   5.000  13.565  0.2695 -0.1313  0.4405
11421TIP3    H155678   4.609   5.042  13.488  1.1296 -0.0960  0.0321
11421TIP3    H255679   4.571   4.984  13.622 -0.2492  0.7146  0.0164
11422TIP3   OH255680   2.977   2.862   3.886 -0.2407 -0.8070 -1.0877
11422TIP3    H155681   3.071   2.880   3.879 -0.5511  0.9773 -1.1288
11422TIP3    H255682   2.937   2.915   3.818 -1.5360  1.1313  1.0274
11423TIP3   OH255683   0.866   6.448  14.891  0.0917 -0.4834  0.2591
11423TIP3    H155684   0.950   6.466  14.934  0.5092 -0.1812 -0.6415
11423TIP3    H255685   0.865   6.353  14.878  0.1759 -0.5183  0.5040
11424TIP3   OH255686   0.466   2.531   0.487 -0.4827 -0.5014 -0.2987
11424TIP3    H155687   0.381   2.535   0.442 -0.0520  0.6150 -1.0560
11424TIP3    H255688   0.527   2.572   0.427  0.2345  0.4874  1.0463
11425TIP3   OH255689   5.368   4.056   2.337 -0.4225 -0.2257  0.0964
11425TIP3    H155690   5.349   3.988   2.402  1.2891 -0.3318  0.5351
11425TIP3    H255691   5.404   4.128   2.387  1.2225 -0.4281 -0.7373
11426TIP3   OH255692   3.196   2.518   1.264  0.0137 -0.5107 -0.1546
11426TIP3    H155693   3.174   2.450   1.200  0.2089  1.2938 -2.2628
11426TIP3    H255694   3.260   2.573   1.219 -0.6990  1.5076  1.1785
11427TIP3   OH255695   5.226   6.087   2.652 -0.0412  0.0637  0.0484
11427TIP3    H155696   5.188   6.145   2.718  1.8673  0.6836  0.6711
11427TIP3    H255697   5.318   6.080   2.676  0.6174 -0.1098 -2.2695
11428TIP3   OH255698   4.683   1.643   4.894 -0.2621 -0.5743 -0.2810
11428TIP3    H155699   4.669   1.730   4.933  0.3429  0.8222 -2.9371
11428TIP3    H255700   4.651   1.651   4.805  0.3584 -2.9458 -0.7847
11429TIP3   OH255701   2.225   4.569  14.944 -0.3349 -0.6290 -0.3293
11429TIP3    H155702   2.283   4.536  15.013  2.8491  0.8240 -2.1411
11429TIP3    H255703   2.173   4.637  14.987  0.4776 -0.7873  0.9525
11430TIP3   OH255704   0.552   3.506  14.270  0.3538  0.4359  0.2171
11430TIP3    H155705   0.595   3.551  14.342 -0.3435  0.5764  0.5589
11430TIP3    H255706   0.475   3.559  14.251  0.1496  0.0159 -0.1535
11431TIP3   OH255707   1.771   6.222  15.805  0.5472 -0.2642 -0.3582
11431TIP3    H155708   1.702   6.219  15.872 -0.2456 -0.4673 -1.1533
11431TIP3    H255709   1.748   6.152  15.744  2.3985 -1.4218  0.2207
11432TIP3   OH255710   5.487   1.230   4.628  0.2759  0.4068  0.1938
11432TIP3    H155711   5.514   1.219   4.719 -0.8159  0.9181  0.6002
11432TIP3    H255712   5.457   1.320   4.623 -1.8588 -0.2684 -0.0578
11433TIP3   OH255713   1.752   5.859   1.467 -0.1974 -0.2285  0.5477
11433TIP3    H155714   1.829   5.905   1.503 -0.3474  0.9804 -0.6014
11433TIP3    H255715   1.713   5.922   1.406 -1.1090 -1.4766 -0.1955
11434TIP3   OH255716   3.077   1.799  14.963 -0.3421  0.4960 -0.0925
11434TIP3    H155717   3.096   1.724  15.020  2.0958 -0.3802 -1.8683
11434TIP3    H255718   2.982   1.800  14.955 -0.5446 -1.3766  1.3387
11435TIP3   OH255719   3.937   5.083   5.719  0.3085  0.1731 -0.1024
11435TIP3    H155720   3.864   5.129   5.762 -0.6176 -0.6672 -0.7386
11435TIP3    H255721   3.981   5.037   5.790  0.6261  1.1984  0.3897
11436TIP3   OH255722   0.982   6.247   1.244 -0.4758  0.0914 -0.1500
11436TIP3    H155723   1.073   6.266   1.225  0.0024  1.3434  2.8708
11436TIP3    H255724   0.968   6.159   1.209  1.8309 -0.0665 -0.8214
11437TIP3   OH255725   3.494   5.747  16.087  0.2497  0.3840  0.0383
11437TIP3    H155726   3.509   5.693  16.009 -2.1527 -1.6032  0.8109
11437TIP3    H255727   3.567   5.725  16.145  1.6770  1.3492 -1.3000
11438TIP3   OH255728   3.248   2.541   2.123  0.3948  0.1004  0.0916
11438TIP3    H155729   3.227   2.496   2.042  2.4102  0.7131 -0.8471
11438TIP3    H255730   3.164   2.554   2.166 -0.4290 -3.1494 -0.2902
11439TIP3   OH255731   5.855   1.845   1.120  0.0815  0.5722  0.4447
11439TIP3    H155732   5.910   1.776   1.157  1.0179  1.0330 -0.0358
11439TIP3    H255733   5.781   1.852   1.180  0.4552 -0.1971  1.0132
11440TIP3   OH255734   0.285   3.991  11.632  0.2945  0.3211 -0.1863
11440TIP3    H155735   0.332   3.909  11.646 -1.0227  0.0602  4.2108
11440TIP3    H255736   0.347   4.060  11.656  0.8742  0.6032 -2.3007
11441TIP3   OH255737   1.591   0.004   5.266 -0.6936 -0.3643 -0.5286
11441TIP3    H155738   1.516   0.021   5.210 -0.9228 -0.4657 -0.2536
11441TIP3    H255739   1.560   0.023   5.355 -0.6441 -1.2028 -0.3254
11442TIP3   OH255740   1.929   6.323  15.358 -0.5860  0.7386 -0.4346
11442TIP3    H155741   1.909   6.316  15.264 -1.8214 -0.8619 -0.0974
11442TIP3    H255742   2.016   6.285  15.367 -0.6080  0.5793 -0.8729
11443TIP3   OH255743   3.051   1.675   1.455  0.0642  0.3571  0.3280
11443TIP3    H155744   2.999   1.595   1.451  0.5083  0.0713  0.2550
11443TIP3    H255745   3.074   1.685   1.547 -0.8806  0.9819  0.5154
11444TIP3   OH255746   3.700   2.297  13.470 -0.7999 -0.7860 -0.3438
11444TIP3    H155747   3.622   2.260  13.429 -0.7116  0.6778 -1.9417
11444TIP3    H255748   3.693   2.391  13.455  1.3759 -0.6298 -0.7452
11445TIP3   OH255749   4.679   0.928   4.175  1.2446 -0.0975  0.3805
11445TIP3    H155750   4.718   1.008   4.140  1.0221  0.1559  0.7084
11445TIP3    H255751   4.636   0.955   4.256 -0.4891 -0.1621 -0.4699
11446TIP3   OH255752   3.222   2.305  17.032  0.5430 -0.1875 -0.5274
11446TIP3    H155753   3.220   2.254  17.113 -1.5618 -0.4905 -0.7109
11446TIP3    H255754   3.149   2.270  16.981 -0.3309  2.2925 -1.0931
11447TIP3   OH255755   3.605   5.669   5.621 -0.4584 -0.0200  0.5552
11447TIP3    H155756   3.674   5.623   5.668 -1.3144 -1.9128  0.0658
11447TIP3    H255757   3.624   5.652   5.528 -2.1394 -1.5331  0.4323
11448TIP3   OH255758   4.210   0.121  17.181  0.0542  0.2812  0.5945
11448TIP3    H155759   4.147   0.128  17.108  1.0926  0.2801 -0.3326
11448TIP3    H255760   4.203   0.030  17.210  0.1026  0.0954  0.0471
11449TIP3   OH255761   1.359   1.089  12.011 -0.3883  0.5388 -0.4181
11449TIP3    H155762   1.454   1.099  12.014 -0.0787 -1.1436 -2.3484
11449TIP3    H255763   1.340   1.069  11.919 -2.6047  0.7345 -0.0543
11450TIP3   OH255764   2.276   5.297  13.997  0.2469 -0.2648 -0.1949
11450TIP3    H155765   2.272   5.385  13.958 -0.7259 -0.7353 -1.2211
11450TIP3    H255766   2.254   5.311  14.089  1.1619  0.6932 -0.1033
11451TIP3   OH255767   6.401   5.676  16.033 -0.2482 -0.5977 -0.1223
11451TIP3    H155768   6.415   5.765  16.000  0.4205 -0.3430  0.8114
11451TIP3    H255769   6.456   5.621  15.977 -1.0731 -0.5093 -1.0461
11452TIP3   OH255770   1.167   6.173   5.331 -0.9152  0.0678  0.1934
11452TIP3    H155771   1.161   6.181   5.426 -0.3489 -2.6273  0.5365
11452TIP3    H255772   1.136   6.085   5.312  2.2743 -0.8397 -1.7078
11453TIP3   OH255773   1.391   0.825  16.111  0.9773  0.1126  0.0241
11453TIP3    H155774   1.450   0.781  16.171 -0.6634  0.7659  2.2369
11453TIP3    H255775   1.317   0.853  16.165  0.5835  3.0316 -1.7918
11454TIP3   OH255776   4.575   5.258   1.867  0.0282  0.3706  0.4214
11454TIP3    H155777   4.536   5.170   1.863  0.0385  0.1881  2.6511
11454TIP3    H255778   4.668   5.242   1.880 -0.1360  0.6243  2.2042
11455TIP3   OH255779   2.065   1.031   2.296 -0.2568 -0.3226 -0.1068
11455TIP3    H155780   2.043   0.977   2.371 -0.1257 -0.9931 -0.5476
11455TIP3    H255781   1.986   1.033   2.243 -0.2882 -0.0075 -0.0540
11456TIP3   OH255782   6.796   5.843   2.891 -0.0080  0.0426  0.3598
11456TIP3    H155783   6.719   5.875   2.937  0.2180  2.4446 -0.8141
11456TIP3    H255784   6.855   5.919   2.886  0.2544 -0.2321 -3.2477
11457TIP3   OH255785   6.428   2.308  14.785  0.7517  0.3322  0.0076
11457TIP3    H155786   6.451   2.271  14.700  1.5886  2.8373 -0.9699
11457TIP3    H255787   6.388   2.393  14.764 -1.0530  0.0838  2.0665
11458TIP3   OH255788   4.485   2.019   3.386 -0.5480  0.3353  0.1802
11458TIP3    H155789   4.440   2.050   3.308  0.0789 -0.3565 -0.4624
11458TIP3    H255790   4.484   1.924   3.380  0.4940  0.2918  0.4387
11459TIP3   OH255791   1.014   2.150  12.100 -0.8235  0.2849 -0.3438
11459TIP3    H155792   0.988   2.235  12.064 -0.4805 -0.1054 -1.5537
11459TIP3    H255793   0.932   2.102  12.108 -0.7937 -0.0350 -1.7388
11460TIP3   OH255794   1.441   3.325   6.328  0.3148 -0.3001 -0.4031
11460TIP3    H155795   1.491   3.268   6.387  3.4708  2.9219  0.3919
11460TIP3    H255796   1.358   3.339   6.373  1.2349 -0.7834  1.5521
11461TIP3   OH255797   4.415   1.913   2.461 -0.3344  0.7760  0.0872
11461TIP3    H155798   4.326   1.924   2.428 -1.9760  0.4769  3.9636
11461TIP3    H255799   4.442   2.001   2.488  0.6082  0.8556 -1.0046
11462TIP3   OH255800   2.083   2.616  11.630 -0.9248  0.0347  0.5079
11462TIP3    H155801   2.091   2.664  11.547 -0.6013  0.9983  1.0893
11462TIP3    H255802   2.113   2.677  11.697  0.1247 -1.2046  1.2104
11463TIP3   OH255803   4.267   2.973  15.440 -0.2130 -0.2178  0.0030
11463TIP3    H155804   4.224   3.056  15.461 -1.1249 -0.7809  0.3844
11463TIP3    H255805   4.197   2.914  15.414  0.5169 -0.6386 -1.0842
11464TIP3   OH255806   4.716   0.336   0.859  0.0562  0.4673  0.5231
11464TIP3    H155807   4.622   0.337   0.878  0.3644 -2.8493  3.1747
11464TIP3    H255808   4.725   0.274   0.787  0.3133 -0.7253  1.5549
11465TIP3   OH255809   2.885   0.269   1.582  0.1307 -0.3644 -0.5580
11465TIP3    H155810   2.816   0.246   1.644 -0.7680  1.5568 -0.7704
11465TIP3    H255811   2.839   0.303   1.506  1.2840  0.0756 -1.0831
11466TIP3   OH255812   4.535   3.568  12.940 -0.1086 -0.5353 -0.0794
11466TIP3    H155813   4.534   3.570  13.036  1.0447 -0.4670 -0.0569
11466TIP3    H255814   4.450   3.530  12.917 -0.9255  0.5812  0.9261
11467TIP3   OH255815   4.081   1.956   4.260 -0.3162  0.8450  0.2273
11467TIP3    H155816   4.030   1.924   4.185  0.5196  0.4746 -0.1966
11467TIP3    H255817   4.020   2.011   4.308 -0.6567  1.7283 -1.1475
11468TIP3   OH255818   2.106   6.076   3.433  0.2236  0.4309  0.3078
11468TIP3    H155819   2.078   6.045   3.519  0.3106  0.8625  0.4956
11468TIP3    H255820   2.094   6.171   3.437  0.0309  0.4315 -0.2287
11469TIP3   OH255821   4.206   0.046  13.735 -0.1667 -0.4844  0.2836
11469TIP3    H155822   4.274   0.112  13.751 -1.5725  1.2431 -0.4001
11469TIP3    H255823   4.248  -0.019  13.680  0.3509  1.8501 -2.3329
11470TIP3   OH255824   3.595   5.150   3.215 -0.5504  0.3731 -0.4236
11470TIP3    H155825   3.691   5.144   3.218 -0.6580 -2.1044  0.0483
11470TIP3    H255826   3.571   5.193   3.297  0.1183  0.0351 -0.0395
11471TIP3   OH255827   0.160   3.563  10.947 -0.3008  0.2279 -0.1299
11471TIP3    H155828   0.116   3.601  11.023  0.4472  1.3727 -0.2449
11471TIP3    H255829   0.112   3.598  10.872  0.4196  1.0015 -0.2388
11472TIP3   OH255830   1.304   1.218   0.854 -0.6497 -0.1673 -0.5296
11472TIP3    H155831   1.260   1.153   0.798 -0.3098 -0.6519 -0.2452
11472TIP3    H255832   1.376   1.251   0.800  0.3835 -1.4605 -0.0216
11473TIP3   OH255833   6.750   4.609  13.804 -0.0928 -0.0466 -0.0987
11473TIP3    H155834   6.714   4.555  13.734  1.3589  0.1105 -1.0163
11473TIP3    H255835   6.687   4.681  13.814 -1.9403 -1.7172  0.9969
11474TIP3   OH255836   5.826   6.347   3.136  0.3268  0.1601  0.4447
11474TIP3    H155837   5.751   6.358   3.195 -0.4883 -0.4192 -0.4539
11474TIP3    H255838   5.897   6.318   3.193 -0.1069  0.7684  1.3277
11475TIP3   OH255839   5.864   2.350  12.576  0.2888  0.2376 -0.2096
11475TIP3    H155840   5.860   2.414  12.505 -1.3110  0.3622 -0.0378
11475TIP3    H255841   5.804   2.280  12.549  0.9673 -0.5405  0.2436
11476TIP3   OH255842   3.001   6.208   6.420  0.4647 -0.1003  0.0779
11476TIP3    H155843   3.074   6.264   6.444  0.9836  0.3418 -2.3044
11476TIP3    H255844   2.932   6.268   6.392  0.0570 -0.5770  0.0333
11477TIP3   OH255845   1.069   3.424   3.879  0.1355  0.8797  0.3288
11477TIP3    H155846   1.027   3.374   3.809  1.5812  1.1352 -0.7797
11477TIP3    H255847   1.032   3.512   3.872  1.4593  1.3745 -1.2890
11478TIP3   OH255848   0.408   6.076  13.371 -0.0829 -0.0452  0.2995
11478TIP3    H155849   0.438   6.074  13.280 -0.1553 -0.7855  0.2868
11478TIP3    H255850   0.379   6.166  13.385 -0.4596 -0.0328 -0.5330
11479TIP3   OH255851   0.582   6.643   3.970  0.1420  0.1928  0.2586
11479TIP3    H155852   0.559   6.732   3.945 -1.5163  0.0277  1.1073
11479TIP3    H255853   0.626   6.607   3.892 -0.1592  1.3792 -0.4835
11480TIP3   OH255854   4.661   3.476   3.440  1.0142 -0.4881 -0.4569
11480TIP3    H155855   4.680   3.384   3.419  1.9860 -0.1395 -1.1824
11480TIP3    H255856   4.747   3.519   3.441  0.5720  0.4077 -0.0980
11481TIP3   OH255857   3.614   2.403   2.416  0.2193 -0.8878  0.2791
11481TIP3    H155858   3.572   2.348   2.483 -0.4328 -1.1696 -0.3539
11481TIP3    H255859   3.542   2.430   2.360  0.8204 -0.9654 -0.5345
11482TIP3   OH255860   4.606   6.751   0.681  0.1399 -0.0095  0.0634
11482TIP3    H155861   4.613   6.736   0.587  2.4279  2.0690 -0.1807
11482TIP3    H255862   4.562   6.835   0.689 -0.1574 -0.2335  0.8978
11483TIP3   OH255863   2.518   5.100   4.104  0.4645  0.3005  0.2037
11483TIP3    H155864   2.551   5.152   4.031 -0.0382  0.1359 -0.1475
11483TIP3    H255865   2.578   5.118   4.176  0.6137  0.9358 -0.0736
11484TIP3   OH255866   0.972   0.793  13.491 -0.0057 -0.0147  0.7509
11484TIP3    H155867   0.996   0.709  13.452 -0.5401 -0.2747  0.9697
11484TIP3    H255868   0.878   0.802  13.475  0.0943  0.6754  0.4893
11485TIP3   OH255869   0.010   2.754  11.181  0.8043  0.7467 -0.2899
11485TIP3    H155870  -0.013   2.669  11.219 -1.7301  1.2364 -0.5845
11485TIP3    H255871   0.067   2.732  11.106 -1.3844 -0.8966 -1.5837
11486TIP3   OH255872   5.160   4.643  14.828 -0.2171  0.1287  1.2144
11486TIP3    H155873   5.141   4.572  14.767  0.3949  1.2676 -0.3393
11486TIP3    H255874   5.181   4.597  14.910 -2.7066 -1.3668  1.1231
11487TIP3   OH255875   1.656   4.311   1.180  0.3854 -0.2846 -0.3478
11487TIP3    H155876   1.741   4.271   1.159  1.9350  1.9221  1.2520
11487TIP3    H255877   1.629   4.268   1.261  0.0158 -0.9051 -0.7945
11488TIP3   OH255878   5.975   1.686  12.746 -0.1263  0.0905  0.3676
11488TIP3    H155879   5.880   1.684  12.759 -0.4177 -0.1315 -1.5562
11488TIP3    H255880   6.010   1.712  12.831 -1.9039  0.1322  1.1275
11489TIP3   OH255881   4.459   2.087   3.091  0.1741 -0.3468 -0.2380
11489TIP3    H155882   4.414   2.070   3.009 -0.1380  0.8864 -0.3295
11489TIP3    H255883   4.552   2.079   3.070  0.0783 -0.5163 -0.5943
11490TIP3   OH255884   1.409   1.342  15.189  0.0515 -0.6987  0.2177
11490TIP3    H155885   1.337   1.330  15.251 -0.1390 -1.0798 -0.0698
11490TIP3    H255886   1.488   1.340  15.243 -0.1130 -1.0273  0.4486
11491TIP3   OH255887   0.538   2.037   0.666  0.2468 -0.1373  0.0101
11491TIP3    H155888   0.594   2.063   0.739 -0.5398 -0.3523  0.7029
11491TIP3    H255889   0.459   2.090   0.676 -0.0135 -0.4267 -0.4845
11492TIP3   OH255890   4.744   5.980   1.077 -0.4164 -0.1310  0.3840
11492TIP3    H155891   4.674   5.955   1.138  0.2360 -1.6557  0.5691
11492TIP3    H255892   4.790   6.051   1.120 -1.2778  0.2586  0.6821
11493TIP3   OH255893   2.366   4.616  13.837 -0.1550  0.3647  0.2343
11493TIP3    H155894   2.275   4.585  13.840 -0.3038  0.7831  0.1796
11493TIP3    H255895   2.396   4.592  13.749 -0.7397  1.6433 -0.3446
11494TIP3   OH255896   6.387   0.901  11.195 -0.0996  0.0505 -0.2108
11494TIP3    H155897   6.391   0.883  11.289  0.6533 -1.1688 -0.4551
11494TIP3    H255898   6.435   0.983  11.184  0.2004 -0.0338  0.4223
11495TIP3   OH255899   4.663   1.114   1.190 -0.2363 -0.2657  0.6286
11495TIP3    H155900   4.755   1.091   1.205 -0.7746 -0.7757  4.1271
11495TIP3    H255901   4.617   1.030   1.191 -0.9045  0.0948  0.6422
11496TIP3   OH255902   4.981   1.347  10.209 -0.2912  0.2646 -0.5463
11496TIP3    H155903   4.970   1.290  10.132  1.6032  1.1100 -1.4975
11496TIP3    H255904   5.069   1.328  10.240 -0.2798  1.4255  0.1822
11497TIP3   OH255905   4.360   6.268  11.079 -0.1259 -0.7282 -0.3343
11497TIP3    H155906   4.283   6.293  11.029  1.3012  0.3388 -2.1671
11497TIP3    H255907   4.400   6.197  11.029 -0.7007 -2.3615  1.4250
11498TIP3   OH255908   3.838   3.129   0.468  0.1361  0.0123 -0.4053
11498TIP3    H155909   3.758   3.180   0.458 -1.2193 -1.8420  0.3085
11498TIP3    H255910   3.853   3.091   0.382  0.9274  1.2295 -0.8344
11499TIP3   OH255911   0.714   3.371  15.046 -0.3216  0.4048 -1.1083
11499TIP3    H155912   0.777   3.299  15.052 -1.8756 -0.9099  0.2299
11499TIP3    H255913   0.629   3.328  15.042 -1.2063  2.1574 -2.2390
11500TIP3   OH255914   6.786   6.769   4.868 -0.8695 -0.1536 -0.1254
11500TIP3    H155915   6.814   6.700   4.807  0.5814 -0.6954  1.0949
11500TIP3    H255916   6.780   6.725   4.953 -0.6370  1.0608  0.5422
11501TIP3   OH255917   1.820   3.294   6.486  0.5422 -0.0187 -0.1295
11501TIP3    H155918   1.736   3.267   6.524 -1.0495  3.4907 -0.7826
11501TIP3    H255919   1.843   3.223   6.426 -1.4515 -1.5146  0.7475
11502TIP3   OH255920   5.396   5.087   5.107 -0.4349  0.0387 -0.1864
11502TIP3    H155921   5.395   5.133   5.023  0.3421  0.2003 -0.1136
11502TIP3    H255922   5.329   5.132   5.159  0.9586  1.7812  0.2224
11503TIP3   OH255923   0.910   0.034  14.939  0.0866  0.2528  0.0309
11503TIP3    H155924   0.817   0.035  14.963 -0.0540  0.5994 -0.5203
11503TIP3    H255925   0.950  -0.025  15.003 -0.5011  0.1408  0.3060
11504TIP3   OH255926   3.139   6.087   2.158 -0.2804  0.0576 -0.1728
11504TIP3    H155927   3.092   6.022   2.211 -0.2999  1.1709  1.2437
11504TIP3    H255928   3.142   6.049   2.071 -0.6682 -1.6522  0.5135
11505TIP3   OH255929   0.025   5.969   0.447 -0.3050  0.5583 -0.4181
11505TIP3    H155930  -0.053   5.922   0.478 -0.4651  1.1225  0.0555
11505TIP3    H255931   0.097   5.934   0.499 -0.5051  1.1891  0.3041
11506TIP3   OH255932   3.685   0.765  16.448 -0.1060  0.1076  0.2578
11506TIP3    H155933   3.685   0.777  16.543 -0.3726 -0.9213  0.3900
11506TIP3    H255934   3.772   0.731  16.427  0.1372  0.8218  0.0545
11507TIP3   OH255935   4.207   5.748   0.525  0.0592 -0.3269 -0.1161
11507TIP3    H155936   4.128   5.762   0.474  0.6772  2.6667 -0.4835
11507TIP3    H255937   4.200   5.810   0.597  2.5556  0.9793 -0.8706
11508TIP3   OH255938   3.208   1.743   1.107  0.6886  0.0932  0.0237
11508TIP3    H155939   3.194   1.656   1.071 -1.9561 -0.5793  2.2900
11508TIP3    H255940   3.277   1.732   1.172 -0.0246 -0.4726  0.6998
11509TIP3   OH255941   2.091   0.391  13.943 -0.1043 -0.0889  0.0022
11509TIP3    H155942   2.169   0.444  13.925 -0.5236  0.1552 -1.1727
11509TIP3    H255943   2.124   0.304  13.961  0.4961  0.2240  0.4434
11510TIP3   OH255944   0.352   4.848   2.161 -0.0235  0.3565  0.0901
11510TIP3    H155945   0.392   4.898   2.090 -0.0904  0.1134 -0.1193
11510TIP3    H255946   0.300   4.781   2.118 -0.0885  0.2245  0.3679
11511TIP3   OH255947   6.569   5.842  14.549  0.4048 -0.3195  0.6770
11511TIP3    H155948   6.493   5.790  14.525 -0.2049  0.0256  1.7969
11511TIP3    H255949   6.588   5.895  14.471  0.3045 -1.3379 -0.0544
11512TIP3   OH255950   5.670   0.970  12.680  0.6560 -0.3716  0.3413
11512TIP3    H155951   5.644   1.019  12.602 -0.3108  2.6120  2.3839
11512TIP3    H255952   5.604   0.901  12.687  0.0287  0.0803 -0.7879
11513TIP3   OH255953   4.362   2.554   5.954 -0.0791  0.1474  0.4117
11513TIP3    H155954   4.298   2.624   5.944 -1.0118 -0.5915  1.0806
11513TIP3    H255955   4.353   2.526   6.045  1.7538  0.5501  0.7641
11514TIP3   OH255956   2.288   2.105   6.021 -0.8725 -0.4282  0.0320
11514TIP3    H155957   2.225   2.177   6.023 -0.0278  0.3353 -0.1408
11514TIP3    H255958   2.366   2.143   5.981  0.8399 -0.4246  3.0810
11515TIP3   OH255959   4.497   6.383   0.478  0.1163  0.0150 -0.1823
11515TIP3    H155960   4.552   6.404   0.554 -1.8106  0.3231  1.2163
11515TIP3    H255961   4.476   6.290   0.490  1.1671 -0.3910 -1.3093
11516TIP3   OH255962   2.025   5.238  16.791 -0.0257 -0.2958  0.3311
11516TIP3    H155963   2.115   5.265  16.773 -0.2340  1.5029  1.6049
11516TIP3    H255964   2.033   5.153  16.835  1.0552 -0.1550  0.4296
11517TIP3   OH255965   2.436   2.492  16.898 -0.2134 -0.0994  0.2577
11517TIP3    H155966   2.405   2.522  16.983  0.2245 -0.6835  0.6396
11517TIP3    H255967   2.357   2.483  16.844 -1.2861 -4.4215  2.0696
11518TIP3   OH255968   1.896   5.575   3.004 -0.1818  0.8270  0.5247
11518TIP3    H155969   1.919   5.538   2.919 -1.4290  0.7141  0.2076
11518TIP3    H255970   1.849   5.656   2.982  0.7182  1.5419  1.1560
11519TIP3   OH255971   3.686   4.850   0.328  0.5078 -0.1199 -0.6751
11519TIP3    H155972   3.692   4.756   0.344  0.5025 -0.2228 -1.2590
11519TIP3    H255973   3.757   4.869   0.266  0.6335  0.2953 -0.4129
11520TIP3   OH255974   4.040   0.785  13.264  0.3713 -0.0907  0.0994
11520TIP3    H155975   4.005   0.700  13.293 -2.9717  1.3753  0.8017
11520TIP3    H255976   4.004   0.848  13.325  0.0622  2.2139 -2.3062
11521TIP3   OH255977   2.749   5.934   5.740  0.3902  0.4120  0.1639
11521TIP3    H155978   2.737   6.029   5.735 -0.3797  0.2767 -0.8802
11521TIP3    H255979   2.674   5.903   5.790 -1.0181  0.0792 -2.0436
11522TIP3   OH255980   0.080   1.047   4.156  0.5723 -0.0161 -0.4348
11522TIP3    H155981   0.012   1.081   4.097 -0.6477 -0.0181  0.9140
11522TIP3    H255982   0.069   1.098   4.236  1.1043 -1.1320  0.3708
11523TIP3   OH255983   0.012   3.097  12.447  0.4618 -0.1337 -0.5707
11523TIP3    H155984   0.017   3.141  12.361 -0.1398 -1.7994 -1.5075
11523TIP3    H255985   0.089   3.039  12.449  0.7953  0.3220  0.2892
11524TIP3   OH255986   6.405   1.405  13.700 -0.3953  0.1155  0.1133
11524TIP3    H155987   6.378   1.367  13.616 -2.2531  2.0609 -0.2473
11524TIP3    H255988   6.384   1.498  13.693 -0.6178  0.3490  2.7532
11525TIP3   OH255989   4.553   0.422  14.755 -0.5482 -0.4222  0.8540
11525TIP3    H155990   4.636   0.443  14.798 -1.1551  2.1999  0.9417
11525TIP3    H255991   4.563   0.456  14.666 -1.4468 -0.2552  0.8110
11526TIP3   OH255992   3.935   6.703  14.027 -0.2610  0.5330  0.1521
11526TIP3    H155993   3.891   6.786  14.048  1.2189  0.9241  1.9931
11526TIP3    H255994   3.900   6.641  14.090 -0.8149 -0.0738 -0.7400
11527TIP3   OH255995   0.677   2.555   3.745  0.2195 -0.1170  0.2686
11527TIP3    H155996   0.623   2.604   3.807 -1.1153 -1.7596  0.4558
11527TIP3    H255997   0.655   2.594   3.660 -0.7514 -0.3077  0.4207
11528TIP3   OH255998   3.030   1.719  16.557 -0.4198 -0.5126 -0.9229
11528TIP3    H155999   2.976   1.789  16.593 -0.6658 -0.7093 -0.9056
11528TIP3    H256000   3.111   1.763  16.530  0.7684 -0.7171  1.9951
11529TIP3   OH256001   6.712   2.662   2.145  1.0148 -0.6503 -0.4393
11529TIP3    H156002   6.696   2.741   2.093 -0.3449 -0.1236  0.6967
11529TIP3    H256003   6.741   2.696   2.231  0.5838 -1.3857  0.0050
11530TIP3   OH256004   3.787   6.571  15.434 -0.1995  0.8405  0.1807
11530TIP3    H156005   3.693   6.578  15.420 -0.1642 -0.3148 -0.8487
11530TIP3    H256006   3.826   6.611  15.357  0.1061 -0.2130 -0.2305
11531TIP3   OH256007   6.695   3.052   3.338  0.4729 -0.2509 -0.4810
11531TIP3    H156008   6.611   3.085   3.307  0.7380 -0.2894 -1.2856
11531TIP3    H256009   6.757   3.079   3.270  1.2708  0.5872  0.5572
11532TIP3   OH256010   5.483   1.417   1.783 -0.0354  0.7392  0.1186
11532TIP3    H156011   5.492   1.502   1.740  0.8115  0.3200 -0.5560
11532TIP3    H256012   5.496   1.353   1.713 -0.6977  0.0489  0.6109
11533TIP3   OH256013   4.427   4.343  12.518  0.5187  0.1045 -0.0768
11533TIP3    H156014   4.435   4.285  12.441 -0.9781  1.6255 -1.4566
11533TIP3    H256015   4.504   4.400  12.513 -0.0363  0.8025 -1.0197
11534TIP3   OH256016   2.788   4.065  13.497  0.1936 -0.0734 -0.2012
11534TIP3    H156017   2.753   3.982  13.528 -2.6360  0.6008 -1.3379
11534TIP3    H256018   2.799   4.118  13.577 -4.2124  0.6353  0.1460
11535TIP3   OH256019   3.335   6.544  14.458  0.1603  0.2837  0.2923
11535TIP3    H156020   3.386   6.510  14.531  0.5177 -0.1798 -0.1712
11535TIP3    H256021   3.282   6.614  14.497  0.0287 -0.2448  1.0803
11536TIP3   OH256022   3.412   1.093  11.085  0.2172 -0.4578  0.0406
11536TIP3    H156023   3.369   1.167  11.043 -1.7635 -1.5565 -0.0039
11536TIP3    H256024   3.500   1.090  11.046  0.2008  1.5826 -0.2414
11537TIP3   OH256025   5.788   3.658   1.996  0.1988 -0.4554 -0.3451
11537TIP3    H156026   5.719   3.600   2.029 -0.4299 -0.5584 -1.7769
11537TIP3    H256027   5.741   3.729   1.953  0.9843 -0.4428 -1.2158
11538TIP3   OH256028   4.986   6.156  14.457 -0.0681 -0.0615 -0.0778
11538TIP3    H156029   4.936   6.111  14.525 -1.6227  1.0371 -0.4505
11538TIP3    H256030   5.069   6.107  14.452 -0.1311 -0.4759  2.1982
11539TIP3   OH256031   0.679   0.175  11.390  0.0719 -0.7410 -0.0456
11539TIP3    H156032   0.619   0.116  11.345 -1.5983 -0.2447  1.4419
11539TIP3    H256033   0.640   0.262  11.378 -0.8265 -0.6481  2.8108
11540TIP3   OH256034   3.479   1.453   4.747  0.2663  0.2465  0.3858
11540TIP3    H156035   3.528   1.516   4.695 -0.6428 -0.1867 -1.0604
11540TIP3    H256036   3.413   1.418   4.687 -0.9964 -0.1025  1.9057
11541TIP3   OH256037   6.514   6.095  13.897 -0.2989 -0.4320 -0.3238
11541TIP3    H156038   6.508   6.099  13.993 -0.9735 -2.4302 -0.2245
11541TIP3    H256039   6.577   6.025  13.880  0.0150  0.0907 -1.3399
11542TIP3   OH256040   1.840   5.514  15.352 -0.6595  0.6558 -0.0126
11542TIP3    H156041   1.904   5.533  15.283 -1.6607  2.3556 -0.5569
11542TIP3    H256042   1.820   5.421  15.341  0.2786  0.5460 -1.0728
11543TIP3   OH256043   0.137   1.991   4.598 -0.2718 -0.2291  0.1015
11543TIP3    H156044   0.142   1.985   4.503 -0.4209  1.3451 -0.0255
11543TIP3    H256045   0.076   2.063   4.615 -0.1073 -0.3691  1.3866
11544TIP3   OH256046   3.553   6.606   6.056 -0.0114  0.0077 -0.5944
11544TIP3    H156047   3.461   6.583   6.071 -0.3956  1.2968 -0.9155
11544TIP3    H256048   3.594   6.522   6.036 -1.1910 -0.5441 -0.8397
11545TIP3   OH256049   5.045   5.484   0.498 -0.6125 -0.0082 -0.3057
11545TIP3    H156050   5.042   5.414   0.433 -0.8873 -0.6065  0.3352
11545TIP3    H256051   4.998   5.449   0.573 -0.1249  0.5921  0.2951
11546TIP3   OH256052   6.711   1.190   6.247  0.2765 -0.1131 -0.5404
11546TIP3    H156053   6.695   1.265   6.190  0.4878  0.4241  0.0911
11546TIP3    H256054   6.760   1.227   6.321  0.0712 -0.8091 -0.0539
11547TIP3   OH256055   2.185   4.130  15.574 -0.1810 -0.0668 -0.1884
11547TIP3    H156056   2.185   4.219  15.539  0.8156  1.0458  2.3206
11547TIP3    H256057   2.256   4.086  15.528  1.6417  1.5784  0.8805
11548TIP3   OH256058   2.800   3.445   4.030 -0.3790 -0.3951 -0.1401
11548TIP3    H156059   2.764   3.498   4.101 -1.3417  0.4238 -1.2140
11548TIP3    H256060   2.888   3.480   4.015  0.7086 -1.9400  2.0127
11549TIP3   OH256061   5.424   0.991   3.452 -0.4265 -0.1971  0.2783
11549TIP3    H156062   5.393   1.025   3.368 -0.0230  1.1822  0.6676
11549TIP3    H256063   5.519   0.997   3.447 -0.2277 -2.7742 -0.2348
11550TIP3   OH256064   4.185   6.301   0.133 -0.4576  0.0783  0.4371
11550TIP3    H156065   4.160   6.209   0.120 -1.3649  0.2889  0.6470
11550TIP3    H256066   4.171   6.316   0.226 -1.9026  0.8726  0.1284
11551TIP3   OH256067   1.958   4.585  11.569  0.0598  0.3848  0.4360
11551TIP3    H156068   1.982   4.542  11.487  1.7103  1.2493  0.4333
11551TIP3    H256069   1.886   4.531  11.604  0.4978 -1.0006 -0.6973
11552TIP3   OH256070   3.506   0.388  14.587  0.1671  0.1466 -0.3795
11552TIP3    H156071   3.563   0.443  14.639  0.0831 -1.0373  1.0380
11552TIP3    H256072   3.509   0.303  14.630 -1.1848 -0.4459 -1.3785
11553TIP3   OH256073   1.491   2.592  16.320  0.0618  0.5814 -0.4537
11553TIP3    H156074   1.520   2.550  16.239  2.1902 -0.3622  0.7154
11553TIP3    H256075   1.398   2.568  16.328  0.1598 -0.3815 -1.9389
11554TIP3   OH256076   0.798   6.358  12.169  0.2677  0.2347  0.0249
11554TIP3    H156077   0.724   6.319  12.124  0.3766  0.5416 -0.4240
11554TIP3    H256078   0.799   6.316  12.255 -0.3164  0.1007 -0.0317
11555TIP3   OH256079   2.402   5.022  12.429  0.4025  0.1903  0.4392
11555TIP3    H156080   2.374   5.106  12.391 -0.1293  0.1268  0.6815
11555TIP3    H256081   2.493   5.013  12.402 -0.6754 -1.2848 -3.3952
11556TIP3   OH256082   5.300   0.939  14.867 -0.3000  0.5725  0.3785
11556TIP3    H156083   5.273   0.896  14.786 -1.3313  0.5683  0.7110
11556TIP3    H256084   5.218   0.963  14.910  0.2414  2.0265  0.6600
11557TIP3   OH256085   4.726   6.068   2.708  0.2498  0.5675 -0.4010
11557TIP3    H156086   4.705   6.095   2.618  0.1209 -2.1188 -1.2687
11557TIP3    H256087   4.809   6.022   2.700  0.4526  0.6675  0.9705
11558TIP3   OH256088   5.485   6.220  12.095 -0.5878 -0.6497 -0.2152
11558TIP3    H156089   5.518   6.176  12.017 -0.3477  0.5272 -0.7931
11558TIP3    H256090   5.421   6.159  12.131  1.1618 -2.3665  0.1503
11559TIP3   OH256091   4.540   6.298   1.031 -0.6229 -0.3539 -0.0690
11559TIP3    H156092   4.571   6.275   0.944 -1.3283 -0.1644 -0.3826
11559TIP3    H256093   4.597   6.250   1.091 -0.7731 -1.2990 -0.6610
11560TIP3   OH256094   1.190   4.361  13.238 -0.2848  0.0068  0.1489
11560TIP3    H156095   1.159   4.426  13.175  0.3650  0.4507  0.2686
11560TIP3    H256096   1.285   4.376  13.241  0.1450 -2.0817 -1.1077
11561TIP3   OH256097   2.679   1.609   5.489 -0.0792 -0.3478  0.0414
11561TIP3    H156098   2.670   1.685   5.546 -1.1515 -0.2877 -0.1946
11561TIP3    H256099   2.603   1.612   5.432  1.3705  0.0567 -1.9734
11562TIP3   OH256100   5.978   4.429  16.788 -0.4788 -0.0299  0.2823
11562TIP3    H156101   5.888   4.400  16.800 -0.3778 -1.3258 -1.7213
11562TIP3    H256102   5.971   4.501  16.725 -0.0731 -0.6592 -0.5005
11563TIP3   OH256103   5.941   4.527   0.071  0.2506  0.1180  0.3659
11563TIP3    H156104   6.005   4.510   0.141  1.6867  0.1158 -0.9057
11563TIP3    H256105   5.970   4.471  -0.002 -1.6207 -0.4018 -0.0246
11564TIP3   OH256106   2.725   3.157  16.916  0.4207 -0.0860 -0.1351
11564TIP3    H156107   2.727   3.071  16.873 -0.2687 -0.0420 -0.2688
11564TIP3    H256108   2.745   3.220  16.847 -1.1658  0.0256 -0.5299
11565TIP3   OH256109   6.121   3.846   4.854  0.3799 -0.1531 -0.1896
11565TIP3    H156110   6.048   3.784   4.861  0.0255  0.3034  0.2777
11565TIP3    H256111   6.109   3.888   4.769  0.5921 -0.6905 -0.4845
11566TIP3   OH256112   0.324   4.940   4.046  0.6497 -0.2347  0.0761
11566TIP3    H156113   0.342   4.964   4.137  1.1102 -3.7931  1.0895
11566TIP3    H256114   0.235   4.903   4.048  0.4312  0.1993 -1.0611
11567TIP3   OH256115   2.362   6.315  16.087 -0.3538  0.0694 -0.2309
11567TIP3    H156116   2.440   6.344  16.134  1.0083 -2.0851 -0.9930
11567TIP3    H256117   2.306   6.276  16.155 -1.0466  1.9942  0.3820
11568TIP3   OH256118   2.314   5.137  11.569 -0.2491  0.5005  0.3401
11568TIP3    H156119   2.342   5.070  11.506 -3.8295  0.4582 -1.4817
11568TIP3    H256120   2.277   5.087  11.642  0.2985  0.5286  0.6391
11569TIP3   OH256121   2.290   3.940  16.523 -0.6707  0.1480 -0.2709
11569TIP3    H156122   2.315   3.972  16.436 -2.0047  0.7494 -0.4659
11569TIP3    H256123   2.202   3.903  16.510 -1.0944  0.6943  0.9040
11570TIP3   OH256124   0.793   2.535   0.375  0.1448  0.5141  0.1332
11570TIP3    H156125   0.827   2.537   0.285 -2.5636  0.5407 -0.9900
11570TIP3    H256126   0.815   2.448   0.407  0.0227  0.0058 -1.0881
11571TIP3   OH256127   0.802   0.051  16.758  0.0439 -0.0624 -0.2192
11571TIP3    H156128   0.718   0.094  16.741  0.7495  0.7194 -1.9588
11571TIP3    H256129   0.865   0.103  16.709  1.5375 -0.7567  0.8941
11572TIP3   OH256130   1.451   4.556  13.590  0.6474  0.3039  0.1666
11572TIP3    H156131   1.511   4.610  13.641 -0.7162  0.2557  1.9518
11572TIP3    H256132   1.397   4.512  13.656 -1.1463  0.1227 -1.3317
11573TIP3   OH256133   5.631   2.575   5.291  0.2694 -0.6725  0.2655
11573TIP3    H156134   5.558   2.561   5.230 -0.1999  0.0136  0.6540
11573TIP3    H256135   5.678   2.491   5.293  1.1376 -0.3097 -2.1131
11574TIP3   OH256136   2.778   1.945  10.640 -0.3466  0.3884 -0.1372
11574TIP3    H156137   2.820   1.864  10.612 -0.8885  0.4222 -1.1187
11574TIP3    H256138   2.728   1.921  10.718 -0.8447 -0.3421 -0.6631
11575TIP3   OH256139   3.877   1.720  11.175 -0.0526 -0.0280  0.7465
11575TIP3    H156140   3.973   1.729  11.178  0.0946 -1.3829  0.4702
11575TIP3    H256141   3.861   1.646  11.117 -1.3706  1.3587 -0.7361
11576TIP3   OH256142   3.605   3.918  10.368  1.0077  0.2973  0.6134
11576TIP3    H156143   3.687   3.892  10.325  0.7171 -0.7040  0.6382
11576TIP3    H256144   3.550   3.839  10.364  0.9916  0.1274  2.8479
11577TIP3   OH256145   5.289   5.298  14.160  0.2283 -0.7841 -0.1539
11577TIP3    H156146   5.308   5.273  14.070 -0.7465  1.9013 -1.1838
11577TIP3    H256147   5.194   5.296  14.166  0.2294  0.3513  0.4011
11578TIP3   OH256148   2.592   3.609   2.370 -0.3797 -0.5898  0.6668
11578TIP3    H156149   2.497   3.612   2.354  0.0065  1.2814 -1.9037
11578TIP3    H256150   2.609   3.684   2.427 -0.5674 -1.7883  2.3689
11579TIP3   OH256151   2.185   1.429   0.436 -0.0478 -0.0617  0.6698
11579TIP3    H156152   2.246   1.371   0.482  0.7608 -0.6389 -1.0609
11579TIP3    H256153   2.234   1.460   0.360 -0.2906  3.3229  1.7695
11580TIP3   OH256154   1.436   3.441   5.361  0.3186  0.3807  0.1539
11580TIP3    H156155   1.406   3.453   5.271  0.6349  0.9447  0.1180
11580TIP3    H256156   1.449   3.347   5.371  0.2524  0.3161 -0.3791
11581TIP3   OH256157   0.105   5.536  17.112  0.3823  0.0542 -0.3171
11581TIP3    H156158   0.078   5.623  17.084  0.4225 -0.1198 -0.9217
11581TIP3    H256159   0.171   5.509  17.047 -0.4436 -0.8740 -0.8081
11582TIP3   OH256160   1.921   0.281  11.287  0.1841  0.0124  0.1861
11582TIP3    H156161   1.881   0.200  11.317 -0.0347 -0.1465 -0.5088
11582TIP3    H256162   2.006   0.284  11.332  1.0393 -1.5684 -1.1864
11583TIP3   OH256163   5.176   0.607  12.587  0.0165 -0.2566 -0.2723
11583TIP3    H156164   5.223   0.622  12.669  0.0656 -0.0653 -0.3362
11583TIP3    H256165   5.195   0.684  12.533  0.7504 -0.8062 -0.8292
11584TIP3   OH256166   4.598   5.847   3.722  0.0250 -0.3696  0.0725
11584TIP3    H156167   4.648   5.846   3.641 -0.6265 -0.6178 -0.3346
11584TIP3    H256168   4.520   5.899   3.702 -0.6365 -1.2714  0.2215
11585TIP3   OH256169   1.666   5.978  11.365  0.2522  0.2653 -0.4118
11585TIP3    H156170   1.734   6.035  11.401  0.5657  0.0670 -0.6889
11585TIP3    H256171   1.706   5.938  11.288 -0.6576  1.2361 -1.4190
11586TIP3   OH256172   3.719   0.421   2.913  0.3769 -0.1737  0.4172
11586TIP3    H156173   3.789   0.378   2.962 -0.1958 -0.2534  1.1900
11586TIP3    H256174   3.697   0.360   2.843 -0.2077 -1.0204  1.3114
11587TIP3   OH256175   5.025   5.314  13.862  0.0993 -0.2374  0.0636
11587TIP3    H156176   5.016   5.407  13.842  2.2373  0.2197  0.9851
11587TIP3    H256177   4.953   5.273  13.815 -1.1189  1.9092 -0.0769
11588TIP3   OH256178   3.522   3.744  13.837 -0.1556  0.4188  0.1192
11588TIP3    H156179   3.461   3.690  13.886  2.1563 -1.1227  1.5138
11588TIP3    H256180   3.500   3.729  13.745 -0.4679 -1.8847  0.5172
11589TIP3   OH256181   0.998   6.540   4.503 -0.4979 -0.0964  0.1618
11589TIP3    H156182   0.974   6.447   4.510  0.0398 -0.2638 -0.1599
11589TIP3    H256183   1.005   6.570   4.593 -0.6089 -0.3892  0.2687
11590TIP3   OH256184   3.352   4.050  14.965  0.1167  0.0820 -0.7197
11590TIP3    H156185   3.328   4.055  15.057  0.4944  2.0307 -0.6657
11590TIP3    H256186   3.327   3.962  14.938  3.1590 -1.8656  2.0962
11591TIP3   OH256187   1.712   3.245  13.732  0.4406 -0.4868  0.6751
11591TIP3    H156188   1.681   3.155  13.725  1.6611 -1.0290  1.7101
11591TIP3    H256189   1.633   3.297  13.751 -0.4410 -1.1436 -1.0039
11592TIP3   OH256190   5.456   1.343  13.635 -0.7661  0.2879 -0.3900
11592TIP3    H156191   5.528   1.280  13.635 -0.6633  0.4023 -0.8363
11592TIP3    H256192   5.452   1.375  13.545 -1.2791  0.3909 -0.3357
11593TIP3   OH256193   2.547   3.868   1.325  0.0531 -0.7074 -0.1615
11593TIP3    H156194   2.576   3.777   1.319  0.9858 -0.3159 -2.5255
11593TIP3    H256195   2.600   3.915   1.260 -0.3263  1.5605  1.0621
11594TIP3   OH256196   2.154   0.470  14.489 -0.3356  0.0026 -0.0452
11594TIP3    H156197   2.132   0.469  14.396 -1.6055  2.0304  0.1512
11594TIP3    H256198   2.167   0.563  14.509 -1.1495 -0.2722  2.0027
11595TIP3   OH256199   1.917   5.439  12.957  0.0401  0.2822  0.0230
11595TIP3    H156200   2.011   5.448  12.973 -0.2988  1.0017  1.9212
11595TIP3    H256201   1.910   5.416  12.864  2.0559  0.6182 -0.2556
11596TIP3   OH256202   3.038   5.561   1.319  0.2081 -0.2126  0.7343
11596TIP3    H156203   3.036   5.623   1.392  0.4485 -0.9808  1.4018
11596TIP3    H256204   3.026   5.616   1.241 -1.3619  0.4867  1.4183
11597TIP3   OH256205   2.708   0.198   2.925 -0.3443 -0.2096 -0.3608
11597TIP3    H156206   2.740   0.110   2.947 -1.0873 -0.4243 -0.0970
11597TIP3    H256207   2.646   0.219   2.995 -0.9772  0.0794 -0.9990
11598TIP3   OH256208   6.473   0.444  14.910 -0.4725  0.2466  0.3278
11598TIP3    H156209   6.550   0.393  14.883 -1.4681 -1.1890  0.0678
11598TIP3    H256210   6.505   0.533  14.920  0.9357 -0.0379 -1.1927
11599TIP3   OH256211   6.534   6.747   0.636 -0.1835 -0.2603  0.4409
11599TIP3    H156212   6.615   6.753   0.586 -0.9956 -0.8951 -1.0054
11599TIP3    H256213   6.473   6.803   0.589 -0.2966  1.1748  2.2027
11600TIP3   OH256214   3.749   4.883  13.438 -0.5828 -0.0695  0.1607
11600TIP3    H156215   3.801   4.852  13.512 -0.4378 -0.2210 -0.0059
11600TIP3    H256216   3.670   4.828  13.440 -1.3963  1.0741  1.2560
11601TIP3   OH256217   2.671   1.621   0.630 -0.2848  0.2517  0.2893
11601TIP3    H156218   2.645   1.599   0.719 -1.6004  0.1109 -0.0923
11601TIP3    H256219   2.702   1.538   0.593  0.0404  0.2585  0.5522
11602TIP3   OH256220   4.774   6.096   3.085  0.3742  0.3854  0.0620
11602TIP3    H156221   4.795   6.185   3.059  1.4640  0.3287  0.6999
11602TIP3    H256222   4.745   6.054   3.004 -0.5900  1.4277 -0.1597
11603TIP3   OH256223   0.028   6.464  15.012  0.1340 -0.3798  0.3869
11603TIP3    H156224   0.119   6.495  15.018 -0.4942  1.3478  1.7520
11603TIP3    H256225   0.033   6.388  14.953  2.5935 -0.9089  1.1338
11604TIP3   OH256226   5.521   4.748   1.609 -0.1461 -0.3766  0.1438
11604TIP3    H156227   5.578   4.699   1.669 -0.7458 -1.2759 -0.0042
11604TIP3    H256228   5.576   4.766   1.533  0.5943  0.6887  0.8928
11605TIP3   OH256229   4.778   5.677   1.431 -0.4237  0.2238  0.3514
11605TIP3    H156230   4.867   5.667   1.466  0.6983  1.0533 -2.0761
11605TIP3    H256231   4.735   5.735   1.493  0.9727  0.4600  1.1553
11606TIP3   OH256232   5.237   4.400  10.858  0.2867  0.1224  0.3424
11606TIP3    H156233   5.285   4.318  10.869  0.2087  0.0912  0.4474
11606TIP3    H256234   5.151   4.383  10.896  0.0506  0.0475 -0.2183
11607TIP3   OH256235   6.499   5.817   0.476  0.5116  0.3728 -0.0591
11607TIP3    H156236   6.460   5.748   0.529  0.7199 -0.2961 -0.7632
11607TIP3    H256237   6.427   5.851   0.423  0.5261  0.3278 -0.1073
11608TIP3   OH256238   0.870   4.463  16.830  0.0638  0.4996  0.5518
11608TIP3    H156239   0.877   4.391  16.768  0.5525 -0.1998  1.3967
11608TIP3    H256240   0.957   4.471  16.869 -0.1546  1.1175  0.9371
11609TIP3   OH256241   2.956   0.358  16.190 -0.2860 -0.4564 -0.0792
11609TIP3    H156242   2.920   0.377  16.103 -2.2371  0.3790  0.8373
11609TIP3    H256243   3.027   0.421  16.201 -0.9596  0.4202 -0.5480
11610TIP3   OH256244   0.106   6.690  10.949  0.2108 -0.3218  0.2076
11610TIP3    H156245   0.015   6.710  10.928  0.0974  0.8141  1.5883
11610TIP3    H256246   0.115   6.596  10.932 -1.2148 -0.4460  0.0527
11611TIP3   OH256247   3.753   3.263   0.792  0.0874  0.0122  0.0906
11611TIP3    H156248   3.834   3.235   0.834  0.1362 -2.0312 -1.2657
11611TIP3    H256249   3.700   3.184   0.787 -1.3204  0.9585 -0.5667
11612TIP3   OH256250   6.525   2.424   4.675  0.2572 -0.0618 -0.1877
11612TIP3    H156251   6.583   2.456   4.744 -1.6987  1.5266  0.8219
11612TIP3    H256252   6.570   2.445   4.593  1.6435 -0.0456  0.5437
11613TIP3   OH256253   0.254   5.566  12.631  0.4653  0.0670  0.0600
11613TIP3    H156254   0.272   5.586  12.539  1.3469  0.1363  0.2455
11613TIP3    H256255   0.182   5.502  12.627  0.6936 -0.1592 -0.6927
11614TIP3   OH256256   5.224   4.713   1.583  0.1005 -0.3804 -0.2178
11614TIP3    H156257   5.176   4.680   1.658 -0.5386 -2.1860 -1.3640
11614TIP3    H256258   5.316   4.696   1.603  0.0054 -0.1132  0.4717
11615TIP3   OH256259   3.590   2.422  17.003 -0.0767 -0.0949 -0.3611
11615TIP3    H156260   3.679   2.442  16.975  0.0573  0.1948  0.2578
11615TIP3    H256261   3.588   2.327  17.013 -0.2062 -0.2447 -1.5871
11616TIP3   OH256262   6.528   1.710   1.139 -0.0731 -0.0893 -0.3624
11616TIP3    H156263   6.550   1.788   1.190 -1.6317 -0.1133  0.4006
11616TIP3    H256264   6.436   1.723   1.114  0.4172 -0.4561 -2.5078
11617TIP3   OH256265   3.031   0.556  11.830 -0.4555  0.3751  0.0943
11617TIP3    H156266   3.113   0.587  11.791 -1.2181  1.3542 -0.7739
11617TIP3    H256267   2.965   0.619  11.801 -1.3983  0.0320  1.3950
11618TIP3   OH256268   0.772   1.678  11.521  0.6043 -0.2135  0.2435
11618TIP3    H156269   0.750   1.664  11.613  0.6967 -0.6762  0.2015
11618TIP3    H256270   0.868   1.678  11.519  0.6112 -1.0568  0.0371
11619TIP3   OH256271   4.793   6.430   3.265 -0.5286  0.1662 -0.1055
11619TIP3    H156272   4.757   6.464   3.347 -0.1574 -1.4838  0.7761
11619TIP3    H256273   4.730   6.456   3.199 -0.5250  2.0712  0.5859
11620TIP3   OH256274   1.945   5.495  12.652  0.5870 -0.1532  0.2409
11620TIP3    H156275   1.898   5.569  12.689  0.0919 -0.5701  0.4640
11620TIP3    H256276   2.006   5.534  12.589 -0.6279  0.3455 -0.6729
11621TIP3   OH256277   6.562   5.053  13.943 -0.4141  0.1579 -0.1120
11621TIP3    H156278   6.476   5.087  13.970 -1.1449 -0.8380 -1.0998
11621TIP3    H256279   6.585   5.105  13.866 -0.2109  0.2941  0.0382
11622TIP3   OH256280   5.445   4.511  11.258 -0.0695 -0.0443  0.3485
11622TIP3    H156281   5.399   4.594  11.244  0.0368 -0.3839 -2.3458
11622TIP3    H256282   5.376   4.447  11.273 -0.4035 -0.1283 -1.3893
11623TIP3   OH256283   4.938   2.646  15.624 -0.5550 -0.4720  0.4626
11623TIP3    H156284   4.869   2.662  15.560 -0.8456  0.0595  0.9063
11623TIP3    H256285   4.892   2.633  15.707 -0.1264 -0.1912  0.7464
11624TIP3   OH256286   1.506   4.108   0.164  0.3399 -0.5889 -0.4999
11624TIP3    H156287   1.528   4.123   0.256  0.5360 -1.1443 -0.4480
11624TIP3    H256288   1.582   4.139   0.115 -0.0447  0.3393 -0.5253
11625TIP3   OH256289   6.491   1.286  15.138  0.3123 -0.6343 -0.4282
11625TIP3    H156290   6.398   1.307  15.141  0.5569  0.4165  0.1690
11625TIP3    H256291   6.523   1.330  15.059  0.4756 -0.2261 -0.1382
11626TIP3   OH256292   3.474   1.120   5.581  0.1661 -0.5105  0.0649
11626TIP3    H156293   3.472   1.203   5.629 -0.7242  0.5612 -1.7095
11626TIP3    H256294   3.546   1.130   5.519 -0.3876 -0.7438 -0.6358
11627TIP3   OH256295   5.889   6.254  12.185 -0.0877 -0.2359  0.3701
11627TIP3    H156296   5.877   6.348  12.197  0.2017 -0.2189  0.5326
11627TIP3    H256297   5.847   6.214  12.262  1.3798 -0.1481  1.2495
11628TIP3   OH256298   2.855   0.328  12.552  0.3714 -0.2258 -0.8255
11628TIP3    H156299   2.759   0.336  12.547  0.3172 -1.1106 -1.3742
11628TIP3    H256300   2.882   0.401  12.608 -0.7579 -0.8158  0.5533
11629TIP3   OH256301   2.793   0.937   5.905 -0.1177  0.1312 -0.0297
11629TIP3    H156302   2.729   0.917   5.837  0.9444 -0.7232 -0.8212
11629TIP3    H256303   2.841   1.013   5.870  0.2233 -0.1132 -0.0949
11630TIP3   OH256304   0.187   4.388  12.499 -0.6479  0.4591  0.6810
11630TIP3    H156305   0.101   4.383  12.458  0.1303 -1.0835 -0.8526
11630TIP3    H256306   0.238   4.317  12.460  1.1103  0.8370  2.1030
11631TIP3   OH256307   1.561   3.712   1.601 -0.6415 -0.1912 -0.0600
11631TIP3    H156308   1.644   3.727   1.647  0.8872  0.0564 -2.7101
11631TIP3    H256309   1.497   3.700   1.671  1.2774  1.3838  2.1195
11632TIP3   OH256310   1.228   4.283  14.456 -0.2597 -0.6563  0.0042
11632TIP3    H156311   1.221   4.303  14.363 -0.0499  1.2373  0.3536
11632TIP3    H256312   1.297   4.217  14.462 -0.2819 -0.8053 -1.1614
11633TIP3   OH256313   0.241   1.319  16.005  0.1703  0.4016  0.0874
11633TIP3    H156314   0.196   1.352  15.928  1.4360  3.1931  0.3921
11633TIP3    H256315   0.175   1.321  16.074 -0.6459 -0.9273 -0.6349
11634TIP3   OH256316   5.910   5.290  12.858 -0.7782 -0.4407  0.1220
11634TIP3    H156317   5.860   5.361  12.817 -2.1341 -1.5190 -0.1634
11634TIP3    H256318   5.929   5.229  12.787 -0.2112 -0.6970  0.4811
11635TIP3   OH256319   2.634   5.371   1.658  0.3757 -0.1426  0.4495
11635TIP3    H156320   2.611   5.444   1.600 -0.0818 -0.3134  0.4138
11635TIP3    H256321   2.722   5.344   1.628  1.0166  1.0816  1.1661
11636TIP3   OH256322   5.735   0.931  15.582  0.0172 -0.2616  1.0382
11636TIP3    H156323   5.826   0.924  15.552  0.0194  2.7709  0.0297
11636TIP3    H256324   5.720   0.850  15.630  2.3781 -2.0791 -1.0166
11637TIP3   OH256325   6.773   3.078   4.473  0.1357 -0.2261  0.5531
11637TIP3    H156326   6.728   3.009   4.425  1.7048 -0.1626 -1.1284
11637TIP3    H256327   6.722   3.157   4.457  0.3446 -0.3153 -0.6287
11638TIP3   OH256328   1.499   3.291   4.783 -0.8982  0.2393 -0.0756
11638TIP3    H156329   1.572   3.273   4.842  0.3523  0.0957 -1.5828
11638TIP3    H256330   1.496   3.386   4.777 -0.6000  0.2413 -0.2499
11639TIP3   OH256331   1.757   4.804   3.557 -0.4499  0.0118  0.0922
11639TIP3    H156332   1.741   4.889   3.598  0.9261  1.1847 -1.6782
11639TIP3    H256333   1.827   4.765   3.611  0.4020  0.9506 -0.3011
11640TIP3   OH256334   3.546   1.425   5.158 -0.5535 -0.0045  0.1997
11640TIP3    H156335   3.482   1.367   5.199 -1.2472  1.4098  1.1786
11640TIP3    H256336   3.554   1.498   5.218  1.6413  0.0959 -0.1382
11641TIP3   OH256337   0.786   2.641  16.167  0.4486  0.9610  0.3392
11641TIP3    H156338   0.744   2.556  16.184 -2.0500  2.2948  1.3373
11641TIP3    H256339   0.769   2.658  16.075  0.1002  0.7853  0.3668
11642TIP3   OH256340   0.464   4.740  12.807 -0.3408  0.1983  0.1695
11642TIP3    H156341   0.552   4.743  12.846  0.0276 -1.6944 -0.4155
11642TIP3    H256342   0.408   4.708  12.878 -0.6988  1.8958  0.7000
11643TIP3   OH256343   0.810   4.763   5.433 -0.3414  0.1291  0.0674
11643TIP3    H156344   0.769   4.840   5.473  1.1429 -0.0924  2.1791
11643TIP3    H256345   0.901   4.788   5.419 -0.1296 -0.8331 -0.3833
11644TIP3   OH256346   0.270   2.938  13.816  0.0393  0.1320  0.4107
11644TIP3    H156347   0.202   3.005  13.809 -0.7888 -0.6639  0.6539
11644TIP3    H256348   0.254   2.880  13.741  1.6565  0.9842 -0.6646
11645TIP3   OH256349   3.506   6.352   5.232 -0.1084 -0.7085  0.4571
11645TIP3    H156350   3.554   6.316   5.306  0.2615  0.2634  0.7068
11645TIP3    H256351   3.442   6.285   5.210  1.0382 -1.8364  0.4291
11646TIP3   OH256352   3.347   0.388   5.224  0.0981  0.7051 -0.1614
11646TIP3    H156353   3.310   0.477   5.225  0.4136  0.8408 -0.5780
11646TIP3    H256354   3.393   0.382   5.141 -0.1761  0.0392 -0.2634
11647TIP3   OH256355   6.562   2.201  16.822 -0.4119  0.0474 -0.2475
11647TIP3    H156356   6.615   2.139  16.771 -2.0481 -0.7246 -1.0808
11647TIP3    H256357   6.570   2.283  16.774 -0.2928 -0.1706 -0.6110
11648TIP3   OH256358   0.819   0.172   1.223 -0.4085  0.1184 -0.0233
11648TIP3    H156359   0.769   0.169   1.304  0.8624  3.6063  1.0753
11648TIP3    H256360   0.764   0.220   1.162  0.3591  1.3903  0.2518
11649TIP3   OH256361   1.433   0.053  11.493 -0.0982  0.1863  0.2635
11649TIP3    H156362   1.509   0.010  11.534 -0.5840 -0.8001  0.1643
11649TIP3    H256363   1.357   0.004  11.526 -0.6921  1.1031  0.2893
11650TIP3   OH256364   4.989   2.746   4.990 -0.0926 -0.1585  0.2476
11650TIP3    H156365   5.006   2.802   4.914 -2.4644 -0.9730 -0.9906
11650TIP3    H256366   5.028   2.792   5.064 -1.2948  2.8149 -0.8265
11651TIP3   OH256367   5.734   1.882   6.004  0.6042 -0.2378  1.0123
11651TIP3    H156368   5.646   1.913   5.986  0.6640 -0.2813  0.6327
11651TIP3    H256369   5.792   1.945   5.961  0.7142 -1.1267 -0.2145
11652TIP3   OH256370   1.903   2.153  14.669  0.0448  0.2952  0.0784
11652TIP3    H156371   1.902   2.074  14.723 -0.0119  0.1397 -0.1506
11652TIP3    H256372   1.814   2.188  14.677  0.5613  1.3311  1.6397
11653TIP3   OH256373   0.264   1.729   5.338  0.0984 -0.4714 -0.2136
11653TIP3    H156374   0.209   1.802   5.308 -0.5177  0.0124  1.9158
11653TIP3    H256375   0.284   1.680   5.258 -2.4944 -0.0318 -1.2265
11654TIP3   OH256376   0.344   6.572   0.867 -0.2612  0.0426 -0.0830
11654TIP3    H156377   0.436   6.552   0.885 -0.0099 -0.7251 -1.9579
11654TIP3    H256378   0.347   6.649   0.810 -0.7067 -0.5397 -0.9170
11655TIP3   OH256379   1.620   5.588  12.011  0.1654 -0.0924 -0.3762
11655TIP3    H156380   1.683   5.644  11.967 -1.3760  0.5327 -1.9103
11655TIP3    H256381   1.667   5.507  12.028  1.5048  0.5168 -1.0478
11656TIP3   OH256382   4.417   3.788   1.550 -0.2046  0.3645 -0.3504
11656TIP3    H156383   4.437   3.812   1.640 -1.3780  0.2636 -0.0501
11656TIP3    H256384   4.497   3.746   1.518  0.1727  0.2779  0.6843
11657TIP3   OH256385   1.999   5.259  14.326 -0.2592 -0.7893 -0.3143
11657TIP3    H156386   1.945   5.245  14.404  0.1728 -0.4549  0.0497
11657TIP3    H256387   2.084   5.288  14.360 -0.2532 -0.0436 -0.9324
11658TIP3   OH256388   2.733   6.380   0.122 -0.5746  0.3887 -0.0827
11658TIP3    H156389   2.783   6.324   0.062 -2.2874  0.1632 -1.3635
11658TIP3    H256390   2.792   6.392   0.196  1.1248 -0.3986 -1.2169
11659TIP3   OH256391   6.756   5.213   5.548  0.4380 -0.2464  0.1063
11659TIP3    H156392   6.704   5.162   5.486  1.1679 -0.9167  0.0288
11659TIP3    H256393   6.841   5.171   5.548  0.3299 -0.5243  1.8930
11660TIP3   OH256394   6.369   6.647   3.911  0.2575  0.9209  0.4465
11660TIP3    H156395   6.275   6.664   3.921 -0.3412 -1.9588  0.5790
11660TIP3    H256396   6.377   6.607   3.824  1.4312  1.3398  0.3415
11661TIP3   OH256397   1.438   3.233  12.939  0.0827 -0.3717 -0.0541
11661TIP3    H156398   1.479   3.275  12.863  1.0593  0.0924  0.7061
11661TIP3    H256399   1.506   3.176  12.975 -0.5271 -0.9493  0.1937
11662TIP3   OH256400   1.493   5.841   0.109  0.5557 -0.2310  0.0393
11662TIP3    H156401   1.457   5.785   0.041 -1.7767  0.0422  0.9504
11662TIP3    H256402   1.566   5.886   0.067 -0.6596 -0.2248 -2.2053
11663TIP3   OH256403   4.380   0.310  11.333  0.0081  0.0251 -0.4888
11663TIP3    H156404   4.318   0.245  11.365 -1.1580  0.6691 -1.3836
11663TIP3    H256405   4.405   0.278  11.246  1.8520 -0.8230  0.2843
11664TIP3   OH256406   4.515   5.577  14.862  0.1267 -0.5491 -0.9970
11664TIP3    H156407   4.508   5.509  14.795 -0.1520  0.4457 -2.0217
11664TIP3    H256408   4.610   5.589  14.874  0.2114  0.1268 -2.1608
11665TIP3   OH256409   1.517   5.255   3.520  0.6583  0.1490  0.4210
11665TIP3    H156410   1.526   5.275   3.427  1.3968  0.5287  0.5701
11665TIP3    H256411   1.606   5.257   3.554  0.3236  0.7657  1.2896
11666TIP3   OH256412   3.414   5.003   1.423  0.6337  0.4214 -0.3643
11666TIP3    H156413   3.394   4.920   1.378 -1.8679  1.5327 -1.5004
11666TIP3    H256414   3.415   5.068   1.353  1.3161  1.5344  0.6569
11667TIP3   OH256415   4.067   2.661   4.799 -0.0717  0.3974  0.2808
11667TIP3    H156416   4.012   2.593   4.837  0.1104 -0.1403 -0.3913
11667TIP3    H256417   4.034   2.672   4.710  1.7163 -0.9138 -0.6151
11668TIP3   OH256418   4.032   3.280   2.435 -0.2427  0.4182 -0.0349
11668TIP3    H156419   4.014   3.186   2.427  0.6440  0.1054  1.3474
11668TIP3    H256420   3.975   3.308   2.506  0.4327  0.6553  0.4127
11669TIP3   OH256421   4.047   0.923  14.129  0.0910  0.4162  0.2540
11669TIP3    H156422   4.125   0.977  14.138  1.0637 -0.9975  0.7979
11669TIP3    H256423   4.047   0.868  14.207 -0.8602 -0.3566 -0.2631
11670TIP3   OH256424   2.437   1.927  13.358  0.0376 -0.4125  0.2984
11670TIP3    H156425   2.502   1.954  13.293 -0.6298  0.2136 -0.1162
11670TIP3    H256426   2.353   1.947  13.318 -0.4749 -2.2646  0.3708
11671TIP3   OH256427   3.770   0.030  16.158 -0.0124  0.2062  0.3517
11671TIP3    H156428   3.770   0.017  16.253 -2.5762 -0.6454  0.3269
11671TIP3    H256429   3.795   0.121  16.145  1.5665  0.0174  1.7223
11672TIP3   OH256430   2.849   4.294  11.181 -0.6705  0.8241  0.2368
11672TIP3    H156431   2.880   4.269  11.268 -1.2387 -1.5747 -0.1779
11672TIP3    H256432   2.897   4.237  11.121 -0.4451  2.2894 -1.0387
11673TIP3   OH256433   6.193   1.321   2.095 -0.2005  0.0309 -0.1779
11673TIP3    H156434   6.278   1.299   2.135  0.1401 -0.1511 -0.9712
11673TIP3    H256435   6.129   1.279   2.151  0.2739 -0.3223  0.1107
11674TIP3   OH256436   3.305   0.970  13.825  0.4814 -0.0443 -0.1525
11674TIP3    H156437   3.224   0.983  13.775  0.9971 -2.1232 -1.6494
11674TIP3    H256438   3.343   0.890  13.790  2.3895 -0.0244  1.6446
11675TIP3   OH256439   5.463   0.765   6.517 -0.1809 -0.3371 -0.4607
11675TIP3    H156440   5.484   0.713   6.594 -0.0526 -1.6897 -1.3746
11675TIP3    H256441   5.445   0.701   6.448 -0.4774  0.8244 -1.5181
11676TIP3   OH256442   6.482   5.114   4.151 -0.5437 -0.2628 -0.0187
11676TIP3    H156443   6.453   5.186   4.208 -0.9965  0.7566 -1.4923
11676TIP3    H256444   6.557   5.076   4.198  0.4077  1.8750  0.2949
11677TIP3   OH256445   2.869   3.566   1.166 -0.0122  0.0517 -0.8503
11677TIP3    H156446   2.835   3.486   1.124 -2.4976 -0.6130  2.1178
11677TIP3    H256447   2.863   3.632   1.097 -1.8947 -1.4002 -2.2133
11678TIP3   OH256448   4.055   2.155  12.685  0.0074 -0.2203  0.1269
11678TIP3    H156449   4.050   2.230  12.626  1.8886  0.4611  0.7596
11678TIP3    H256450   4.128   2.103  12.651  0.1440 -0.6006  0.9784
11679TIP3   OH256451   1.302   6.703  13.372  0.0912  0.0204 -0.2439
11679TIP3    H156452   1.318   6.719  13.279  1.6723  0.5727  0.0919
11679TIP3    H256453   1.297   6.608  13.379  2.7102 -0.2112 -0.5345
11680TIP3   OH256454   2.590   5.470  16.554  0.2017  0.0973  0.2310
11680TIP3    H156455   2.617   5.394  16.606  0.8010  0.0735 -0.1007
11680TIP3    H256456   2.657   5.477  16.485  0.9831  1.7626  1.0769
11681TIP3   OH256457   3.731   2.192  11.354 -0.0133 -0.3219 -0.4110
11681TIP3    H156458   3.794   2.121  11.342 -0.7296 -1.2839  1.2376
11681TIP3    H256459   3.661   2.173  11.292 -0.7837 -1.7992  0.8341
11682TIP3   OH256460   1.459   3.719   3.838  0.3446 -0.0419  0.3734
11682TIP3    H156461   1.501   3.753   3.917  0.7099 -1.7285  0.9491
11682TIP3    H256462   1.468   3.624   3.845  1.1600 -0.2254 -2.1345
11683TIP3   OH256463   3.015   6.042   5.751  0.1762 -0.2003 -0.1101
11683TIP3    H156464   2.933   5.994   5.758 -0.8391  1.4778  0.1422
11683TIP3    H256465   3.013   6.080   5.663  0.4785  0.1794  0.0423
11684TIP3   OH256466   0.461   2.784  17.180 -0.5469  0.4985 -0.1903
11684TIP3    H156467   0.385   2.727  17.167  1.1082 -2.3141  1.4012
11684TIP3    H256468   0.424   2.868  17.205 -3.1369 -0.2377 -1.1797
11685TIP3   OH256469   1.663   3.526   6.229  0.1013  0.3741  0.0002
11685TIP3    H156470   1.606   3.455   6.258  0.1868  0.5321  0.5488
11685TIP3    H256471   1.605   3.585   6.181  0.0923 -0.2373 -0.7793
11686TIP3   OH256472   4.284   3.892   4.347  0.2335 -0.2876  0.0965
11686TIP3    H156473   4.348   3.929   4.285 -0.1226 -0.7233 -0.5454
11686TIP3    H256474   4.261   3.807   4.310  0.1525 -0.6437  0.9411
11687TIP3   OH256475   4.468   5.790  13.449  0.3434  0.2367 -0.1393
11687TIP3    H156476   4.425   5.736  13.515  0.0761  2.9862  2.1460
11687TIP3    H256477   4.397   5.844  13.413  0.7714 -0.1176 -1.5693
11688TIP3   OH256478   6.155   1.108   3.658 -0.8039 -0.1838  0.2425
11688TIP3    H156479   6.077   1.064   3.625  0.3046 -0.6946 -1.8916
11688TIP3    H256480   6.196   1.044   3.716 -1.5585 -0.2115  0.7491
11689TIP3   OH256481   1.149   4.922  16.249  0.1283  0.5493  0.3927
11689TIP3    H156482   1.126   4.900  16.158  0.9574  1.3211 -0.0197
11689TIP3    H256483   1.239   4.893  16.259  0.0054  0.3694  1.0076
11690TIP3   OH256484   6.786   0.034  13.109 -0.6035 -0.1794 -0.0311
11690TIP3    H156485   6.867   0.056  13.156 -1.0552 -0.6079  0.9818
11690TIP3    H256486   6.769  -0.057  13.133 -0.3444 -0.7348 -1.8095
11691TIP3   OH256487   2.648   3.275  11.907  0.4851  0.6126  0.1304
11691TIP3    H156488   2.724   3.239  11.951  0.6793  1.4580  0.5147
11691TIP3    H256489   2.575   3.260  11.967  0.8258  2.1573  0.9824
11692TIP3   OH256490   5.292   6.429   5.261 -0.9844  0.0408  0.1500
11692TIP3    H156491   5.341   6.423   5.343  0.8463  1.8908 -0.7091
11692TIP3    H256492   5.222   6.492   5.280  1.3638  3.1033 -0.3927
11693TIP3   OH256493   3.866   1.684  17.027 -0.0906 -0.1859  0.1542
11693TIP3    H156494   3.790   1.696  17.084 -0.2576 -0.8654  0.0827
11693TIP3    H256495   3.890   1.592  17.038  1.0363  0.1447  0.5598
11694TIP3   OH256496   3.302   1.532  15.480  0.8029  0.2645  0.3801
11694TIP3    H156497   3.233   1.579  15.433  2.0033  1.2690 -0.4386
11694TIP3    H256498   3.266   1.519  15.568 -0.6102  0.3399 -0.1622
11695TIP3   OH256499   0.852   0.903  12.920  0.6369 -0.6093  0.6403
11695TIP3    H156500   0.792   0.977  12.921  0.3258 -0.8412 -0.3299
11695TIP3    H256501   0.870   0.886  13.013 -0.9333 -0.6586  0.9654
11696TIP3   OH256502   1.132   4.581  13.902 -0.3220 -0.0247  0.0933
11696TIP3    H156503   1.056   4.523  13.905 -0.7029  0.2019 -2.4219
11696TIP3    H256504   1.205   4.525  13.876  0.2072 -0.0663  1.5876
11697TIP3   OH256505   3.442   5.751   2.955  0.0920  0.1820  0.0351
11697TIP3    H156506   3.373   5.773   2.893 -0.9456  0.6821  1.3207
11697TIP3    H256507   3.490   5.833   2.967  1.0613 -0.2097 -1.0004
11698TIP3   OH256508   6.102   6.104  15.466 -0.1489 -0.4621 -0.4927
11698TIP3    H156509   6.183   6.115  15.418  0.9915 -2.5172  0.8055
11698TIP3    H256510   6.063   6.191  15.469  2.8589  0.9566  0.3023
11699TIP3   OH256511   2.404   3.075  11.382 -0.3829  0.3432 -0.1656
11699TIP3    H156512   2.330   3.067  11.322 -0.7659 -0.3876  0.3911
11699TIP3    H256513   2.446   3.158  11.358 -0.8634  0.3332 -1.0597
11700TIP3   OH256514   5.433   1.976  13.680  0.5075  0.0154 -0.2190
11700TIP3    H156515   5.418   1.882  13.678 -0.3281 -0.0256  2.8286
11700TIP3    H256516   5.347   2.015  13.664  0.2405  0.1404  1.3439
11701TIP3   OH256517   3.277   1.025   3.842  0.0722 -0.6963 -0.9536
11701TIP3    H156518   3.357   1.030   3.896  0.0034  0.1444 -0.9232
11701TIP3    H256519   3.240   0.939   3.863  0.8900 -1.0359 -0.8556
11702TIP3   OH256520   5.172   3.723  12.259  0.8155  0.0057 -0.2672
11702TIP3    H156521   5.241   3.763  12.313 -0.2700  2.2073 -0.3748
11702TIP3    H256522   5.176   3.770  12.176  0.0950 -0.7998 -0.7757
11703TIP3   OH256523   0.596   1.438  13.146 -0.2262  0.4647  0.4399
11703TIP3    H156524   0.570   1.456  13.056 -0.0030 -1.9359 -0.1849
11703TIP3    H256525   0.685   1.471  13.153  0.1133 -0.1919 -0.5514
11704TIP3   OH256526   4.341   1.786   3.445  0.0510 -0.7597 -0.4492
11704TIP3    H156527   4.292   1.804   3.525 -0.7325  0.5521 -1.1761
11704TIP3    H256528   4.288   1.721   3.398 -0.1879 -0.5265 -0.5067
11705TIP3   OH256529   1.143   4.559  13.049  0.0050 -0.3864  0.2045
11705TIP3    H156530   1.205   4.547  12.976  0.2266  3.3975 -0.4272
11705TIP3    H256531   1.058   4.538  13.011  0.4636 -2.3132  0.0993
11706TIP3   OH256532   1.669   4.807  10.614  0.7618  0.5697  0.2364
11706TIP3    H156533   1.618   4.847  10.684 -0.6093  0.3664 -0.6020
11706TIP3    H256534   1.691   4.720  10.645  0.3719  0.5675  0.5018
11707TIP3   OH256535   5.977   1.247   2.626 -0.2197 -0.3856  0.1857
11707TIP3    H156536   5.993   1.156   2.649 -1.2629 -0.3323  1.2075
11707TIP3    H256537   6.038   1.297   2.679  0.2463 -0.4681 -0.2625
11708TIP3   OH256538   1.299   6.312  10.821  0.6581  0.1253  0.1596
11708TIP3    H156539   1.227   6.287  10.763  1.4057 -2.0153  0.0644
11708TIP3    H256540   1.375   6.320  10.763  0.7329  1.4688  0.3936
11709TIP3   OH256541   4.677   5.134   0.740 -0.1607 -0.0779 -0.0028
11709TIP3    H156542   4.623   5.212   0.724  0.3714  0.5242  1.0206
11709TIP3    H256543   4.757   5.150   0.691 -0.0623  0.0069  0.1855
11710TIP3   OH256544   3.787   1.865   3.176 -0.0453 -0.1213  0.3127
11710TIP3    H156545   3.867   1.832   3.217 -0.0486 -0.5281 -0.0063
11710TIP3    H256546   3.818   1.933   3.116  0.1129 -0.6023 -0.1593
11711TIP3   OH256547   1.039   4.711  13.663 -0.5203  0.1135  0.4521
11711TIP3    H156548   1.076   4.631  13.702 -1.5944 -1.3108 -1.2624
11711TIP3    H256549   1.078   4.782  13.713  1.3623 -1.4370  1.3504
11712TIP3   OH256550   5.412   1.961  12.777 -0.0555 -0.0589  0.4627
11712TIP3    H156551   5.335   1.919  12.815 -0.2968  0.5155  0.6250
11712TIP3    H256552   5.480   1.951  12.843  0.0172 -0.5897  0.3095
11713TIP3   OH256553   3.238   1.691   0.697 -0.3013  0.6362  0.1770
11713TIP3    H156554   3.162   1.696   0.756  0.3597  1.5935  0.9913
11713TIP3    H256555   3.311   1.722   0.750  1.7878 -4.8010  1.0735
11714TIP3   OH256556   6.338   5.823   0.896  0.4871  0.2284  0.1594
11714TIP3    H156557   6.397   5.843   0.969 -2.4636  0.6898  2.6382
11714TIP3    H256558   6.323   5.907   0.853 -0.9379  0.8371  1.7173
11715TIP3   OH256559   1.324   5.102   5.193  0.0659 -0.2198 -0.2693
11715TIP3    H156560   1.306   5.067   5.280  0.8157 -1.8198 -0.7244
11715TIP3    H256561   1.419   5.108   5.188  0.0769 -0.9502 -1.2645
11716TIP3   OH256562   3.369   1.846  17.172  0.3693 -0.0537 -0.3920
11716TIP3    H156563   3.412   1.816  17.092 -0.5887  0.4263 -1.1036
11716TIP3    H256564   3.321   1.924  17.146  0.3997  0.3763  0.7600
11717TIP3   OH256565   2.279   1.374   4.330 -0.5617  0.6000  0.0891
11717TIP3    H156566   2.297   1.362   4.237 -0.9642 -2.8646  0.3046
11717TIP3    H256567   2.338   1.313   4.374  0.0507  2.5765  2.2169
11718TIP3   OH256568   1.283   6.308   4.864  0.9114  0.9380  0.2712
11718TIP3    H156569   1.244   6.395   4.871  0.8853  1.1885 -2.1052
11718TIP3    H256570   1.261   6.264   4.947 -0.4625  2.6222  0.8392
11719TIP3   OH256571   5.431   4.117   1.429 -0.0921  0.4044 -0.5102
11719TIP3    H156572   5.414   4.044   1.369  0.7732  0.7019 -1.1375
11719TIP3    H256573   5.357   4.115   1.490  0.3658 -1.5508  0.0543
11720TIP3   OH256574   2.132   0.593  13.342 -0.2871  0.0478 -0.1277
11720TIP3    H156575   2.179   0.598  13.426  1.6276  0.2098 -1.1344
11720TIP3    H256576   2.182   0.652  13.285 -1.8855  0.3628 -1.2399
11721TIP3   OH256577   0.515   5.124   5.309 -0.1787  0.7368 -0.2359
11721TIP3    H156578   0.479   5.210   5.288 -0.5867  0.1759 -1.9712
11721TIP3    H256579   0.449   5.083   5.364  0.0406  1.5218  0.6479
11722TIP3   OH256580   5.551   5.992  13.198  0.3819 -0.2611 -0.4418
11722TIP3    H156581   5.508   5.908  13.188  0.2534 -0.3276  0.6445
11722TIP3    H256582   5.645   5.971  13.201  0.2867 -0.5944  1.7548
11723TIP3   OH256583   1.270   2.912  15.227  0.1990  0.6410 -0.2047
11723TIP3    H156584   1.205   2.966  15.271 -0.3869 -0.5461  0.4287
11723TIP3    H256585   1.256   2.928  15.133 -1.0960  0.2855 -0.0813
11724TIP3   OH256586   3.057   6.691  15.397  0.3634  0.3737 -0.0256
11724TIP3    H156587   3.112   6.705  15.475  0.5544 -0.5020  0.0057
11724TIP3    H256588   2.976   6.655  15.432  0.7404 -0.7547 -0.2901
11725TIP3   OH256589   3.296   2.990   0.731 -0.2617 -0.2893 -0.5344
11725TIP3    H156590   3.211   2.994   0.686  0.1590  0.4936 -1.2991
11725TIP3    H256591   3.306   2.898   0.756 -1.5071 -0.3185 -0.0858
11726TIP3   OH256592   2.147   3.239   4.615 -0.1326 -0.2088 -0.4062
11726TIP3    H156593   2.053   3.255   4.613 -0.1367 -0.0599  0.5922
11726TIP3    H256594   2.173   3.257   4.705  1.1023  1.1606 -0.9777
11727TIP3   OH256595   2.349   4.454   4.095  0.0047  0.0335 -0.3049
11727TIP3    H156596   2.438   4.463   4.130 -0.0449  0.3782 -0.2599
11727TIP3    H256597   2.295   4.437   4.172 -0.5588  3.7394  0.2776
11728TIP3   OH256598   5.111   2.180  12.220  0.2049  0.2299 -0.2567
11728TIP3    H156599   5.050   2.195  12.292 -0.4671 -2.0145 -0.2793
11728TIP3    H256600   5.072   2.227  12.146 -0.5447  0.3224  0.1805
11729TIP3   OH256601   0.096   0.422   0.151  0.1434  0.1939  0.0804
11729TIP3    H156602   0.146   0.343   0.133  2.0388  1.3565 -0.0898
11729TIP3    H256603   0.079   0.419   0.245  0.4393 -0.2778  0.1220
11730TIP3   OH256604   0.113   2.995  14.606  0.0403  0.2411 -0.0336
11730TIP3    H156605   0.106   3.038  14.691  0.5973 -0.6996  0.5009
11730TIP3    H256606   0.025   2.960  14.590 -0.3481  1.3146 -0.3524
11731TIP3   OH256607   0.774   6.536   1.171 -0.5398 -0.0083  0.2036
11731TIP3    H156608   0.690   6.551   1.215 -0.2694 -1.2570  1.1942
11731TIP3    H256609   0.765   6.450   1.131  0.8181 -0.9079  1.7216
11732TIP3   OH256610   0.259   3.123  16.093  0.0485  0.1366 -0.2942
11732TIP3    H156611   0.322   3.051  16.101 -2.2956 -2.0360 -0.1991
11732TIP3    H256612   0.213   3.106  16.011  1.2144  3.1815 -1.7580
11733TIP3   OH256613   2.940   0.168   5.535  0.0383  0.1141  0.0805
11733TIP3    H156614   2.972   0.084   5.503  1.2748  0.3043  0.7232
11733TIP3    H256615   2.914   0.151   5.626  0.7230  0.5060  0.3589
11734TIP3   OH256616   1.747   3.691   4.754 -0.1621  0.3843  0.1591
11734TIP3    H156617   1.675   3.753   4.746  0.2653  1.0922  1.5428
11734TIP3    H256618   1.719   3.616   4.701 -2.1626  0.4070  1.0777
11735TIP3   OH256619   1.907   1.834   6.409  0.0953 -0.4849 -0.1759
11735TIP3    H156620   1.917   1.777   6.333  2.6943  1.6697 -1.6740
11735TIP3    H256621   1.827   1.883   6.392  0.4068 -0.3501 -1.3584
11736TIP3   OH256622   3.699   0.223   4.872  0.5756 -0.2843 -0.1862
11736TIP3    H156623   3.628   0.158   4.870 -0.3344  0.6924 -0.5343
11736TIP3    H256624   3.717   0.241   4.780 -0.5677  1.4049 -0.1205
11737TIP3   OH256625   4.608   6.705   1.238  0.3213  0.3844 -0.9907
11737TIP3    H156626   4.693   6.662   1.227 -0.2072 -0.2301 -3.4974
11737TIP3    H256627   4.629   6.789   1.278  1.6757 -1.0467  1.6023
11738TIP3   OH256628   0.786   0.527   1.370 -0.1187  0.7590 -0.6759
11738TIP3    H156629   0.714   0.494   1.424  0.5152 -2.0362 -1.4040
11738TIP3    H256630   0.755   0.518   1.280  0.4106  1.4647 -0.9398
11739TIP3   OH256631   3.449   5.074  15.546  0.1111  0.2226  0.5717
11739TIP3    H156632   3.367   5.056  15.499  1.0756 -0.4067 -0.9479
11739TIP3    H256633   3.473   4.990  15.585  1.0078 -0.1015 -0.6284
11740TIP3   OH256634   5.750   4.459  15.985  0.3723  0.0678  0.3478
11740TIP3    H156635   5.697   4.492  15.912  0.7375 -0.2668 -0.0768
11740TIP3    H256636   5.700   4.385  16.019 -0.4768  1.0694  1.3390
11741TIP3   OH256637   5.488   5.143   1.986 -0.1684  0.5587  0.2925
11741TIP3    H156638   5.408   5.110   1.945  1.4095 -0.5388 -2.0884
11741TIP3    H256639   5.490   5.236   1.964  0.8347 -0.0614 -2.7397
11742TIP3   OH256640   5.196   3.380   4.594  0.2804 -0.0389  0.1307
11742TIP3    H156641   5.264   3.314   4.612  0.5094  0.6014  1.8333
11742TIP3    H256642   5.127   3.331   4.549  1.5542 -0.8573 -0.9970
11743TIP3   OH256643   5.044   5.295  10.818 -0.0945  0.5838 -0.2375
11743TIP3    H156644   5.120   5.313  10.763  1.0893  0.5970  1.3451
11743TIP3    H256645   4.970   5.295  10.757  1.3034 -0.7884 -2.0358
11744TIP3   OH256646   2.080   3.687  15.593 -0.5475  0.0299  0.2541
11744TIP3    H156647   2.127   3.611  15.560 -0.3841 -0.7636  2.1774
11744TIP3    H256648   2.141   3.729  15.654 -0.4810  1.9846 -1.0685
11745TIP3   OH256649   1.472   3.536   3.433  0.1917  0.6551 -0.1223
11745TIP3    H156650   1.430   3.456   3.400  2.2506 -0.5211 -0.0764
11745TIP3    H256651   1.485   3.519   3.526  2.2048  0.2428 -0.4318
11746TIP3   OH256652   6.403   0.617   2.270  0.5991 -0.0953  0.4311
11746TIP3    H156653   6.476   0.678   2.259  2.9318 -2.7713 -0.1514
11746TIP3    H256654   6.338   0.646   2.207  2.2362  0.9201 -0.8994
11747TIP3   OH256655   4.569   1.736  12.245 -0.0452  0.2970  0.0422
11747TIP3    H156656   4.477   1.722  12.267 -0.6200  0.2269 -2.2279
11747TIP3    H256657   4.580   1.831  12.243 -0.6670  0.3544 -1.8602
11748TIP3   OH256658   5.000   0.818  15.940  0.4837 -0.0131 -0.0201
11748TIP3    H156659   4.913   0.845  15.968 -1.3320 -2.1426 -3.0629
11748TIP3    H256660   5.023   0.877  15.869  0.9893 -0.2448 -0.0560
11749TIP3   OH256661   6.130   2.070  11.337  0.3945 -0.3335  0.4922
11749TIP3    H156662   6.048   2.041  11.379 -0.3617 -0.0127 -0.7227
11749TIP3    H256663   6.198   2.049  11.402 -0.3007 -3.1226  0.4552
11750TIP3   OH256664   0.625   4.787   4.293  0.0284  0.3217 -0.0661
11750TIP3    H156665   0.703   4.794   4.239 -0.7273 -0.2396 -1.2740
11750TIP3    H256666   0.598   4.695   4.284 -3.3333  1.4163 -3.4470
11751TIP3   OH256667   0.579   2.412  14.919  0.3561 -0.4942 -0.2550
11751TIP3    H156668   0.641   2.435  14.988  0.2705 -0.8835 -0.0445
11751TIP3    H256669   0.627   2.350  14.864 -0.3225 -1.9762  0.7566
11752TIP3   OH256670   1.316   2.227  12.506 -1.0814 -0.7471  0.1884
11752TIP3    H156671   1.379   2.230  12.578 -0.5722 -2.2203 -0.1533
11752TIP3    H256672   1.295   2.134  12.497 -2.4453 -0.4011 -0.4588
11753TIP3   OH256673   6.104   6.554   4.909 -0.1009 -0.0591 -0.1342
11753TIP3    H156674   6.119   6.514   4.994 -0.0673  0.5560  0.1603
11753TIP3    H256675   6.013   6.533   4.887 -0.1261 -0.1697  0.0804
11754TIP3   OH256676   1.927   1.615   4.168  0.6763 -0.5626 -0.2990
11754TIP3    H156677   1.884   1.588   4.087 -0.0892 -0.6216  0.1114
11754TIP3    H256678   1.887   1.559   4.235 -2.5560  2.8248  0.9552
11755TIP3   OH256679   0.438   6.430   4.409 -0.2605 -0.5598 -0.8585
11755TIP3    H156680   0.508   6.375   4.444 -0.2296  0.3967  0.6890
11755TIP3    H256681   0.421   6.394   4.322  3.2452  0.1761 -2.0019
11756TIP3   OH256682   3.957   5.514  16.347 -0.6200 -0.7364 -0.0359
11756TIP3    H156683   3.960   5.605  16.376  1.0654 -0.8179  0.1011
11756TIP3    H256684   4.009   5.467  16.412 -0.1526 -1.5471 -0.9859
11757TIP3   OH256685   4.253   4.057  13.889 -0.1741  0.8117 -0.2692
11757TIP3    H156686   4.164   4.022  13.883  0.0096  0.5389 -1.8712
11757TIP3    H256687   4.271   4.059  13.983 -0.8464 -1.7844 -0.0059
11758TIP3   OH256688   2.479   1.590   3.721 -0.0912  0.0395  0.0945
11758TIP3    H156689   2.466   1.629   3.807 -0.3168  0.1626  0.0041
11758TIP3    H256690   2.392   1.589   3.681 -0.2927 -1.5287  0.5074
11759TIP3   OH256691   4.000   4.567  14.629  0.2373  0.3678  0.1848
11759TIP3    H156692   4.030   4.531  14.713 -0.2478  2.9026  1.5268
11759TIP3    H256693   3.920   4.519  14.610  0.0753  0.0924  1.4403
11760TIP3   OH256694   0.035   6.416   1.510  0.0044  0.2610 -0.6208
11760TIP3    H156695   0.088   6.369   1.445  1.3376  1.3144 -0.3357
11760TIP3    H256696   0.093   6.425   1.585 -0.6815  1.2306 -0.1992
11761TIP3   OH256697   3.319   6.481  16.527 -0.0358  0.9031  0.5892
11761TIP3    H156698   3.356   6.547  16.468  2.0168  1.5214  2.4244
11761TIP3    H256699   3.234   6.517  16.553 -0.6263  0.9837 -1.2982
11762TIP3   OH256700   0.695   3.702   0.957  0.0516 -0.2345  0.6850
11762TIP3    H156701   0.701   3.619   0.910 -0.2497 -0.7599  1.5357
11762TIP3    H256702   0.776   3.748   0.934  0.5624 -1.0643  0.7435
11763TIP3   OH256703   4.265   6.012   5.244  0.4933 -0.5021  0.3501
11763TIP3    H156704   4.324   5.964   5.302  1.5764 -1.8855 -1.8024
11763TIP3    H256705   4.186   6.026   5.297  1.8137 -0.7053  2.5000
11764TIP3   OH256706   3.177   5.292  14.613  0.0140 -0.0537  0.1301
11764TIP3    H156707   3.238   5.222  14.590 -0.5313 -0.7662  0.8053
11764TIP3    H256708   3.194   5.309  14.706 -1.1254 -0.6011  0.4635
11765TIP3   OH256709   3.916   6.247   2.119  0.2605 -0.8439  0.0478
11765TIP3    H156710   3.910   6.156   2.149 -2.8159 -0.3814  1.1696
11765TIP3    H256711   3.912   6.299   2.198  1.5258  0.3443 -0.6220
11766TIP3   OH256712   1.567   3.542   1.342 -0.5216 -0.2143 -0.3636
11766TIP3    H156713   1.661   3.541   1.362 -0.4683  0.3506 -0.5440
11766TIP3    H256714   1.529   3.599   1.409 -0.6039  0.2395 -0.7846
11767TIP3   OH256715   0.190   4.028  12.169 -0.2270 -0.0314  0.0090
11767TIP3    H156716   0.267   4.078  12.141  0.4376 -1.1256 -0.1825
11767TIP3    H256717   0.179   4.051  12.262 -0.3031  0.9152 -0.2242
11768TIP3   OH256718   1.306   2.222   4.870  0.5368 -0.2913  0.2458
11768TIP3    H156719   1.280   2.311   4.893  2.9577  0.4627  0.4002
11768TIP3    H256720   1.301   2.219   4.774  4.0797  1.4318 -0.1676
11769TIP3   OH256721   0.610   3.654   5.801  0.4936 -0.5765 -0.7440
11769TIP3    H156722   0.566   3.575   5.830 -0.4054  0.1047 -0.2107
11769TIP3    H256723   0.572   3.673   5.715  0.2639 -0.3733 -0.5952
11770TIP3   OH256724   2.781   4.576   4.016  0.3236 -0.1491  0.4781
11770TIP3    H156725   2.719   4.527   3.962 -0.9186  1.8647 -0.0173
11770TIP3    H256726   2.848   4.605   3.954  0.8559 -0.8809  0.7026
11771TIP3   OH256727   1.713   1.824  14.542  0.3009 -0.7541 -0.1758
11771TIP3    H156728   1.759   1.877  14.607  0.0674  0.8738 -1.2948
11771TIP3    H256729   1.661   1.763  14.594  0.0262  0.5868  1.1797
11772TIP3   OH256730   6.400   5.551   0.078 -0.1075 -0.4077 -0.1853
11772TIP3    H156731   6.424   5.462   0.104  0.5406 -0.0666  0.4243
11772TIP3    H256732   6.333   5.540   0.010  0.2627 -1.3580 -0.4019
11773TIP3   OH256733   1.194   1.402   1.282 -0.4584  0.1586  0.4601
11773TIP3    H156734   1.232   1.341   1.219 -1.3504  0.1592 -0.0880
11773TIP3    H256735   1.197   1.356   1.366  2.3153  0.7903  0.8117
11774TIP3   OH256736   5.989   2.344   2.047  0.0073 -0.5518 -0.1683
11774TIP3    H156737   6.061   2.285   2.068 -0.2686 -0.3979  1.3408
11774TIP3    H256738   6.030   2.417   2.001  0.4706 -1.5016 -1.2974
11775TIP3   OH256739   2.054   5.735   0.383  0.0054  0.0271  0.8881
11775TIP3    H156740   1.972   5.774   0.412  0.7401  0.7230  2.1555
11775TIP3    H256741   2.034   5.642   0.371 -1.0471  0.2581  0.8044
11776TIP3   OH256742   3.673   5.112   1.281 -0.2906 -0.1656  0.0932
11776TIP3    H156743   3.676   5.181   1.216 -1.0258 -0.4695 -0.2818
11776TIP3    H256744   3.606   5.051   1.249  0.1262 -0.8959  0.5636
11777TIP3   OH256745   5.462   5.061   1.414  0.5610  0.0713 -0.5917
11777TIP3    H156746   5.457   5.148   1.454  0.0754 -0.9203  1.6657
11777TIP3    H256747   5.555   5.037   1.421  0.3892 -0.3300  0.5600
11778TIP3   OH256748   4.896   5.347  14.415 -0.3269 -0.4583  0.3216
11778TIP3    H156749   4.866   5.434  14.389 -0.0216 -0.9564 -1.9050
11778TIP3    H256750   4.911   5.301  14.333  1.4533 -1.9742  1.3964
11779TIP3   OH256751   2.371   3.995  13.614 -0.7850  0.1540 -0.6944
11779TIP3    H156752   2.398   3.980  13.523 -0.3304 -0.4980 -0.4589
11779TIP3    H256753   2.313   3.921  13.634  0.4156 -0.6069  0.0609
11780TIP3   OH256754   0.430   0.166   3.618  0.5403  0.3336  0.7150
11780TIP3    H156755   0.389   0.249   3.642  2.7290  1.2617  1.5025
11780TIP3    H256756   0.422   0.162   3.523 -1.0971  0.5864  0.8225
11781TIP3   OH256757   4.619   5.110  13.040  0.9131 -0.6032  0.5255
11781TIP3    H156758   4.590   5.141  12.954  0.7551 -1.0378  0.4184
11781TIP3    H256759   4.548   5.133  13.099  1.8321  1.4578  0.9284
11782TIP3   OH256760   6.347   3.278   1.696 -0.0859 -0.1366 -0.0583
11782TIP3    H156761   6.284   3.258   1.627  0.1286 -0.3606 -0.1927
11782TIP3    H256762   6.303   3.254   1.777 -0.2422 -0.1200 -0.1386
11783TIP3   OH256763   1.260   4.553   0.052 -0.7104 -0.0800 -0.0943
11783TIP3    H156764   1.188   4.594   0.100  0.5669  1.5744  0.5189
11783TIP3    H256765   1.220   4.518  -0.028 -1.9854  2.0717 -0.4697
11784TIP3   OH256766   4.521   0.183  12.629 -0.2654  0.0689  0.1921
11784TIP3    H156767   4.464   0.157  12.557 -0.1689  1.3186 -0.3554
11784TIP3    H256768   4.555   0.268  12.604  0.9397 -0.1324  1.0521
11785TIP3   OH256769   6.757   2.064   2.929 -0.0669 -0.4383 -0.4175
11785TIP3    H156770   6.698   2.132   2.895  0.7341 -0.2950 -1.5482
11785TIP3    H256771   6.831   2.112   2.965  0.0461 -0.6844 -0.3169
11786TIP3   OH256772   4.574   0.318   2.409  0.0626  0.3066  0.1407
11786TIP3    H156773   4.535   0.325   2.496 -0.1857  0.6724  0.0015
11786TIP3    H256774   4.540   0.393   2.361  0.6478  0.4256 -0.0975
11787TIP3   OH256775   5.633   6.062  11.907  0.4407  0.0810  0.6188
11787TIP3    H156776   5.705   5.999  11.897  0.9817  0.6390  0.9023
11787TIP3    H256777   5.556   6.016  11.876  1.3083  0.3208 -2.2147
11788TIP3   OH256778   5.375   0.399   5.713  0.1200  0.1307 -0.7449
11788TIP3    H156779   5.377   0.320   5.768  0.6735  1.2835  0.9486
11788TIP3    H256780   5.373   0.365   5.624  2.4260 -1.8410 -0.1615
11789TIP3   OH256781   2.538   2.461  10.589 -0.4993 -0.9718 -0.7103
11789TIP3    H156782   2.551   2.490  10.680  0.7456  1.1052 -1.4711
11789TIP3    H256783   2.625   2.434  10.560 -0.7610 -1.0098 -1.4778
11790TIP3   OH256784   4.986   1.677  13.081 -0.3797 -0.3160 -0.2553
11790TIP3    H156785   4.896   1.705  13.068 -0.0574  0.9298  0.1120
11790TIP3    H256786   4.997   1.603  13.020 -2.0115 -1.3358  0.6101
11791TIP3   OH256787   4.444   0.273   0.021 -0.1009  0.0042 -0.1356
11791TIP3    H156788   4.353   0.245   0.025 -0.1075 -0.3186 -1.8607
11791TIP3    H256789   4.485   0.214  -0.042  1.5565 -0.4852  1.3047
11792TIP3   OH256790   1.597   5.838   0.776 -0.4550 -0.3829 -0.1350
11792TIP3    H156791   1.600   5.870   0.865  1.7611  0.5531 -0.4924
11792TIP3    H256792   1.537   5.898   0.730 -0.7391 -0.2142  0.4528
11793TIP3   OH256793   3.510   1.980  11.526 -0.2647  0.2395  0.4090
11793TIP3    H156794   3.512   2.076  11.530 -0.8315  0.2727  0.0650
11793TIP3    H256795   3.519   1.961  11.432  1.4049 -0.1013  0.6120
11794TIP3   OH256796   2.064   5.385   4.179  0.2406 -0.4351  0.5218
11794TIP3    H156797   1.972   5.413   4.178 -0.0100 -1.2358  0.3149
11794TIP3    H256798   2.109   5.454   4.227 -0.3522  0.3187  0.0175
11795TIP3   OH256799   3.863   3.318  14.716  0.5881 -0.2910 -0.7818
11795TIP3    H156800   3.835   3.266  14.792  1.1454 -1.5154 -1.3849
11795TIP3    H256801   3.786   3.372  14.695  0.6005  0.4388  0.9397
11796TIP3   OH256802   2.594   6.102   5.480  0.2093  0.0219  0.5422
11796TIP3    H156803   2.647   6.026   5.459  1.3857  0.8440  0.3947
11796TIP3    H256804   2.621   6.126   5.569 -0.6746 -0.1421  0.8678
11797TIP3   OH256805   5.169   6.116  13.609 -0.4662 -0.4626 -0.1279
11797TIP3    H156806   5.201   6.181  13.547 -0.6343 -0.0530  0.2047
11797TIP3    H256807   5.074   6.129  13.609 -0.4036  0.1640  0.8735
11798TIP3   OH256808   3.719   4.665  15.161  0.1316  0.5205 -0.0208
11798TIP3    H156809   3.689   4.733  15.221 -2.2257  0.0370 -0.5592
11798TIP3    H256810   3.798   4.630  15.203 -0.7272  1.0303  2.1854
11799TIP3   OH256811   1.951   3.007  15.994 -0.2684 -0.5354 -0.2032
11799TIP3    H156812   1.888   2.962  15.937 -2.4087 -0.2986  1.8380
11799TIP3    H256813   1.956   3.095  15.958  0.5212 -1.1019 -1.5812
11800TIP3   OH256814   5.762   5.163  11.754 -0.3032 -0.0110  0.1204
11800TIP3    H156815   5.851   5.190  11.775 -0.5111  0.9993 -0.2023
11800TIP3    H256816   5.772   5.083  11.703  0.3084 -1.0529  1.8032
11801TIP3   OH256817   0.295   1.777  12.119 -0.1471 -0.5735 -0.1834
11801TIP3    H156818   0.358   1.721  12.073  0.2835 -0.8036  0.6727
11801TIP3    H256819   0.338   1.800  12.201 -0.3689  0.9315 -0.4650
11802TIP3   OH256820   3.456   4.030  12.799 -0.0029  0.6767 -0.0811
11802TIP3    H156821   3.457   4.047  12.893 -0.6254 -1.1470  0.2992
11802TIP3    H256822   3.490   3.941  12.791 -0.5997  0.5577 -1.5172
11803TIP3   OH256823   0.025   5.943   1.907  0.2544  0.4481  0.0503
11803TIP3    H156824  -0.001   5.894   1.830  1.9461 -1.4533  0.5960
11803TIP3    H256825  -0.029   5.908   1.978  0.2505  0.6215  0.1351
11804TIP3   OH256826   5.806   0.600  14.987  0.9340  0.5213 -0.2322
11804TIP3    H156827   5.855   0.546  15.050 -0.0329 -0.0726  0.0304
11804TIP3    H256828   5.819   0.555  14.903 -0.4162 -0.5573  0.0911
11805TIP3   OH256829   1.285   4.442   5.257  0.4257 -0.1435  0.2581
11805TIP3    H156830   1.347   4.371   5.274 -0.2617 -0.7530  0.2688
11805TIP3    H256831   1.338   4.512   5.220  0.9339 -1.0718 -0.8159
11806TIP3   OH256832   2.112   1.338  11.786 -0.1142 -0.5078 -0.2902
11806TIP3    H156833   2.086   1.253  11.750 -1.3161  0.0403 -0.7939
11806TIP3    H256834   2.041   1.397  11.760  1.2067  0.8874 -0.8827
11807TIP3   OH256835   2.357   4.342   0.139  0.1832  0.0686 -0.5779
11807TIP3    H156836   2.315   4.333   0.053 -1.4008  0.5990  0.1027
11807TIP3    H256837   2.311   4.414   0.181 -1.6819 -2.4762  2.1683
11808TIP3   OH256838   3.528   4.307  16.390 -0.6295  0.1071  0.2498
11808TIP3    H156839   3.572   4.389  16.368  0.1212 -0.1022  0.9567
11808TIP3    H256840   3.597   4.251  16.424 -1.0946 -0.9068 -0.4265
11809TIP3   OH256841   0.464   6.178  10.871  0.0643 -0.6415  0.2302
11809TIP3    H156842   0.379   6.206  10.837  0.0298 -1.1429 -0.1107
11809TIP3    H256843   0.506   6.259  10.899  0.2967 -0.1335 -1.4596
11810TIP3   OH256844   2.430   2.527  16.497  0.3951  0.1736 -0.1497
11810TIP3    H156845   2.488   2.478  16.555  0.9417  0.8524 -0.1184
11810TIP3    H256846   2.461   2.617  16.502 -2.1141  1.0306  1.6988
11811TIP3   OH256847   1.877   4.179   1.112 -0.2931  0.1741  0.1936
11811TIP3    H156848   1.827   4.098   1.114 -0.1894  0.1018  2.2762
11811TIP3    H256849   1.937   4.172   1.186  0.0133  1.9511  0.1573
11812TIP3   OH256850   1.032   1.656   5.687 -0.4045  0.0825  0.4082
11812TIP3    H156851   1.042   1.577   5.635 -0.1512 -0.1775  0.8510
11812TIP3    H256852   1.059   1.727   5.628  2.3567 -0.4071  0.9275
11813TIP3   OH256853   3.351   5.891   6.518 -0.8016 -0.1102  0.1928
11813TIP3    H156854   3.285   5.925   6.578 -1.3078  0.6823 -0.7769
11813TIP3    H256855   3.322   5.802   6.498 -0.6799 -0.3415  1.0333
11814TIP3   OH256856   0.834   0.323   4.875 -0.1850 -0.1865  0.5894
11814TIP3    H156857   0.928   0.320   4.858 -0.3204  1.2770 -0.6009
11814TIP3    H256858   0.823   0.272   4.955  1.5373 -0.8523  0.4475
11815TIP3   OH256859   6.492   6.195  15.755 -0.2305  0.1482  0.2841
11815TIP3    H156860   6.467   6.276  15.710 -1.3696  0.3320  1.1879
11815TIP3    H256861   6.496   6.129  15.685 -0.0814  0.8137 -0.3444
11816TIP3   OH256862   5.178   6.487  15.375 -0.6498 -0.6091 -0.2317
11816TIP3    H156863   5.120   6.563  15.379 -0.7104 -0.4758 -2.3315
11816TIP3    H256864   5.119   6.412  15.375 -0.5956 -0.6995  1.6929
11817TIP3   OH256865   1.073   6.258  12.389 -0.0342 -0.2600 -0.3738
11817TIP3    H156866   1.137   6.297  12.330 -1.0261  1.0954 -0.6099
11817TIP3    H256867   1.021   6.199  12.333  0.1347 -0.3131 -0.4753
11818TIP3   OH256868   2.575   3.079   6.174 -0.2154  0.1112 -0.5150
11818TIP3    H156869   2.542   3.134   6.244 -0.8102 -0.5499 -0.2601
11818TIP3    H256870   2.558   2.989   6.204 -1.8917 -0.1848 -2.1357
11819TIP3   OH256871   0.502   6.308  17.023  0.0773 -0.0441 -0.3495
11819TIP3    H156872   0.486   6.217  16.999  0.6145 -0.1214 -0.4339
11819TIP3    H256873   0.415   6.346  17.035 -0.1432 -0.7943  0.5484
11820TIP3   OH256874   0.791   0.692  14.848  0.0264 -0.1279 -0.2429
11820TIP3    H156875   0.808   0.757  14.916 -1.8549  2.4698 -2.0400
11820TIP3    H256876   0.833   0.727  14.770 -2.1050 -0.3314 -1.5758
11821TIP3   OH256877   0.454   5.334   2.079  0.4202  0.7254 -0.0209
11821TIP3    H156878   0.512   5.271   2.035 -1.6672 -1.6650  0.3989
11821TIP3    H256879   0.445   5.405   2.015  0.1082 -1.0723 -2.1232
11822TIP3   OH256880   3.174   1.039  14.268 -0.2389  0.6149 -0.3459
11822TIP3    H156881   3.180   1.058  14.175 -0.2018 -0.1327 -0.5026
11822TIP3    H256882   3.113   1.104  14.302 -2.2153 -0.6305 -1.3426
11823TIP3   OH256883   4.866   2.628   1.974  0.0159  0.4329 -0.0615
11823TIP3    H156884   4.807   2.559   1.942 -0.4255  1.5789 -1.8732
11823TIP3    H256885   4.826   2.656   2.056 -0.1914 -0.9589  0.3479
11824TIP3   OH256886   0.744   1.504  10.696 -0.3323 -0.2134 -0.1397
11824TIP3    H156887   0.680   1.433  10.704 -1.5348  0.9630  1.3878
11824TIP3    H256888   0.698   1.581  10.729  1.1894  1.1377 -1.0391
11825TIP3   OH256889   5.666   4.788   1.384 -0.4967  0.4842  0.5111
11825TIP3    H156890   5.619   4.817   1.305 -0.4510  2.0644  1.0226
11825TIP3    H256891   5.729   4.858   1.401  1.0406 -0.8919  0.6997
11826TIP3   OH256892   4.316   2.791  11.553 -0.9273  0.4471 -0.0666
11826TIP3    H156893   4.285   2.741  11.478  1.7289  1.9842 -2.3927
11826TIP3    H256894   4.337   2.878  11.517  1.5439  0.9172  2.1436
11827TIP3   OH256895   4.978   2.041   4.049  0.2948 -0.7175 -0.5411
11827TIP3    H156896   4.927   2.000   3.979 -0.6627  0.8568 -0.8142
11827TIP3    H256897   5.068   2.040   4.016 -0.2047  0.4208 -2.0419
11828TIP3   OH256898   2.699   4.459   0.994  0.2900  0.1743  0.5482
11828TIP3    H156899   2.703   4.467   0.898 -0.9560  2.7708  0.6363
11828TIP3    H256900   2.635   4.390   1.009 -1.9972  1.9053 -0.5768
11829TIP3   OH256901   5.890   6.738  16.274  0.0976 -0.0457 -0.3972
11829TIP3    H156902   5.804   6.779  16.282  0.3523  0.3250  0.5843
11829TIP3    H256903   5.909   6.704  16.361  0.7096 -0.6088 -0.7418
11830TIP3   OH256904   5.009   0.013  14.193  0.5192 -0.2948  0.3578
11830TIP3    H156905   5.039   0.052  14.275  1.1780 -0.0863  0.0266
11830TIP3    H256906   5.060   0.058  14.126 -1.3864  0.9203 -0.3449
11831TIP3   OH256907   6.262   2.636   5.386 -0.5610 -0.0762 -0.2971
11831TIP3    H156908   6.283   2.707   5.324 -0.3753 -0.1972 -0.3732
11831TIP3    H256909   6.171   2.653   5.412 -0.5643  0.1080 -0.4262
11832TIP3   OH256910   5.384   1.233  15.312  0.1032  0.6837  0.0445
11832TIP3    H156911   5.428   1.149  15.296  0.6210  0.9000  0.3169
11832TIP3    H256912   5.390   1.279  15.228 -2.8188 -0.7040 -1.0792
11833TIP3   OH256913   4.855   4.069   2.546  0.5307  0.4303 -0.5581
11833TIP3    H156914   4.931   4.055   2.602  0.9409  1.7564 -0.7495
11833TIP3    H256915   4.891   4.107   2.466 -0.3511  1.2707 -0.5687
11834TIP3   OH256916   3.218   2.038   1.028  0.1911 -0.2451  0.2653
11834TIP3    H156917   3.139   1.991   1.054  0.2992 -0.2602  0.5768
11834TIP3    H256918   3.286   1.970   1.026  0.5703  0.0564  1.7268
11835TIP3   OH256919   6.105   5.167  13.807 -0.4714  0.4745 -0.4001
11835TIP3    H156920   6.015   5.190  13.830 -0.4286 -0.1650  0.4435
11835TIP3    H256921   6.119   5.081  13.846  0.4201  0.4416 -0.7597
11836TIP3   OH256922   5.694   5.222   1.487  0.6530 -0.5416  0.2762
11836TIP3    H156923   5.626   5.286   1.469  1.5569 -0.1168 -2.0570
11836TIP3    H256924   5.762   5.241   1.422  2.1154 -2.1840  1.2506
11837TIP3   OH256925   6.237   6.454  15.180  0.7100  0.8747  0.5808
11837TIP3    H156926   6.170   6.451  15.248  1.9280 -0.0126  1.7707
11837TIP3    H256927   6.290   6.531  15.201 -0.0829  1.7779 -0.5557
11838TIP3   OH256928   5.368   0.550  12.360 -0.2278  0.0525 -0.0359
11838TIP3    H156929   5.280   0.527  12.390 -0.4986  0.4768 -0.4815
11838TIP3    H256930   5.355   0.627  12.304  0.4016  0.0028 -0.2628
11839TIP3   OH256931   3.982   4.688   5.204  0.3439  0.0556  0.5533
11839TIP3    H156932   3.917   4.690   5.134  2.4659  0.3826 -1.5554
11839TIP3    H256933   3.970   4.770   5.252 -0.7316  0.1353  0.1606
11840TIP3   OH256934   5.387   6.623   3.941  0.5129 -0.5603 -0.0044
11840TIP3    H156935   5.438   6.564   3.998 -2.0782 -1.9702  1.0583
11840TIP3    H256936   5.307   6.640   3.991 -0.9088 -0.0237 -2.3323
11841TIP3   OH256937   2.834   4.267   6.612 -0.3370  0.0115  0.2671
11841TIP3    H156938   2.866   4.357   6.599 -1.1560  0.0421 -1.7592
11841TIP3    H256939   2.904   4.212   6.578 -0.0167 -0.1459  1.1326
11842TIP3   OH256940   0.285   5.534  15.403 -0.0837  0.0860  0.0349
11842TIP3    H156941   0.327   5.451  15.428  1.5206  0.7985 -0.1698
11842TIP3    H256942   0.214   5.507  15.344  0.5769 -1.1297 -0.2524
11843TIP3   OH256943   1.584   0.198  12.665 -0.3133 -0.1135 -0.0641
11843TIP3    H156944   1.580   0.275  12.608  0.2671 -0.1947 -0.2249
11843TIP3    H256945   1.676   0.190  12.688 -0.4457 -0.4714  0.3529
11844TIP3   OH256946   1.041   3.690  11.456 -0.1980  0.1603 -0.0439
11844TIP3    H156947   0.989   3.769  11.444 -0.6051 -0.1932 -0.6069
11844TIP3    H256948   1.128   3.714  11.424 -0.2820  0.4221 -0.0773
11845TIP3   OH256949   6.734   0.833  11.307  0.0878  0.0146 -0.1092
11845TIP3    H156950   6.698   0.849  11.395  1.4199 -1.0154  0.6493
11845TIP3    H256951   6.769   0.918  11.281  1.8790 -0.1819  1.4308
11846TIP3   OH256952   1.884   3.187   4.492  0.2699 -0.8350 -0.2315
11846TIP3    H156953   1.811   3.214   4.436 -0.6789  0.9033  1.6899
11846TIP3    H256954   1.852   3.110   4.538  0.4866 -1.3619 -0.9431
11847TIP3   OH256955   1.564   0.520  12.063  0.1105  0.0452  0.2043
11847TIP3    H156956   1.586   0.427  12.066  0.6137  0.1539  0.0416
11847TIP3    H256957   1.543   0.543  12.154  0.8389 -0.0317  0.3979
11848TIP3   OH256958   3.250   1.410   4.944  0.0384  0.1383 -0.1896
11848TIP3    H156959   3.196   1.460   4.882 -1.4366 -2.4091 -1.1009
11848TIP3    H256960   3.340   1.430   4.919 -0.5236  1.0703 -1.5697
11849TIP3   OH256961   4.283   5.468  13.886 -0.7652  0.8977  0.2480
11849TIP3    H156962   4.345   5.534  13.915  0.2443 -0.5489  1.5012
11849TIP3    H256963   4.335   5.389  13.873 -2.1895 -0.1091  0.3953
11850TIP3   OH256964   5.313   0.145   5.824  0.1732 -0.6881  0.6085
11850TIP3    H156965   5.307   0.050   5.814 -1.6632 -0.5166 -0.4365
11850TIP3    H256966   5.230   0.170   5.865 -0.0594  0.6087 -0.5717
11851TIP3   OH256967   2.043   4.296  15.786  0.1912 -0.1467  0.0974
11851TIP3    H156968   2.106   4.239  15.830  0.4968  0.5423  0.5709
11851TIP3    H256969   2.025   4.253  15.702  0.1076 -1.1345  0.6159
11852TIP3   OH256970   1.999   3.579   3.861  0.0230 -0.1748  0.3854
11852TIP3    H156971   1.943   3.542   3.793  3.6543 -2.5308 -1.6331
11852TIP3    H256972   2.047   3.650   3.818  0.2685  0.2860  1.3823
11853TIP3   OH256973   4.024   0.557   0.471  0.3057  0.4022 -0.4994
11853TIP3    H156974   3.992   0.637   0.514 -0.4071  0.0202 -0.2955
11853TIP3    H256975   3.960   0.490   0.496  0.3651 -0.0227 -1.4557
11854TIP3   OH256976   4.754   1.003  13.102 -0.1605  0.2682  0.0263
11854TIP3    H156977   4.840   0.976  13.070 -0.1313 -0.1003  0.4057
11854TIP3    H256978   4.753   1.098  13.091 -0.0482  0.1867 -0.8022
11855TIP3   OH256979   1.223   2.803   5.423 -0.1471 -0.4318 -0.0165
11855TIP3    H156980   1.165   2.742   5.377 -0.7175  1.8462 -2.5680
11855TIP3    H256981   1.167   2.876   5.447  0.6437 -0.5251  2.4420
11856TIP3   OH256982   0.306   2.415  11.467 -0.3997  0.1283 -0.3632
11856TIP3    H156983   0.306   2.508  11.487  1.5063  0.3929 -1.2977
11856TIP3    H256984   0.369   2.407  11.394 -0.0774 -1.9429  0.0857
11857TIP3   OH256985   4.457   6.400   2.492 -0.0580 -0.1125 -0.0214
11857TIP3    H156986   4.472   6.489   2.461 -0.1010 -0.5036 -1.2517
11857TIP3    H256987   4.538   6.353   2.473 -0.0977 -0.3729  0.4462
11858TIP3   OH256988   2.030   5.879   2.631 -0.3868  0.3455 -0.3335
11858TIP3    H156989   2.027   5.957   2.687  1.6402  0.8513 -0.8145
11858TIP3    H256990   1.999   5.909   2.546 -0.4349  0.4042 -0.2956
11859TIP3   OH256991   0.375   1.704  12.720  0.0303 -0.5920 -0.1829
11859TIP3    H156992   0.344   1.691  12.630 -1.8212  0.5058  0.2360
11859TIP3    H256993   0.468   1.722  12.711  0.2839 -2.3991 -1.6915
11860TIP3   OH256994   0.128   1.885   0.317 -0.7946 -0.1076 -0.5989
11860TIP3    H156995   0.034   1.876   0.300 -0.8930  0.0916 -0.1632
11860TIP3    H256996   0.168   1.812   0.270 -1.2758 -0.9022  0.2122
11861TIP3   OH256997   0.501   6.058   2.434  0.2655 -0.2030 -0.1013
11861TIP3    H156998   0.523   6.006   2.512  0.9206  0.2378  0.0220
11861TIP3    H256999   0.531   6.147   2.456 -0.8984  0.2417 -0.2819
11862TIP3   OH257000   1.593   4.564   4.188  0.0439 -0.0547  0.0757
11862TIP3    H157001   1.509   4.531   4.218 -1.4887  2.5495 -1.0159
11862TIP3    H257002   1.584   4.659   4.189  2.4523  0.2978 -1.5035
11863TIP3   OH257003   2.595   4.202   0.992 -0.4177  0.9167  0.0332
11863TIP3    H157004   2.559   4.129   1.043  2.2221 -0.6068 -0.0976
11863TIP3    H257005   2.544   4.203   0.912  0.3160 -1.7906 -0.5763
11864TIP3   OH257006   3.701   4.046  15.902  0.2121 -0.6039  0.1115
11864TIP3    H157007   3.638   4.117  15.917 -0.3225 -1.1763  0.6131
11864TIP3    H257008   3.676   4.010  15.817  1.6426  0.9798 -1.0523
11865TIP3   OH257009   1.997   2.860  14.483 -0.3936  0.2987  0.0408
11865TIP3    H157010   2.033   2.913  14.554 -0.3402  0.4551 -0.0990
11865TIP3    H257011   2.072   2.813  14.447 -0.4246  0.2009  0.1039
11866TIP3   OH257012   4.825   5.544   5.922 -0.2369  0.4011  0.0139
11866TIP3    H157013   4.842   5.555   6.015 -0.4453  0.3690  0.0563
11866TIP3    H257014   4.791   5.629   5.893 -1.6801 -0.0492  0.3030
11867TIP3   OH257015   3.353   0.017   2.425  0.9429 -0.3535  0.2404
11867TIP3    H157016   3.361  -0.059   2.366 -0.6050  0.0456 -0.5409
11867TIP3    H257017   3.260   0.041   2.420  1.5342  2.1354 -0.2509
11868TIP3   OH257018   2.642   1.701  15.406 -0.4803  0.6792  0.0637
11868TIP3    H157019   2.592   1.716  15.487 -0.1455  1.8115  0.0872
11868TIP3    H257020   2.597   1.629  15.363 -0.9205  0.3398  1.0594
11869TIP3   OH257021   3.928   1.091  10.806 -0.0463 -0.3547 -0.0911
11869TIP3    H157022   3.976   1.010  10.789  1.7430  0.3660  1.1731
11869TIP3    H257023   3.854   1.088  10.746 -0.0108 -2.8818 -0.1539
11870TIP3   OH257024   4.019   6.767   2.521 -0.1743  0.2726 -0.1302
11870TIP3    H157025   4.106   6.806   2.516 -0.0633  0.1321  0.5496
11870TIP3    H257026   3.959   6.841   2.528 -0.1231  0.3732 -0.7134
11871TIP3   OH257027   1.458   1.000  14.311 -0.2446  0.0122  0.4311
11871TIP3    H157028   1.463   1.083  14.358 -1.2319  0.4366 -0.1811
11871TIP3    H257029   1.376   1.005  14.262  0.2393 -0.8567 -0.5037
11872TIP3   OH257030   1.066   0.039   6.381  0.0567 -0.3569  0.3880
11872TIP3    H157031   0.984  -0.004   6.359 -0.4264 -0.4371  2.1604
11872TIP3    H257032   1.061   0.124   6.337 -0.7099 -0.6103 -0.0297
11873TIP3   OH257033   1.836   3.509   1.416 -0.1821  0.3831  0.1085
11873TIP3    H157034   1.902   3.555   1.468 -0.0706  0.2551  0.0799
11873TIP3    H257035   1.835   3.420   1.451  0.4522  0.0748 -0.6240
11874TIP3   OH257036   5.594   2.001  13.897 -0.2171  0.7003  0.1617
11874TIP3    H157037   5.560   1.967  13.979  1.3357  1.8700  1.3528
11874TIP3    H257038   5.529   1.975  13.831 -1.3300 -0.5447  1.6836
11875TIP3   OH257039   2.254   2.387  12.823 -0.4200  0.1340  0.3293
11875TIP3    H157040   2.218   2.475  12.833 -1.8830 -0.4459  0.3380
11875TIP3    H257041   2.259   2.373  12.728 -0.0023  0.2881  0.3258
11876TIP3   OH257042   3.416   1.304   2.626 -0.5234 -0.1262 -0.3672
11876TIP3    H157043   3.510   1.313   2.607 -0.9630  0.3150 -2.6041
11876TIP3    H257044   3.405   1.210   2.645 -0.0299 -0.7633 -2.8738
11877TIP3   OH257045   5.209   2.550  12.212  0.0310  0.0189 -0.1744
11877TIP3    H157046   5.168   2.618  12.158  0.5922  0.6064  0.1119
11877TIP3    H257047   5.270   2.506  12.153 -0.8357 -0.7116 -0.5428
11878TIP3   OH257048   4.997   0.584   2.059  0.3587  0.1953  0.3464
11878TIP3    H157049   4.921   0.590   2.002  1.9086  0.0541 -1.8537
11878TIP3    H257050   5.024   0.674   2.074  0.3289  0.2090  0.3161
11879TIP3   OH257051   1.478   5.370   0.473  0.7998 -0.8616  0.0985
11879TIP3    H157052   1.570   5.347   0.487  0.4793 -2.9101 -0.8254
11879TIP3    H257053   1.440   5.369   0.561  1.5932 -0.2346  0.4627
11880TIP3   OH257054   5.264   0.538   2.161 -0.1973  0.4519 -0.5198
11880TIP3    H157055   5.170   0.521   2.156 -0.1840  0.0157  0.5158
11880TIP3    H257056   5.271   0.615   2.217  0.0683  0.3335 -0.3874
11881TIP3   OH257057   2.875   2.589  11.706 -0.1135 -0.2016 -0.4895
11881TIP3    H157058   2.806   2.546  11.756 -0.6936  1.1783 -0.0666
11881TIP3    H257059   2.956   2.557  11.746 -0.5435 -0.3412  0.2922
11882TIP3   OH257060   6.067   5.749   5.175 -0.3198 -0.0174  0.7835
11882TIP3    H157061   6.090   5.662   5.207  0.1234  0.2399  1.1856
11882TIP3    H257062   6.086   5.807   5.249  0.2206  0.5214  0.2335
11883TIP3   OH257063   4.992   5.163  15.930  0.5501 -0.3952 -0.5866
11883TIP3    H157064   4.965   5.255  15.933 -0.9548 -0.8072 -0.8472
11883TIP3    H257065   5.041   5.151  16.012 -2.1240 -0.1798  1.1754
11884TIP3   OH257066   2.736   5.209  11.160  0.3307 -0.8060  0.3376
11884TIP3    H157067   2.756   5.127  11.114 -1.2342 -0.2104 -1.5259
11884TIP3    H257068   2.673   5.184  11.227  0.4028 -1.2427  0.2470
11885TIP3   OH257069   5.462   1.728  10.946  0.1077  0.0719 -0.5768
11885TIP3    H157070   5.508   1.645  10.958  1.7716  0.9629 -0.4557
11885TIP3    H257071   5.502   1.787  11.010 -2.6266  0.3984  0.9646
11886TIP3   OH257072   5.112   4.959  13.070 -0.4577 -0.3456  0.0920
11886TIP3    H157073   5.148   4.892  13.128 -0.1824  0.0948  0.4330
11886TIP3    H257074   5.035   4.992  13.117  0.7886  1.2916  1.0761
11887TIP3   OH257075   3.826   6.373   4.709 -0.1546 -0.3400 -0.4888
11887TIP3    H157076   3.737   6.343   4.726 -0.3512  0.1603 -0.6181
11887TIP3    H257077   3.874   6.353   4.790 -0.6339  0.3322 -0.0258
11888TIP3   OH257078   6.450   6.038   2.130  0.2115 -0.4038  0.4331
11888TIP3    H157079   6.497   6.099   2.072 -3.3964  1.0725 -1.2144
11888TIP3    H257080   6.410   6.094   2.196 -1.8171 -1.1050 -0.1355
11889TIP3   OH257081   0.340   5.764  12.838 -0.5374 -0.1304 -1.0713
11889TIP3    H157082   0.318   5.687  12.784 -0.5795  0.3316 -1.7264
11889TIP3    H257083   0.373   5.828  12.775 -0.8092  0.5052 -0.5700
11890TIP3   OH257084   1.006   2.678   4.253  0.0463 -0.0668 -0.6015
11890TIP3    H157085   1.007   2.584   4.234 -0.8049 -0.3610  0.6657
11890TIP3    H257086   1.065   2.689   4.327 -1.2263  0.0869  0.4294
11891TIP3   OH257087   4.349   3.805   5.247 -0.3459  0.3886 -0.1104
11891TIP3    H157088   4.326   3.888   5.288 -0.1505  0.2335  0.3213
11891TIP3    H257089   4.368   3.747   5.321  0.4923  0.2417 -0.4333
11892TIP3   OH257090   4.216   5.438   2.288 -0.3200 -0.1267 -0.2868
11892TIP3    H157091   4.169   5.501   2.233 -0.6798 -0.3760 -0.2696
11892TIP3    H257092   4.173   5.443   2.373  1.1790  1.3341  0.4377
11893TIP3   OH257093   5.737   4.467   3.758  0.5892 -0.6558 -0.4674
11893TIP3    H157094   5.681   4.541   3.734  3.2691  1.8495  0.3000
11893TIP3    H257095   5.680   4.408   3.806 -1.7052  0.9471 -1.0404
11894TIP3   OH257096   5.294   4.327   3.241  0.1237  0.0748  0.2674
11894TIP3    H157097   5.309   4.420   3.255 -2.6319  0.7850 -0.9128
11894TIP3    H257098   5.327   4.310   3.153  0.2148  0.0287  0.3100
11895TIP3   OH257099   1.436   6.733   1.562 -0.4930  0.3909  0.4161
11895TIP3    H157100   1.493   6.809   1.548  0.7958 -0.5523  0.4341
11895TIP3    H257101   1.459   6.672   1.492  0.3141 -1.0399  1.8572
11896TIP3   OH257102   3.271   3.299  14.349  0.1431 -0.3220 -0.0258
11896TIP3    H157103   3.287   3.205  14.349  1.5632 -0.1114  0.1040
11896TIP3    H257104   3.176   3.308  14.342 -0.0144 -1.7558  0.0239
11897TIP3   OH257105   2.743   4.474   0.725  0.1706 -0.3637 -0.2933
11897TIP3    H157106   2.789   4.433   0.652  0.9123 -1.0201  0.5137
11897TIP3    H257107   2.806   4.536   0.761 -0.1614 -0.0951 -0.1739
11898TIP3   OH257108   2.798   3.991  16.368 -0.5585 -0.3412 -0.0456
11898TIP3    H157109   2.776   3.899  16.384  1.5610 -0.7116  0.9711
11898TIP3    H257110   2.829   4.023  16.452  0.2639  0.8620 -0.7853
11899TIP3   OH257111   5.565   2.064  15.386 -0.1482 -0.4902  0.6136
11899TIP3    H157112   5.578   2.099  15.474  1.3655 -1.7070  0.9087
11899TIP3    H257113   5.637   2.101  15.335 -0.5517 -0.4347  0.0845
11900TIP3   OH257114   6.775   6.595  14.379  0.1061 -0.4939 -0.5465
11900TIP3    H157115   6.733   6.560  14.301  0.7895 -3.2666  0.2379
11900TIP3    H257116   6.869   6.594  14.359  0.1391  1.5367 -0.6942
11901TIP3   OH257117   1.277   3.902  13.529 -0.3803  0.6969 -0.1686
11901TIP3    H157118   1.195   3.930  13.570 -0.5375  0.4364 -0.3047
11901TIP3    H257119   1.292   3.965  13.458 -0.3321  0.8908  0.0107
11902TIP3   OH257120   4.413   4.404   2.068  0.1033  1.0002 -0.5105
11902TIP3    H157121   4.473   4.334   2.042  0.5898  1.9901 -2.1768
11902TIP3    H257122   4.451   4.440   2.148  0.3683  0.0012 -0.1752
11903TIP3   OH257123   1.327   4.226   6.246  0.1881 -0.1759 -0.3970
11903TIP3    H157124   1.290   4.302   6.291 -0.3803 -1.8630  2.2326
11903TIP3    H257125   1.419   4.225   6.272 -0.2942 -1.5498  1.5079
11904TIP3   OH257126   6.246   5.491  11.500  0.4352  0.9140  0.1882
11904TIP3    H157127   6.209   5.578  11.513 -1.6975  0.0879  0.1507
11904TIP3    H257128   6.227   5.470  11.409  1.5689  0.6720 -0.0062
11905TIP3   OH257129   1.091   6.154   3.994 -0.7669  0.0157  0.5077
11905TIP3    H157130   1.051   6.171   4.079  1.9001  0.7167  1.7264
11905TIP3    H257131   1.077   6.234   3.944 -1.1532  0.1072  0.7575
11906TIP3   OH257132   0.098   3.436  16.181 -0.2400 -0.0840 -0.5486
11906TIP3    H157133   0.146   3.493  16.242 -0.4116  0.1038 -0.5880
11906TIP3    H257134   0.111   3.348  16.216  3.4973 -0.5940 -2.6786
11907TIP3   OH257135   6.512   1.410   4.841  0.0913 -0.1796  0.5740
11907TIP3    H157136   6.508   1.505   4.829  0.6712  0.0658  2.0744
11907TIP3    H257137   6.501   1.398   4.935  0.8919 -1.5393  0.5130
11908TIP3   OH257138   3.006   3.352   3.396  0.4969 -0.1751 -0.2597
11908TIP3    H157139   3.000   3.444   3.422  0.8207  0.1337 -1.2605
11908TIP3    H257140   2.968   3.304   3.471 -0.1141  0.7881  0.0704
11909TIP3   OH257141   5.012   5.948  15.744 -0.0969 -0.2216 -0.2267
11909TIP3    H157142   5.059   5.868  15.770 -0.8359 -0.8281 -0.6970
11909TIP3    H257143   4.957   5.968  15.819 -1.6317 -1.5113 -0.9405
11910TIP3   OH257144   1.578   0.891   4.187 -0.4172 -0.0478  0.2189
11910TIP3    H157145   1.504   0.951   4.178 -0.0737  0.1601 -1.7099
11910TIP3    H257146   1.539   0.809   4.218 -1.3448  0.3016  0.0120
11911TIP3   OH257147   2.032   4.007  15.940 -0.0515  0.5455 -0.4431
11911TIP3    H157148   2.126   4.022  15.925 -0.1442  0.7181 -0.8621
11911TIP3    H257149   2.008   4.073  16.005  0.3145 -0.0888  0.3524
11912TIP3   OH257150   4.164   6.677   1.939  0.3796  0.1615 -0.1196
11912TIP3    H157151   4.167   6.581   1.948 -1.9425  0.0151 -0.2202
11912TIP3    H257152   4.208   6.694   1.856 -0.5716 -1.0048 -0.9073
11913TIP3   OH257153   3.635   3.384   0.156  0.3880  0.0756 -0.1982
11913TIP3    H157154   3.559   3.370   0.212  0.2825  0.4648 -0.2409
11913TIP3    H257155   3.621   3.326   0.081  0.8603 -0.9544  0.4833
11914TIP3   OH257156   2.244   4.378  11.378  0.0450 -0.3212 -0.2088
11914TIP3    H157157   2.330   4.402  11.343 -0.7696  1.5386 -1.0791
11914TIP3    H257158   2.254   4.382  11.473  0.8674  0.0279 -0.3053
11915TIP3   OH257159   2.056   3.143  17.157  0.0138  0.1041 -0.0710
11915TIP3    H157160   1.962   3.136  17.172  0.0891  0.5947  0.6599
11915TIP3    H257161   2.093   3.061  17.192 -0.3176 -0.9642 -2.0744
11916TIP3   OH257162   2.557   6.058   4.885 -0.1913 -0.0714  0.3868
11916TIP3    H157163   2.518   6.103   4.810 -0.0790 -1.9657 -0.8646
11916TIP3    H257164   2.640   6.023   4.852 -0.2546 -1.1585  1.3261
11917TIP3   OH257165   4.088   6.764   4.330  0.0413 -0.1506  0.4651
11917TIP3    H157166   4.160   6.759   4.392 -0.5086  0.7464  1.2114
11917TIP3    H257167   4.130   6.774   4.244  0.8750  3.1355  1.1172
11918TIP3   OH257168   1.128   0.832   4.866  0.7509  0.0841  0.6055
11918TIP3    H157169   1.075   0.841   4.787  0.5706  2.6042  0.9340
11918TIP3    H257170   1.212   0.798   4.836  1.4936  3.0774 -1.1072
11919TIP3   OH257171   3.672   4.891   3.140  0.1058 -0.2627  0.0679
11919TIP3    H157172   3.701   4.980   3.161  1.9808 -0.7941 -0.1021
11919TIP3    H257173   3.584   4.903   3.103 -0.7164  1.2725  2.2864
11920TIP3   OH257174   0.938   2.868  13.892 -0.5478 -0.3604  0.0843
11920TIP3    H157175   0.933   2.773  13.877 -2.9935 -0.7009  2.3006
11920TIP3    H257176   1.003   2.878  13.961  0.2189 -0.2957 -0.6233
11921TIP3   OH257177   0.326   3.858   4.270 -0.0581  0.4720 -0.2347
11921TIP3    H157178   0.321   3.944   4.229  0.2939  0.3439 -0.5575
11921TIP3    H257179   0.372   3.804   4.205  0.0125  0.1256  0.1025
11922TIP3   OH257180   2.240   5.718   2.683 -0.1359  0.4133  0.0226
11922TIP3    H157181   2.180   5.793   2.689  1.8028  2.1088 -0.6972
11922TIP3    H257182   2.267   5.702   2.774 -0.8274  0.3347  0.2212
11923TIP3   OH257183   3.363   3.116  16.216 -0.4197 -0.6514 -0.1503
11923TIP3    H157184   3.283   3.066  16.225 -0.6153 -0.1592  0.9686
11923TIP3    H257185   3.334   3.206  16.203 -0.0627 -0.3787  0.8378
11924TIP3   OH257186   4.299   5.448  16.955 -0.4405  0.2001 -0.4701
11924TIP3    H157187   4.267   5.364  16.987  1.1310 -0.0004  0.7078
11924TIP3    H257188   4.251   5.462  16.873 -1.3505 -1.4204 -0.2701
11925TIP3   OH257189   3.879   2.493   3.509  0.1341  0.2438 -0.6185
11925TIP3    H157190   3.956   2.535   3.470  1.3196  2.8581  3.8625
11925TIP3    H257191   3.806   2.549   3.483 -0.0419 -0.9163 -2.9372
11926TIP3   OH257192   1.502   5.046  17.080 -0.0726 -0.2041  0.5307
11926TIP3    H157193   1.445   4.972  17.060  3.1749 -2.9707  0.5323
11926TIP3    H257194   1.487   5.064  17.173 -1.9762  0.2365  0.1715
11927TIP3   OH257195   5.456   2.105  16.815  0.7066 -0.2781  0.1976
11927TIP3    H157196   5.549   2.083  16.829  0.5526 -0.0755  1.7059
11927TIP3    H257197   5.443   2.095  16.721  2.3821  0.1667 -0.1060
11928TIP3   OH257198   5.988   5.366  15.452 -0.0940  0.0920 -0.0077
11928TIP3    H157199   6.059   5.428  15.468  1.7807 -2.1188  0.8127
11928TIP3    H257200   5.991   5.307  15.528 -0.9844 -1.6888 -1.2963
11929TIP3   OH257201   0.686   1.751   2.697  0.0162 -0.0688 -0.2045
11929TIP3    H157202   0.619   1.769   2.631  0.6044 -0.7556 -1.0188
11929TIP3    H257203   0.696   1.833   2.745 -2.2637 -0.2875  0.7495
11930TIP3   OH257204   5.380   3.778  13.458  0.6088  0.2251  0.2351
11930TIP3    H157205   5.391   3.685  13.478  2.2542  0.3993  0.3116
11930TIP3    H257206   5.458   3.800  13.407  0.8336  1.8064  1.1844
11931TIP3   OH257207   3.880   2.101  15.632  0.2284  0.3838  0.5176
11931TIP3    H157208   3.886   2.015  15.675 -0.5206  0.0077 -0.0957
11931TIP3    H257209   3.970   2.122  15.608  0.4025 -0.3122  0.5250
11932TIP3   OH257210   3.382   2.737   5.107  0.1707  0.2141 -0.0265
11932TIP3    H157211   3.336   2.820   5.104  0.5128  0.3665 -1.4053
11932TIP3    H257212   3.467   2.755   5.067  1.4889 -0.0554  2.4489
11933TIP3   OH257213   6.515   5.733  15.693 -0.3381  0.5826  0.2658
11933TIP3    H157214   6.494   5.645  15.727 -1.5288  1.0892  0.8956
11933TIP3    H257215   6.500   5.727  15.599  1.7845 -0.4936 -0.0721
11934TIP3   OH257216   6.310   5.791   4.983  0.1889 -0.1141 -0.0743
11934TIP3    H157217   6.249   5.751   5.044 -0.1149  1.7977  0.9308
11934TIP3    H257218   6.342   5.718   4.930 -1.2092 -1.4846  0.8976
11935TIP3   OH257219   6.750   4.228   5.696  0.4727  0.7534 -0.2599
11935TIP3    H157220   6.838   4.265   5.696  0.0359  1.8579 -1.0776
11935TIP3    H257221   6.760   4.141   5.658  1.0222  1.4654 -1.8727
11936TIP3   OH257222   4.021   0.129   1.860  0.3666 -0.5626  0.6617
11936TIP3    H157223   4.031   0.034   1.869  0.1453 -0.6793 -0.1835
11936TIP3    H257224   3.996   0.159   1.948  1.3355 -1.1557  1.1509
11937TIP3   OH257225   4.148   4.571  17.078 -0.7787  0.4882 -0.6150
11937TIP3    H157226   4.127   4.478  17.074 -2.6247  0.9046 -1.6587
11937TIP3    H257227   4.207   4.586  17.004 -0.7326  0.2108 -0.6335
11938TIP3   OH257228   5.040   2.230   5.475 -0.2007  0.0261  0.4411
11938TIP3    H157229   5.004   2.171   5.541  0.1446  0.1325  0.7267
11938TIP3    H257230   4.985   2.309   5.481 -0.0848  0.0883  0.6943
11939TIP3   OH257231   1.452   6.536   5.118  0.5684 -0.0401  0.1579
11939TIP3    H157232   1.427   6.588   5.042 -0.8437  1.6649  1.6936
11939TIP3    H257233   1.399   6.571   5.189  0.9733 -2.3533  1.7008
11940TIP3   OH257234   1.329   5.308  15.279 -0.1685  0.1008  0.4975
11940TIP3    H157235   1.307   5.219  15.251 -0.4196  0.1290  0.6019
11940TIP3    H257236   1.363   5.297  15.368  1.6486 -0.1144 -0.1848
11941TIP3   OH257237   2.516   6.322  17.002  0.1395 -0.0252  0.1994
11941TIP3    H157238   2.602   6.284  17.014  0.7720  0.8764 -1.1683
11941TIP3    H257239   2.497   6.367  17.084  1.3360  0.4505  0.2310
11942TIP3   OH257240   0.000   1.950  16.833 -0.5107 -0.1188  0.9576
11942TIP3    H157241  -0.062   1.922  16.900 -0.9204  0.4214  0.8108
11942TIP3    H257242   0.030   2.036  16.863  1.3788 -1.0174  1.8480
11943TIP3   OH257243   2.557   0.952   3.929  0.0636  0.6403 -0.1160
11943TIP3    H157244   2.606   0.938   4.010  0.3055  0.1473 -0.3489
11943TIP3    H257245   2.549   1.048   3.922 -0.1535  0.6812  0.6034
11944TIP3   OH257246   2.213   4.668   2.812 -0.0232 -0.0462  0.2460
11944TIP3    H157247   2.196   4.588   2.862 -0.8404  0.2866  0.5176
11944TIP3    H257248   2.295   4.701   2.847  0.6551 -1.1003 -0.3108
11945TIP3   OH257249   4.379   5.903  10.795 -0.2608 -0.2291  0.2493
11945TIP3    H157250   4.324   5.839  10.750 -0.4177 -0.5624  0.8947
11945TIP3    H257251   4.468   5.878  10.771 -0.3674  0.1777 -0.6206
11946TIP3   OH257252   1.089   2.274  10.967  0.8848 -0.3441  0.1392
11946TIP3    H157253   1.129   2.188  10.979  1.7980  0.3660  3.0049
11946TIP3    H257254   1.162   2.332  10.950  0.2897 -0.0590 -1.5707
11947TIP3   OH257255   2.057   3.220   3.697  0.0991  0.3158  0.1097
11947TIP3    H157256   2.103   3.294   3.659 -0.7180  0.7887  0.0299
11947TIP3    H257257   2.125   3.154   3.710  0.3818  0.0157 -2.4217
11948TIP3   OH257258   2.351   1.650   3.376  0.0093  0.1141  0.4379
11948TIP3    H157259   2.294   1.711   3.330 -0.5076  0.4110  1.4304
11948TIP3    H257260   2.296   1.615   3.446 -0.0808 -2.3458 -0.7378
11949TIP3   OH257261   1.105   3.699  13.655 -0.2362 -0.3875  0.1679
11949TIP3    H157262   1.026   3.751  13.639  0.2286  0.4958  0.6193
11949TIP3    H257263   1.168   3.730  13.590  0.2377  0.0664  0.8225
11950TIP3   OH257264   6.020   5.495  16.873 -0.2304 -0.2050 -0.2591
11950TIP3    H157265   5.995   5.494  16.781 -1.0599 -1.9060 -0.0625
11950TIP3    H257266   5.971   5.422  16.912 -0.0556  0.5864  1.5710
11951TIP3   OH257267   2.098   2.983  13.655  0.0273  0.3744 -0.1154
11951TIP3    H157268   2.091   2.994  13.561  0.3962 -1.4747 -0.4025
11951TIP3    H257269   2.192   2.977  13.672 -0.0177  1.0843  0.4356
11952TIP3   OH257270   1.288   5.672  10.571 -0.0615 -0.1468  0.0661
11952TIP3    H157271   1.198   5.697  10.594 -0.0409 -1.1623  1.3962
11952TIP3    H257272   1.337   5.753  10.576 -1.1458  0.7645 -2.2907
11953TIP3   OH257273   0.059   5.814  13.197 -0.3742  0.0023  0.7744
11953TIP3    H157274   0.140   5.820  13.147 -0.2401  0.9779  1.0800
11953TIP3    H257275   0.084   5.767  13.277 -0.7424 -2.1664 -0.3343
11954TIP3   OH257276   1.019   3.462   0.768  0.4087  0.6466 -1.0427
11954TIP3    H157277   1.091   3.439   0.709  0.8020  0.7795 -0.6154
11954TIP3    H257278   1.060   3.469   0.854 -0.0568  1.0588 -0.8530
11955TIP3   OH257279   2.786   0.959   1.899 -0.3317  0.3914 -0.0086
11955TIP3    H157280   2.704   0.953   1.949 -0.4784 -1.1701 -0.3758
11955TIP3    H257281   2.758   0.962   1.808 -0.0032 -0.9823 -0.1841
11956TIP3   OH257282   3.793   2.361  15.863  0.2016 -0.3956 -0.1394
11956TIP3    H157283   3.777   2.421  15.936  0.2354  0.6905 -0.9841
11956TIP3    H257284   3.887   2.344  15.866  0.3712  0.4137 -0.4713
11957TIP3   OH257285   4.423   1.884  13.332  0.0601  0.1929 -0.4426
11957TIP3    H157286   4.380   1.811  13.287 -0.3936  0.3048 -0.1954
11957TIP3    H257287   4.371   1.961  13.306 -0.0544  0.2899  0.0726
11958TIP3   OH257288   4.646   0.240  11.975  0.0349 -0.7240  0.1538
11958TIP3    H157289   4.555   0.214  11.987 -0.5198  0.4919 -1.0364
11958TIP3    H257290   4.644   0.296  11.897  1.7987 -0.6433  0.1276
11959TIP3   OH257291   5.809   6.023   3.210  0.0896 -0.3489  0.2681
11959TIP3    H157292   5.776   6.112   3.227  0.4867  0.0992 -1.2031
11959TIP3    H257293   5.879   6.011   3.274  0.7465  0.8196 -0.2110
11960TIP3   OH257294   1.981   5.419   0.934 -0.1534  0.0032  0.1229
11960TIP3    H157295   2.044   5.371   0.989 -1.4094 -0.9810  0.7643
11960TIP3    H257296   1.896   5.395   0.970 -0.9589  0.3388 -1.4796
11961TIP3   OH257297   1.104   3.116   1.018  0.2283 -0.5070 -0.6747
11961TIP3    H157298   1.045   3.179   1.059  0.7111 -0.3941 -0.1399
11961TIP3    H257299   1.047   3.045   0.989  0.0548 -1.6733  2.1846
11962TIP3   OH257300   1.959   2.252   3.695  0.2358  0.4352 -0.7493
11962TIP3    H157301   2.025   2.190   3.664  0.0757  1.1124 -2.5683
11962TIP3    H257302   1.980   2.266   3.787 -1.7101 -4.8828  0.9023
11963TIP3   OH257303   4.626   3.258  14.499 -0.3785  0.2718  0.4482
11963TIP3    H157304   4.559   3.210  14.548 -0.1307  1.4788  2.0347
11963TIP3    H257305   4.601   3.350  14.508  0.6270  0.6292 -0.2738
11964TIP3   OH257306   1.725   0.725  16.255  0.9251 -0.3440  0.4303
11964TIP3    H157307   1.669   0.782  16.308  0.5355  0.3802 -0.7147
11964TIP3    H257308   1.810   0.769  16.255  0.4503  0.6556 -1.0121
11965TIP3   OH257309   4.230   5.880   4.647 -0.1490  0.1736 -0.1570
11965TIP3    H157310   4.159   5.905   4.706  1.7233  2.0249  1.4562
11965TIP3    H257311   4.239   5.954   4.587  0.4528  0.0011 -0.2903
11966TIP3   OH257312   2.815   6.630  16.690  0.3194 -0.0438  0.0197
11966TIP3    H157313   2.792   6.675  16.609 -0.4417  0.4934  0.5173
11966TIP3    H257314   2.751   6.559  16.697  0.7559 -0.4567 -0.1483
11967TIP3   OH257315   0.467   2.989  15.234 -0.2662 -0.3279 -0.0739
11967TIP3    H157316   0.428   2.904  15.259 -1.5850  0.4423  0.6209
11967TIP3    H257317   0.480   3.034  15.318  1.5940 -0.2988 -0.3389
11968TIP3   OH257318   4.803   3.816  13.985  0.0490  1.2316  0.2853
11968TIP3    H157319   4.871   3.884  13.984 -0.4362  1.7157 -0.1821
11968TIP3    H257320   4.760   3.824  13.900  1.7671 -1.4892 -1.0172
11969TIP3   OH257321   6.195   6.447  13.253 -0.1663  0.0444  0.0285
11969TIP3    H157322   6.240   6.380  13.202 -0.0939 -1.4674  1.9811
11969TIP3    H257323   6.136   6.490  13.190  0.9226 -0.7810 -1.6051
11970TIP3   OH257324   6.175   6.528  14.916  0.0893 -0.7222  0.1704
11970TIP3    H157325   6.217   6.612  14.898 -0.7687 -0.4102 -0.4747
11970TIP3    H257326   6.183   6.517  15.011  0.3048  0.0425  0.2523
11971TIP3   OH257327   1.012   0.971   5.641  0.3977  0.2056  0.0780
11971TIP3    H157328   1.010   0.913   5.565  0.6391 -1.2038  1.1239
11971TIP3    H257329   0.940   0.941   5.696  2.4258 -1.2270  2.1072
11972TIP3   OH257330   0.969   5.994  11.986 -0.4087  0.0122  0.0971
11972TIP3    H157331   0.954   5.930  12.056 -1.3685  0.2515  0.1204
11972TIP3    H257332   1.030   5.950  11.926  0.5608 -0.1271  1.1538
11973TIP3   OH257333   0.477   2.800   5.625 -0.6008  0.1990 -0.2113
11973TIP3    H157334   0.417   2.828   5.694 -0.3400 -1.5368  0.7773
11973TIP3    H257335   0.478   2.873   5.563 -0.1642  2.2352  2.0125
11974TIP3   OH257336   1.162   0.513   4.418  0.0851  0.0705 -0.6385
11974TIP3    H157337   1.154   0.426   4.458 -0.2635  0.1832 -0.4598
11974TIP3    H257338   1.247   0.512   4.375  0.5375 -0.0047  0.2392
11975TIP3   OH257339   4.470   0.386   4.543 -0.1564 -0.5336 -0.3373
11975TIP3    H157340   4.482   0.440   4.621 -0.4531  2.4612 -2.2288
11975TIP3    H257341   4.377   0.363   4.544  0.0581 -1.4472  0.6982
11976TIP3   OH257342   0.145   6.722   4.454 -0.2165  0.2396  0.2748
11976TIP3    H157343   0.215   6.756   4.398  0.5568 -2.7912 -0.8251
11976TIP3    H257344   0.068   6.718   4.398 -0.0972 -0.4968  0.1574
11977TIP3   OH257345   6.388   4.337  14.282 -0.5577 -0.5150 -0.7210
11977TIP3    H157346   6.298   4.338  14.314 -1.1381 -1.4833 -2.2454
11977TIP3    H257347   6.441   4.359  14.359 -1.9230 -2.1588  0.7614
11978TIP3   OH257348   0.267   1.838  13.415  0.4379  0.2308  0.2112
11978TIP3    H157349   0.204   1.800  13.354  0.3352 -0.2771  0.6334
11978TIP3    H257350   0.232   1.817  13.502  0.7763  0.6319  0.4465
11979TIP3   OH257351   0.649   2.426   0.083  0.7252 -0.5158 -0.4745
11979TIP3    H157352   0.714   2.383   0.027 -0.7869 -1.6780 -1.4173
11979TIP3    H257353   0.624   2.360   0.147 -0.3187 -0.4618 -0.8072
11980TIP3   OH257354   5.772   5.440  10.465 -0.2759  0.4810  0.0790
11980TIP3    H157355   5.705   5.453  10.533 -0.4018 -2.5808  0.6727
11980TIP3    H257356   5.722   5.431  10.384 -0.5251 -0.5170  0.3291
11981TIP3   OH257357   5.205   1.553   0.807 -0.2605  0.1602 -0.4556
11981TIP3    H157358   5.230   1.632   0.854  1.8532 -1.5753  1.6177
11981TIP3    H257359   5.285   1.527   0.759 -0.6867 -1.0706 -0.5395
11982TIP3   OH257360   0.502   1.344  14.571  0.6190 -0.2433 -0.1013
11982TIP3    H157361   0.534   1.333  14.661  0.6795 -3.5705 -0.4348
11982TIP3    H257362   0.527   1.264  14.526 -1.2734  0.4285 -2.5628
11983TIP3   OH257363   4.072   6.366   4.583  0.1503  0.5497 -0.1752
11983TIP3    H157364   4.115   6.384   4.666 -0.2843 -0.0385  0.1896
11983TIP3    H257365   3.980   6.389   4.598  0.1968  1.1045 -0.7166
11984TIP3   OH257366   6.510   3.187  12.879  0.2454  0.2608 -0.0462
11984TIP3    H157367   6.488   3.146  12.796  1.3648  1.3581 -0.9363
11984TIP3    H257368   6.435   3.170  12.936 -0.2497 -1.0808 -1.0605
11985TIP3   OH257369   0.476   0.574  12.961  0.2798  0.0886  0.1346
11985TIP3    H157370   0.445   0.511  12.895  2.2856 -1.7254  0.7831
11985TIP3    H257371   0.447   0.537  13.044  0.0432  0.9307  0.4260
11986TIP3   OH257372   6.111   2.970  16.885  0.0095 -0.2112  0.1408
11986TIP3    H157373   6.114   2.931  16.972  0.0948  0.2090  0.3279
11986TIP3    H257374   6.044   2.920  16.838 -1.5778  0.9255  1.1124
11987TIP3   OH257375   5.361   2.110   0.675 -0.2258 -0.3578 -0.6861
11987TIP3    H157376   5.395   2.024   0.652  1.0038  0.1726 -0.9423
11987TIP3    H257377   5.426   2.171   0.641 -0.4495  0.6192  0.5805
11988TIP3   OH257378   1.364   4.548   4.815 -0.0386  0.0333 -0.4335
11988TIP3    H157379   1.444   4.566   4.864  0.9323 -0.6533 -1.7030
11988TIP3    H257380   1.295   4.546   4.882  1.3404 -1.6873  1.0467
11989TIP3   OH257381   1.108   2.740   0.329 -0.2160  0.5590  0.1547
11989TIP3    H157382   1.062   2.687   0.394  1.0738  0.0765  0.6927
11989TIP3    H257383   1.047   2.745   0.255 -1.2819  0.2614  0.9923
11990TIP3   OH257384   0.759   0.515  11.021  0.3995 -0.3872 -0.2676
11990TIP3    H157385   0.762   0.610  11.024  1.0116 -0.4310  1.3662
11990TIP3    H257386   0.666   0.494  11.027 -0.0303  0.0950 -3.3965
11991TIP3   OH257387   0.511   2.871  14.998 -0.2460 -0.2039  0.1128
11991TIP3    H157388   0.464   2.899  15.077  1.2973 -0.0195  1.0197
11991TIP3    H257389   0.537   2.781  15.017 -0.4332 -0.3800 -0.4655
11992TIP3   OH257390   2.549   1.191  13.179 -0.6260 -0.7459 -0.2398
11992TIP3    H157391   2.463   1.149  13.179 -0.5108 -0.9871  0.3840
11992TIP3    H257392   2.603   1.134  13.126  0.0395 -2.4871  2.1653
11993TIP3   OH257393   2.434   5.647   0.247 -0.0063 -0.2262 -0.6196
11993TIP3    H157394   2.377   5.715   0.209  0.1267  0.3313  0.1436
11993TIP3    H257395   2.520   5.689   0.252 -0.1471 -0.0804  0.8119
11994TIP3   OH257396   4.438   5.009   3.808  0.3348 -0.3617 -0.8846
11994TIP3    H157397   4.522   5.016   3.762 -0.5263  0.4056 -2.4098
11994TIP3    H257398   4.399   5.096   3.800  1.0293  0.5363  3.2444
11995TIP3   OH257399   3.925   4.644   3.450 -0.2585  0.5734 -0.1228
11995TIP3    H157400   3.837   4.661   3.416 -0.6191 -0.3472  0.3273
11995TIP3    H257401   3.930   4.549   3.455  1.9954  0.3423 -3.4272
11996TIP3   OH257402   1.613   5.560  14.625 -0.1994  0.1010  0.2555
11996TIP3    H157403   1.555   5.611  14.568  0.2882  0.6425  0.2353
11996TIP3    H257404   1.563   5.548  14.705 -1.7116 -2.4090 -0.9629
11997TIP3   OH257405   4.292   3.825   4.624 -0.1926  0.5668 -0.6272
11997TIP3    H157406   4.224   3.835   4.690  1.4955  3.1111  0.8802
11997TIP3    H257407   4.247   3.842   4.541 -2.0512 -1.2892 -0.0903
11998TIP3   OH257408   3.041   1.131   1.178 -0.5516 -0.1795  0.3451
11998TIP3    H157409   2.957   1.086   1.187 -1.1928  0.8354 -0.3315
11998TIP3    H257410   3.087   1.111   1.259 -1.1629 -1.3179  0.4335
11999TIP3   OH257411   6.169   2.587  16.700  0.6745 -0.1695  0.3182
11999TIP3    H157412   6.184   2.501  16.661  0.4268  0.0905 -0.3529
11999TIP3    H257413   6.142   2.567  16.790 -1.4647 -0.9184 -0.4190
12000TIP3   OH257414   2.651   3.196   4.225  0.6169 -0.2655 -0.1507
12000TIP3    H157415   2.647   3.291   4.239  1.2528 -0.2965  0.2952
12000TIP3    H257416   2.727   3.168   4.276 -0.3269 -1.1988  0.7791
12001TIP3   OH257417   5.144   3.079   6.247 -0.2255  0.0954 -0.3008
12001TIP3    H157418   5.120   3.172   6.246 -0.5501  0.0706  1.5602
12001TIP3    H257419   5.185   3.065   6.333  2.9598 -0.7658 -1.7961
12002TIP3   OH257420   6.788   0.655   2.284  0.4527 -0.2732 -0.6263
12002TIP3    H157421   6.789   0.683   2.376 -2.0550  1.4595 -1.0683
12002TIP3    H257422   6.875   0.680   2.251  1.0547 -0.0768  0.9903
12003TIP3   OH257423   5.785   3.311   1.256  0.0819  0.6253  0.5024
12003TIP3    H157424   5.840   3.256   1.200  0.9025  1.8410  0.0813
12003TIP3    H257425   5.749   3.251   1.321  2.2502 -0.1320  1.0629
12004TIP3   OH257426   2.243   5.742  13.312  0.4472 -0.2514  0.6106
12004TIP3    H157427   2.332   5.711  13.329  0.6838  0.3551  0.5085
12004TIP3    H257428   2.215   5.694  13.235  0.0535 -1.6772  1.6038
12005TIP3   OH257429   5.141   5.005   2.861  0.3416  0.6513 -0.5954
12005TIP3    H157430   5.047   4.989   2.865  0.4046  0.4831  0.9531
12005TIP3    H257431   5.177   4.927   2.818  0.0376 -0.7514  1.5077
12006TIP3   OH257432   5.838   6.515   4.834  0.4084  0.4021  0.1067
12006TIP3    H157433   5.763   6.522   4.894  0.1020 -2.0722  0.1145
12006TIP3    H257434   5.798   6.519   4.747  0.3556 -0.1406  0.1053
12007TIP3   OH257435   1.707   6.093   3.338  0.3435  0.2284 -0.0571
12007TIP3    H157436   1.611   6.097   3.346  0.3194  0.0255 -0.2322
12007TIP3    H257437   1.735   6.046   3.417  0.1965 -0.7763 -0.5787
12008TIP3   OH257438   3.162   0.770  12.129 -0.5932  0.3493  0.5129
12008TIP3    H157439   3.122   0.770  12.216 -1.0284  1.7591  0.3444
12008TIP3    H257440   3.170   0.863  12.106  0.6235  0.0417 -0.4572
12009TIP3   OH257441   6.039   5.632   0.077  0.4855  0.3899  0.5225
12009TIP3    H157442   6.042   5.547   0.033  1.8214  0.7987 -0.2181
12009TIP3    H257443   5.989   5.688   0.017  2.1893  0.9099 -0.4770
12010TIP3   OH257444   6.595   1.738  10.551  0.0317  0.5300  0.1201
12010TIP3    H157445   6.597   1.828  10.517  0.0584  0.9644  1.2085
12010TIP3    H257446   6.516   1.699  10.514  0.1277  0.9355 -0.5236
12011TIP3   OH257447   3.326   4.608   3.501  0.1717  0.3160  0.0618
12011TIP3    H157448   3.302   4.516   3.509 -0.1565  0.4178  0.2440
12011TIP3    H257449   3.246   4.652   3.475  0.7680  0.2729 -1.9856
12012TIP3   OH257450   6.079   1.546   4.707 -0.2372 -0.4454 -0.0318
12012TIP3    H157451   6.074   1.546   4.803  2.5895 -1.3297  0.2093
12012TIP3    H257452   6.137   1.472   4.687  1.0389  1.0492 -2.2708
12013TIP3   OH257453   3.457   3.691  10.349 -0.0957  1.1225 -0.7203
12013TIP3    H157454   3.488   3.691  10.440  0.7493  2.1309 -0.9900
12013TIP3    H257455   3.437   3.600  10.331 -0.9947  0.9961  0.7114
12014TIP3   OH257456   1.778   3.989  16.726  0.3022  0.8901 -0.4673
12014TIP3    H157457   1.724   3.911  16.716  1.4409  0.2123 -1.5838
12014TIP3    H257458   1.827   3.974  16.807 -1.4901  1.7488  0.8455
12015TIP3   OH257459   6.036   4.857   2.208  0.1136  0.2142 -0.5639
12015TIP3    H157460   5.948   4.848   2.245  0.2714  0.7386 -0.0281
12015TIP3    H257461   6.027   4.829   2.117 -0.9299  1.5781 -0.9263
12016TIP3   OH257462   5.523   5.717  15.772  0.1291 -0.3163 -0.0262
12016TIP3    H157463   5.549   5.701  15.681 -0.8706 -2.2694 -0.0247
12016TIP3    H257464   5.600   5.695  15.824  0.0563 -1.2713 -0.3023
12017TIP3   OH257465   5.063   4.730   2.039  0.1479  0.3782 -0.3067
12017TIP3    H157466   4.997   4.789   2.001 -1.7309 -2.8720 -2.5684
12017TIP3    H257467   5.029   4.709   2.126 -0.2682  0.9105 -0.3313
12018TIP3   OH257468   0.773   3.854  15.478  0.2277 -0.5517 -0.0194
12018TIP3    H157469   0.859   3.834  15.442  1.0422  2.0234  0.2809
12018TIP3    H257470   0.786   3.852  15.573  0.2031  0.6859  0.0229
12019TIP3   OH257471   4.312   1.422   4.456  0.2278  0.3037  0.1064
12019TIP3    H157472   4.316   1.356   4.526  2.0930  1.3385  1.0426
12019TIP3    H257473   4.295   1.371   4.377 -0.9619 -1.0053  1.1432
12020TIP3   OH257474   4.888   1.459  16.537  0.0982 -0.2914 -0.0688
12020TIP3    H157475   4.823   1.424  16.476  0.8844 -1.7989 -0.1059
12020TIP3    H257476   4.863   1.423  16.622  0.0947  0.2569  0.1646
12021TIP3   OH257477   0.148   0.431  16.595  0.3697 -0.0635 -0.0317
12021TIP3    H157478   0.057   0.401  16.596  0.3314 -0.1352  2.8664
12021TIP3    H257479   0.146   0.514  16.643  1.9953 -0.8412  1.4909
12022TIP3   OH257480   4.470   3.490  14.994 -0.2028  0.4004  0.2454
12022TIP3    H157481   4.517   3.539  15.062  0.9782 -2.1348  1.3846
12022TIP3    H257482   4.383   3.475  15.032 -0.3942  1.1310  0.1094
12023TIP3   OH257483   3.609   4.214  15.590 -0.8108 -0.3849 -0.1490
12023TIP3    H157484   3.540   4.271  15.555  0.7826  1.6496 -0.1882
12023TIP3    H257485   3.583   4.199  15.681 -0.6215  1.5949  0.2849
12024TIP3   OH257486   3.331   1.406  13.302  0.6899 -0.4149  0.1352
12024TIP3    H157487   3.333   1.310  13.298  0.8290 -0.4028 -0.0717
12024TIP3    H257488   3.269   1.425  13.372 -0.6567 -0.6277 -0.9597
12025TIP3   OH257489   6.010   0.872   0.723  0.4264 -0.0615  0.0066
12025TIP3    H157490   6.063   0.813   0.668  1.0987  1.1406 -0.6840
12025TIP3    H257491   5.954   0.918   0.661  2.8755  3.0903 -0.1548
12026TIP3   OH257492   2.973   4.915  11.738 -0.0845  0.3526 -0.1121
12026TIP3    H157493   2.890   4.960  11.759 -0.2617  0.7563 -1.5994
12026TIP3    H257494   3.038   4.958  11.793 -0.7550  0.4463  0.6246
12027TIP3   OH257495   4.659   5.835   1.828 -0.3984 -1.0124 -0.0851
12027TIP3    H157496   4.738   5.787   1.853  0.1296  0.1440  0.5641
12027TIP3    H257497   4.588   5.788   1.872  0.2430 -0.5077  1.5868
12028TIP3   OH257498   2.077   3.628  14.671 -0.5171 -0.1977 -0.8482
12028TIP3    H157499   2.110   3.572  14.601 -1.8491 -0.3126 -1.4113
12028TIP3    H257500   2.140   3.617  14.743  0.4478 -0.6706 -1.7455
12029TIP3   OH257501   6.308   5.859   1.961 -0.6196  0.0775 -0.2861
12029TIP3    H157502   6.359   5.778   1.951 -0.9588  0.0286 -2.1070
12029TIP3    H257503   6.368   5.920   2.004  0.0945 -0.7470 -0.0895
12030TIP3   OH257504   6.055   6.204   1.719  0.8214 -0.0117 -0.2397
12030TIP3    H157505   6.067   6.131   1.781 -0.7693 -0.5190 -0.4714
12030TIP3    H257506   5.986   6.173   1.660 -2.4185  2.8919  1.6709
12031TIP3   OH257507   3.617   1.322   0.291 -0.1736  0.4659 -0.5249
12031TIP3    H157508   3.534   1.347   0.331  0.5755 -0.2349  1.6216
12031TIP3    H257509   3.640   1.396   0.235 -2.1111  0.7626 -0.9910
12032TIP3   OH257510   2.477   4.043   5.425 -0.0332  0.2866 -0.0541
12032TIP3    H157511   2.408   3.981   5.400  0.5085 -0.3365 -0.0216
12032TIP3    H257512   2.527   3.998   5.493  1.4228  0.0582 -1.2401
12033TIP3   OH257513   6.211   0.919  10.598  0.3037 -1.0208 -0.3256
12033TIP3    H157514   6.207   0.869  10.679  1.4416  0.6597  0.8278
12033TIP3    H257515   6.266   0.867  10.540  0.2483 -1.8041  0.3069
12034TIP3   OH257516   2.071   3.519   4.970  0.4145 -0.0959 -0.5119
12034TIP3    H157517   2.109   3.598   4.931  0.8330  1.5258  2.8613
12034TIP3    H257518   2.142   3.482   5.023 -0.7058 -0.9411  0.4419
12035TIP3   OH257519   1.341   1.403   4.439  0.1253  0.5678  0.3437
12035TIP3    H157520   1.340   1.394   4.534 -3.1828  1.9215  0.5742
12035TIP3    H257521   1.298   1.486   4.422  1.0641  0.6134 -2.3728
12036TIP3   OH257522   3.175   2.912  11.456  0.3329 -0.0243 -0.4367
12036TIP3    H157523   3.191   2.915  11.361 -1.9752  0.2591 -0.8771
12036TIP3    H257524   3.243   2.968  11.493  0.9341  0.3244 -1.9834
12037TIP3   OH257525   1.605   0.576  12.703  0.3979 -0.4383  0.0773
12037TIP3    H157526   1.534   0.540  12.649  1.1548  0.0900 -1.3322
12037TIP3    H257527   1.680   0.518  12.684  0.6024 -0.4185  0.8031
12038TIP3   OH257528   2.002   3.555  16.010  0.3554  0.0141 -0.5176
12038TIP3    H157529   1.934   3.617  15.982  0.1875 -0.1306 -0.4274
12038TIP3    H257530   1.999   3.485  15.944  0.2660 -0.1030 -0.3889
12039TIP3   OH257531   0.025   1.081  11.161 -0.1083  0.3237 -0.1297
12039TIP3    H157532  -0.025   1.125  11.229 -1.3308  1.4579 -1.6913
12039TIP3    H257533   0.114   1.116  11.170 -0.3910  0.9000  0.4925
12040TIP3   OH257534   1.170   3.988  10.451 -0.0563 -0.2835 -0.1336
12040TIP3    H157535   1.121   3.922  10.402  1.5459 -1.5634 -0.0988
12040TIP3    H257536   1.210   3.939  10.523 -0.1201  1.0460  0.8402
12041TIP3   OH257537   0.429   1.634  11.901  0.2186 -0.0182 -0.3765
12041TIP3    H157538   0.374   1.560  11.924  0.2406 -0.8603 -2.7261
12041TIP3    H257539   0.452   1.619  11.809  0.4392  2.7576 -0.8720
12042TIP3   OH257540   5.802   3.179   3.178 -0.5500 -0.4819  0.5904
12042TIP3    H157541   5.841   3.210   3.097  0.0201 -2.6034 -0.0319
12042TIP3    H257542   5.869   3.194   3.245 -0.2410 -0.4851  0.2835
12043TIP3   OH257543   3.982   5.323  10.827 -0.1395  0.7033  0.6467
12043TIP3    H157544   3.903   5.298  10.779 -1.0769  1.0005  1.9767
12043TIP3    H257545   4.005   5.409  10.792 -1.3055  1.2959  1.2706
12044TIP3   OH257546   0.203   1.469  12.326 -0.1128  0.3202  0.0570
12044TIP3    H157547   0.195   1.374  12.318  0.5725  0.3211 -0.7647
12044TIP3    H257548   0.202   1.502  12.236  0.0582  1.0559  0.3130
12045TIP3   OH257549   0.865   1.644  12.632  0.2618  0.1411 -0.7884
12045TIP3    H157550   0.886   1.553  12.654  3.2408  1.0336  0.4379
12045TIP3    H257551   0.862   1.645  12.536  1.9933 -0.9373 -0.8941
12046TIP3   OH257552   2.740   3.282  13.954  0.5482  0.9198  0.0430
12046TIP3    H157553   2.724   3.345  13.883 -0.7455 -1.2793 -1.7489
12046TIP3    H257554   2.680   3.309  14.023  0.4031  1.9512 -0.4545
12047TIP3   OH257555   0.886   2.672  14.542  0.2140 -0.7367 -0.7225
12047TIP3    H157556   0.835   2.696  14.465  0.2961 -1.8309 -1.1309
12047TIP3    H257557   0.912   2.582  14.527  0.1361 -1.0127  0.6475
12048TIP3   OH257558   5.884   4.557  12.889 -0.3023 -0.0782  0.3240
12048TIP3    H157559   5.799   4.513  12.892 -0.2080 -0.5731 -2.1184
12048TIP3    H257560   5.945   4.491  12.856  0.5364  0.9088 -0.1922
12049TIP3   OH257561   1.193   1.489  12.036 -0.1392  0.3455 -0.0583
12049TIP3    H157562   1.169   1.398  12.020  0.2713 -0.0285  1.3601
12049TIP3    H257563   1.109   1.535  12.044 -0.3655 -0.1967  0.7733
12050TIP3   OH257564   6.670   2.488   3.801 -0.0105  0.3889  0.0044
12050TIP3    H157565   6.620   2.412   3.773  0.4148  0.7454 -1.8263
12050TIP3    H257566   6.675   2.544   3.723  0.0394  2.1094  1.1816
12051TIP3   OH257567   1.656   1.833   0.666  0.1150 -0.4587 -0.1646
12051TIP3    H157568   1.562   1.847   0.664  0.2833  0.8717 -1.8324
12051TIP3    H257569   1.689   1.894   0.732 -0.0955  0.0577 -0.5261
12052TIP3   OH257570   2.912   4.243   0.316  0.0692 -0.2872  0.0711
12052TIP3    H157571   2.976   4.193   0.265  1.3387  0.0497  1.2718
12052TIP3    H257572   2.830   4.232   0.268  0.9134 -1.1172 -1.2730
12053TIP3   OH257573   3.766   2.916   0.926  0.0051  0.7830 -0.1163
12053TIP3    H157574   3.786   2.911   0.833 -0.6587 -2.6027 -0.1978
12053TIP3    H257575   3.827   2.981   0.960  2.1322  0.1809 -2.4809
12054TIP3   OH257576   0.540   5.695   5.224  0.0917  0.2845  0.5874
12054TIP3    H157577   0.633   5.680   5.245  0.4772  1.2862 -0.3299
12054TIP3    H257578   0.505   5.736   5.303  0.1316 -1.1021  1.3705
12055TIP3   OH257579   2.366   5.258  12.296  0.6809 -0.1383 -0.2651
12055TIP3    H157580   2.394   5.311  12.222  0.4485 -0.5410 -0.6466
12055TIP3    H257581   2.280   5.292  12.320  1.6180  1.3757  1.1758
12056TIP3   OH257582   3.361   0.647   4.704  0.2364 -0.6034  0.0374
12056TIP3    H157583   3.286   0.595   4.676 -1.6392  0.6713  2.2767
12056TIP3    H257584   3.327   0.736   4.710  2.0511  0.0851  0.7106
12057TIP3   OH257585   5.233   3.346  14.438 -0.7309 -0.4121 -0.8036
12057TIP3    H157586   5.151   3.387  14.413 -0.5835  0.8155  0.6063
12057TIP3    H257587   5.230   3.341  14.533  0.7596 -0.4732 -0.7285
12058TIP3   OH257588   1.750   4.011  12.470 -0.3866 -0.0543 -0.5464
12058TIP3    H157589   1.808   3.994  12.395  0.0760  0.2280 -0.2606
12058TIP3    H257590   1.795   3.970  12.544 -0.1207  0.9136 -0.1640
12059TIP3   OH257591   2.552   3.514  16.636 -0.3013 -0.6137  0.3634
12059TIP3    H157592   2.467   3.536  16.675 -0.9526  0.2583 -1.4680
12059TIP3    H257593   2.534   3.440  16.578  0.5073 -1.3860  1.0553
12060TIP3   OH257594   0.206   0.699  12.402  0.5849 -0.0007 -0.1766
12060TIP3    H157595   0.161   0.779  12.428  1.2847  0.8709 -1.5531
12060TIP3    H257596   0.253   0.671  12.481 -0.4321  0.3705  0.5957
12061TIP3   OH257597   5.548   1.754  16.455 -0.5094 -0.6069 -0.6446
12061TIP3    H157598   5.638   1.756  16.487 -1.4507 -0.4696  2.2230
12061TIP3    H257599   5.494   1.748  16.533 -3.0199 -1.2535 -2.3002
12062TIP3   OH257600   3.798   5.606  12.076  0.2276  0.1269  0.1104
12062TIP3    H157601   3.765   5.567  12.157 -0.6507  0.8831  0.1355
12062TIP3    H257602   3.727   5.664  12.048  0.8265  0.4159 -0.8135
12063TIP3   OH257603   2.948   4.199  11.478  0.1459 -0.4458  0.1525
12063TIP3    H157604   2.891   4.275  11.493 -0.4820 -1.0077  0.6886
12063TIP3    H257605   2.947   4.152  11.561 -1.2783 -2.2407 -0.8217
12064TIP3   OH257606   6.430   3.988   2.005  0.2113 -0.1308  0.0603
12064TIP3    H157607   6.389   3.913   2.049 -0.8939  0.8371  0.7511
12064TIP3    H257608   6.519   3.959   1.987 -0.2784 -1.7263  0.0178
12065TIP3   OH257609   5.046   1.654  16.467  0.1724  0.2515 -0.2575
12065TIP3    H157610   5.012   1.667  16.378 -0.8080  2.3301  0.3608
12065TIP3    H257611   4.979   1.601  16.511  0.9050 -1.2357 -0.8487
12066TIP3   OH257612   2.799   1.873   6.572  0.5690 -0.2829  0.1005
12066TIP3    H157613   2.827   1.964   6.583 -2.4815  0.9160 -1.0513
12066TIP3    H257614   2.739   1.857   6.645 -0.9979 -0.3949 -1.1481
12067TIP3   OH257615   4.942   2.527  16.142 -0.1002 -0.0383  0.0002
12067TIP3    H157616   4.941   2.621  16.125 -1.8122 -0.1149 -0.5318
12067TIP3    H257617   4.956   2.519  16.236 -2.4112  0.8758  0.4801
12068TIP3   OH257618   0.914   3.617  15.156  0.2820 -0.3507 -0.2915
12068TIP3    H157619   0.950   3.688  15.209  1.0701  0.4875 -1.8781
12068TIP3    H257620   0.872   3.558  15.219 -0.2880  1.4517  1.0701
12069TIP3   OH257621   3.723   6.345  12.396 -0.5845 -0.4178 -0.1125
12069TIP3    H157622   3.727   6.383  12.308  0.1713  0.9510  0.4888
12069TIP3    H257623   3.674   6.409  12.448 -0.6622 -1.0163  0.5747
12070TIP3   OH257624   5.880   3.349  10.672  0.3620  0.0993  0.7081
12070TIP3    H157625   5.960   3.301  10.650  0.9744  1.8626 -1.3490
12070TIP3    H257626   5.910   3.424  10.724 -0.0700  0.2796  0.7059
12071TIP3   OH257627   0.021   4.552  13.133 -0.1883 -0.6339  0.2567
12071TIP3    H157628   0.054   4.471  13.173 -1.1391 -0.8085  0.7151
12071TIP3    H257629   0.044   4.544  13.041  1.4132 -0.5476  0.6113
12072TIP3   OH257630   3.319   5.648   4.283  0.3465 -0.2800  0.3781
12072TIP3    H157631   3.291   5.604   4.363  2.5768 -0.0637  1.3505
12072TIP3    H257632   3.414   5.637   4.281  0.5826  1.4785 -1.1891
12073TIP3   OH257633   5.904   6.175   6.044 -0.4333 -0.0529 -0.2682
12073TIP3    H157634   5.966   6.242   6.072 -1.1233  0.3212  0.4125
12073TIP3    H257635   5.956   6.115   5.991  0.2545  0.8867 -0.7016
12074TIP3   OH257636   0.547   0.062   1.203 -0.0232  0.0814  0.0006
12074TIP3    H157637   0.603   0.060   1.125 -0.0389  0.3775 -0.0211
12074TIP3    H257638   0.472   0.116   1.176  0.5325  1.1888  0.5912
12075TIP3   OH257639   0.737   5.396   0.133  0.4465 -1.0189  0.1510
12075TIP3    H157640   0.703   5.311   0.107  1.2178 -1.3904  0.3206
12075TIP3    H257641   0.781   5.429   0.054  0.0147 -0.7042  0.0388
12076TIP3   OH257642   6.268   5.024   6.434 -0.6500 -0.3994  0.0804
12076TIP3    H157643   6.328   5.098   6.442 -1.3641  0.3580 -1.3873
12076TIP3    H257644   6.320   4.956   6.391 -0.2162 -0.5246  0.7751
12077TIP3   OH257645   0.009   3.074  12.712 -0.8868  0.3960  0.8653
12077TIP3    H157646  -0.070   3.019  12.715 -0.2396 -0.5241  1.3018
12077TIP3    H257647  -0.007   3.135  12.640 -1.9179  0.0999  0.8300
12078TIP3   OH257648   1.321   3.319   0.135 -0.1333 -0.1415 -0.1829
12078TIP3    H157649   1.309   3.240   0.082 -2.1625  0.3072 -0.4856
12078TIP3    H257650   1.289   3.390   0.079  2.4269  1.0766 -0.2530
12079TIP3   OH257651   2.324   0.356  16.015 -0.5590 -0.1153  0.1794
12079TIP3    H157652   2.269   0.309  15.952 -2.8923  1.4792  0.8904
12079TIP3    H257653   2.393   0.396  15.961 -1.0332 -0.8232 -0.9984
12080TIP3   OH257654   0.577   1.651  11.332  0.1461 -0.3524 -0.3037
12080TIP3    H157655   0.624   1.592  11.273  1.3463  0.8230 -0.5696
12080TIP3    H257656   0.636   1.663  11.406 -0.2949  0.1194 -0.0217
12081TIP3   OH257657   6.618   2.518   4.919  0.2864  0.0972  0.4896
12081TIP3    H157658   6.659   2.596   4.957 -0.5528  0.3684  0.8395
12081TIP3    H257659   6.524   2.533   4.927  0.1093 -0.5493 -0.2659
12082TIP3   OH257660   0.202   5.088  16.065 -0.0693 -0.4622  0.1132
12082TIP3    H157661   0.257   5.055  15.994  0.0752 -0.5801  0.2784
12082TIP3    H257662   0.129   5.026  16.069 -0.4792 -0.0194 -0.4406
12083TIP3   OH257663   1.458   1.483   2.964  0.1296  0.1811  0.1910
12083TIP3    H157664   1.530   1.537   2.997 -0.1212  0.1198  0.8616
12083TIP3    H257665   1.488   1.393   2.978 -0.0905  0.1557  0.5126
12084TIP3   OH257666   2.335   2.595  11.862  0.2320  0.3093 -0.0262
12084TIP3    H157667   2.353   2.607  11.955  1.5403  1.9764 -0.4384
12084TIP3    H257668   2.370   2.509  11.841 -0.0554 -0.0701  1.0241
12085TIP3   OH257669   2.322   3.559   1.357  0.2986  0.0265 -0.1620
12085TIP3    H157670   2.336   3.564   1.451 -0.7774  0.7389 -0.0203
12085TIP3    H257671   2.283   3.473   1.343  1.9620 -0.7718 -0.2005
12086TIP3   OH257672   0.938   5.971   1.143  0.7192 -0.0700 -0.5473
12086TIP3    H157673   1.014   5.932   1.186  1.8301  0.4514 -1.9421
12086TIP3    H257674   0.863   5.922   1.176  1.7817 -1.4285 -0.0655
12087TIP3   OH257675   6.657   6.210   2.091  0.3918 -0.2537  0.1352
12087TIP3    H157676   6.683   6.280   2.152 -1.7823 -0.0163  0.8678
12087TIP3    H257677   6.674   6.129   2.140  1.7694 -0.2267 -0.2536
12088TIP3   OH257678   0.157   1.815  15.393 -0.3171 -0.5607 -0.1154
12088TIP3    H157679   0.075   1.865  15.382  0.0485 -0.1490 -1.0368
12088TIP3    H257680   0.224   1.882  15.404 -0.0646 -0.8989  0.4512
12089TIP3   OH257681   3.889   6.008   5.962  0.3174  0.3830 -0.2492
12089TIP3    H157682   3.922   5.949   6.029 -1.0753  0.6269  0.6969
12089TIP3    H257683   3.956   6.076   5.954  0.3392  0.5522  1.1762
12090TIP3   OH257684   3.092   0.436  16.488 -0.7596  0.3694  0.3803
12090TIP3    H157685   3.069   0.502  16.554  0.9446  1.3136  0.0949
12090TIP3    H257686   3.186   0.425  16.498 -0.0208  2.0607 -3.1811
12091TIP3   OH257687   6.732   1.079  14.247 -0.0123  0.0868 -0.0863
12091TIP3    H157688   6.702   0.988  14.242  0.9791 -0.2196 -0.7581
12091TIP3    H257689   6.744   1.095  14.341 -1.7842  0.0830  0.1732
12092TIP3   OH257690   4.889   5.440   3.856 -0.4153  0.6796 -0.0061
12092TIP3    H157691   4.842   5.503   3.800  0.0653 -0.1010 -1.3396
12092TIP3    H257692   4.957   5.404   3.799  0.6853  0.4986  1.3666
12093TIP3   OH257693   1.212   3.697  12.543 -0.4206 -0.3248  0.1004
12093TIP3    H157694   1.208   3.612  12.587 -1.4107 -0.7560 -0.7713
12093TIP3    H257695   1.234   3.676  12.452  1.1948  0.5172  0.2633
12094TIP3   OH257696   0.779   3.017   1.440 -0.2219 -0.6451 -0.6364
12094TIP3    H157697   0.855   2.960   1.455 -0.4852 -1.1339 -1.1034
12094TIP3    H257698   0.813   3.087   1.384 -0.3069 -1.3601 -1.6183
12095TIP3   OH257699   3.035   6.213  12.078  0.3417 -0.7356 -0.2778
12095TIP3    H157700   3.046   6.190  12.170  2.1045 -2.1082 -0.7811
12095TIP3    H257701   3.121   6.201  12.039 -0.1782  0.5597 -1.9843
12096TIP3   OH257702   6.268   0.777  15.389  0.4674  0.4294 -0.4122
12096TIP3    H157703   6.304   0.756  15.302  0.8355 -0.5660 -0.0432
12096TIP3    H257704   6.177   0.747  15.385  0.4928  0.3553 -0.4515
12097TIP3   OH257705   6.702   2.584  14.793  0.3112 -0.1422  0.4840
12097TIP3    H157706   6.759   2.645  14.747  1.4819 -1.7011 -0.2359
12097TIP3    H257707   6.721   2.600  14.886  0.8499  0.3354  0.2981
12098TIP3   OH257708   4.877   5.083   4.810 -0.0425  0.3224 -1.0993
12098TIP3    H157709   4.849   5.172   4.791 -1.2323  0.2046 -0.0488
12098TIP3    H257710   4.932   5.091   4.888  0.3775  0.2092 -1.3819
12099TIP3   OH257711   5.589   6.533   0.571 -0.3761 -0.5631 -0.5162
12099TIP3    H157712   5.640   6.455   0.549  0.9200  0.1273 -0.0347
12099TIP3    H257713   5.508   6.522   0.522  0.0386 -1.9054 -0.9570
12100TIP3   OH257714   0.455   3.819   5.318 -0.1123 -0.3242 -0.4469
12100TIP3    H157715   0.480   3.757   5.250  1.2485 -0.3045  0.0159
12100TIP3    H257716   0.440   3.901   5.271  1.8751 -0.0241 -0.6451
12101TIP3   OH257717   6.630   4.264  12.944 -0.5048 -0.1212 -1.1165
12101TIP3    H157718   6.616   4.288  13.036 -0.1519 -0.8422 -0.8732
12101TIP3    H257719   6.689   4.332  12.912  0.6715 -0.7620 -0.3638
12102TIP3   OH257720   3.853   3.639  13.009 -0.2848  0.1512  0.2952
12102TIP3    H157721   3.768   3.597  12.994 -0.5818  0.0599  2.0651
12102TIP3    H257722   3.834   3.710  13.069  0.9388 -0.0490  0.9337
12103TIP3   OH257723   5.200   2.489  16.851 -0.1157 -0.4084  0.1228
12103TIP3    H157724   5.112   2.513  16.882 -0.7848 -0.2248 -1.8251
12103TIP3    H257725   5.259   2.546  16.902 -1.2918  1.1816 -0.2262
12104TIP3   OH257726   0.574   3.611   1.183  0.1987  0.5593 -0.1899
12104TIP3    H157727   0.621   3.660   1.116 -0.2600  2.7455  0.9895
12104TIP3    H257728   0.568   3.672   1.257 -1.8738 -0.6996  0.7566
12105TIP3   OH257729   2.537   4.465   2.861 -0.1798  0.0139 -0.3671
12105TIP3    H157730   2.572   4.462   2.950 -0.2778 -0.0437 -0.3298
12105TIP3    H257731   2.515   4.557   2.847  1.2103  0.2971 -0.8704
12106TIP3   OH257732   1.441   4.853   2.464 -0.1855 -0.7627 -0.6448
12106TIP3    H157733   1.366   4.795   2.452  0.6997 -2.0089 -0.3159
12106TIP3    H257734   1.460   4.848   2.558  0.7313 -0.9901 -0.8394
12107TIP3   OH257735   5.104   6.746   3.743 -0.9968  0.2485 -0.2591
12107TIP3    H157736   5.069   6.815   3.799 -0.6668  0.2059 -0.0053
12107TIP3    H257737   5.193   6.773   3.724 -0.2709 -0.9616  1.2471
12108TIP3   OH257738   4.585   0.201   1.855  0.0636  0.0909  0.1192
12108TIP3    H157739   4.559   0.197   1.762 -0.9731 -1.2537  0.4375
12108TIP3    H257740   4.635   0.121   1.869  0.0154  0.1748  0.7900
12109TIP3   OH257741   3.628   6.043   1.244  0.3450 -0.6994 -0.1319
12109TIP3    H157742   3.579   5.966   1.216  0.1505 -0.6487  0.0689
12109TIP3    H257743   3.689   6.010   1.310  0.4008 -0.7168 -0.1922
12110TIP3   OH257744   4.420   6.378   0.782  0.3145  0.1486 -0.1742
12110TIP3    H157745   4.510   6.397   0.756  0.9971 -1.6430  0.6641
12110TIP3    H257746   4.376   6.463   0.782  1.6902  0.9137 -1.7009
12111TIP3   OH257747   2.702   5.061   4.587 -0.0390 -0.2759 -0.6317
12111TIP3    H157748   2.741   5.071   4.674  2.8152  1.4411 -1.9485
12111TIP3    H257749   2.734   4.976   4.555 -0.3552 -0.5036 -0.3433
12112TIP3   OH257750   2.544   4.693  12.791 -0.0105 -0.5919 -0.1473
12112TIP3    H157751   2.503   4.669  12.874 -0.6182  0.1415 -0.2182
12112TIP3    H257752   2.486   4.759  12.754  1.3420  0.6585 -0.1540
12113TIP3   OH257753   2.106   4.847  11.601 -0.5833 -0.2855  0.6624
12113TIP3    H157754   2.059   4.765  11.587 -2.0383  0.6575 -0.2980
12113TIP3    H257755   2.082   4.874  11.690 -2.1121  0.2815  0.1167
12114TIP3   OH257756   1.321   1.097  16.869  0.2248  0.1425  0.3053
12114TIP3    H157757   1.392   1.034  16.881  1.0761  0.9307 -0.4661
12114TIP3    H257758   1.365   1.180  16.850 -0.8777  0.9703  1.2420
12115TIP3   OH257759   5.636   3.943   3.185  0.1668  0.4628  0.3022
12115TIP3    H157760   5.545   3.957   3.159  0.7512  0.6189 -1.8205
12115TIP3    H257761   5.687   4.001   3.129  1.7534 -1.3999 -0.3071
12116TIP3   OH257762   0.813   1.172   1.164  0.2022  0.2135  0.5397
12116TIP3    H157763   0.779   1.097   1.213  1.6357  0.2596  1.6579
12116TIP3    H257764   0.856   1.134   1.087  0.1272 -0.0393  0.6230
12117TIP3   OH257765   3.651   3.444   3.371 -0.1312  0.0629  0.3911
12117TIP3    H157766   3.735   3.466   3.410  0.1867  1.3584 -0.9587
12117TIP3    H257767   3.625   3.362   3.415  1.4452  0.0429  1.3623
12118TIP3   OH257768   5.753   2.212   0.920  0.5918 -0.7148 -0.1652
12118TIP3    H157769   5.801   2.295   0.911 -0.2137 -0.2430 -0.1621
12118TIP3    H257770   5.760   2.191   1.014 -0.6348  0.2354  0.1560
12119TIP3   OH257771   5.387   3.924  16.062 -0.3502  0.1495 -0.3435
12119TIP3    H157772   5.443   3.922  15.984 -1.4461 -0.5479 -1.1295
12119TIP3    H257773   5.319   3.989  16.042 -1.5421 -1.1505 -0.6401
12120TIP3   OH257774   6.029   5.595   3.105 -0.1338 -0.1007  0.5472
12120TIP3    H157775   6.014   5.685   3.076  0.4248  0.3059  1.4872
12120TIP3    H257776   5.948   5.571   3.150 -0.3476 -0.1337  0.1518
12121TIP3   OH257777   0.862   3.200  15.312  0.7735 -0.0210  0.0808
12121TIP3    H157778   0.794   3.267  15.305 -0.2822 -0.9197  1.3834
12121TIP3    H257779   0.825   3.124  15.266  1.0154 -0.4157  0.5321
12122TIP3   OH257780   5.602   4.242  15.462  0.2531 -0.2550  0.9483
12122TIP3    H157781   5.658   4.213  15.390 -1.3986 -1.9450  0.2654
12122TIP3    H257782   5.584   4.334  15.443  0.3793 -0.5003 -0.4427
12123TIP3   OH257783   3.362   0.182  12.729  0.2638 -0.5114  0.1769
12123TIP3    H157784   3.436   0.203  12.671 -0.3849  1.3686 -0.0228
12123TIP3    H257785   3.287   0.176  12.670  0.0165 -1.1684  0.5409
12124TIP3   OH257786   3.572   0.711  16.209  0.1823 -0.1501  0.0482
12124TIP3    H157787   3.591   0.758  16.290 -0.0964 -1.0534  0.6542
12124TIP3    H257788   3.610   0.624  16.222 -1.5983 -0.9762  0.0381
12125TIP3   OH257789   2.701   2.604   3.979  0.2847 -0.0798 -0.7410
12125TIP3    H157790   2.640   2.593   4.052 -0.4768 -0.3346 -1.3954
12125TIP3    H257791   2.706   2.699   3.968  0.7241 -0.0239 -0.1010
12126TIP3   OH257792   0.537   1.430   3.066  0.0471  0.6224  0.6279
12126TIP3    H157793   0.477   1.428   3.140 -2.7731 -0.6055 -1.5022
12126TIP3    H257794   0.542   1.523   3.041 -3.0046  0.5609 -0.5668
12127TIP3   OH257795   6.388   0.228   5.543 -0.2048 -0.5138  0.0529
12127TIP3    H157796   6.299   0.262   5.543 -0.2333 -0.5873  0.3153
12127TIP3    H257797   6.378   0.133   5.539 -0.1157 -0.4854 -1.2050
12128TIP3   OH257798   6.196   6.738  16.461  0.4580 -0.4973 -0.8984
12128TIP3    H157799   6.210   6.765  16.370 -0.9251  0.5131 -0.8386
12128TIP3    H257800   6.164   6.816  16.505 -1.4552 -1.6162 -0.1803
12129TIP3   OH257801   0.951   2.517  11.685 -0.2367 -0.1626  0.8259
12129TIP3    H157802   0.903   2.524  11.602  0.4163 -0.8382  0.3838
12129TIP3    H257803   0.976   2.607  11.706 -0.2483 -0.0083  0.1951
12130TIP3   OH257804   0.771   2.849   5.457 -0.0396  0.0502  0.7025
12130TIP3    H157805   0.732   2.767   5.485  1.6543 -0.8937  0.4269
12130TIP3    H257806   0.733   2.866   5.370 -0.8802 -0.0866  1.0412
12131TIP3   OH257807   1.171   5.036  12.828 -0.5255  0.0797  0.4525
12131TIP3    H157808   1.114   5.020  12.904 -0.8283 -1.1399 -0.0029
12131TIP3    H257809   1.238   4.968  12.833  0.3652  0.9468  0.4744
12132TIP3   OH257810   4.974   1.992   0.188 -0.0468  0.6641 -0.3430
12132TIP3    H157811   4.999   2.084   0.187 -2.0964  1.2662 -0.8801
12132TIP3    H257812   4.948   1.975   0.278  1.5719  0.2085  0.0688
12133TIP3   OH257813   0.146   0.375   1.294  0.4562 -0.4235 -0.6173
12133TIP3    H157814   0.090   0.436   1.246  1.0365 -0.2587 -1.0976
12133TIP3    H257815   0.085   0.320   1.342 -0.1554 -0.6028 -1.5555
12134TIP3   OH257816   5.267   4.558   4.628  0.4217  0.7103  0.2634
12134TIP3    H157817   5.351   4.547   4.584  0.6007  0.9992  0.5389
12134TIP3    H257818   5.289   4.568   4.721  0.1300  1.5057  0.2505
12135TIP3   OH257819   6.666   1.067   5.862 -0.1553 -0.5880  0.2895
12135TIP3    H157820   6.743   1.051   5.916  0.1310  1.2214  0.4642
12135TIP3    H257821   6.651   0.984   5.817  1.4973 -1.1673  0.7408
12136TIP3   OH257822   2.181   0.698  12.898  0.0169  0.4426  1.2743
12136TIP3    H157823   2.103   0.711  12.950 -0.1944 -0.3315  1.1689
12136TIP3    H257824   2.184   0.603  12.883  0.3015  0.6011  0.2514
12137TIP3   OH257825   2.392   4.101  11.855  0.2074  0.1427 -0.1755
12137TIP3    H157826   2.355   4.168  11.912 -0.0539 -1.2673  1.3751
12137TIP3    H257827   2.485   4.123  11.849  0.1832  0.4728  0.5716
12138TIP3   OH257828   5.168   5.775  13.282  0.0326  0.3349 -0.4575
12138TIP3    H157829   5.121   5.715  13.340 -0.0737  0.3100 -0.5677
12138TIP3    H257830   5.193   5.849  13.338 -0.6368  0.6161 -0.5159
12139TIP3   OH257831   5.641   3.615  15.001 -0.7439 -0.0925  0.0911
12139TIP3    H157832   5.662   3.560  14.926 -0.9009 -0.9561  0.6714
12139TIP3    H257833   5.545   3.614  15.006 -0.7068 -0.7371  0.8061
12140TIP3   OH257834   2.507   4.446  13.060 -0.0448 -0.4104  0.2668
12140TIP3    H157835   2.424   4.493  13.054  0.0160 -0.3744 -0.3547
12140TIP3    H257836   2.574   4.514  13.057  0.0999 -0.5692 -2.1185
12141TIP3   OH257837   6.039   0.272  14.645 -0.4800  0.1529  0.0365
12141TIP3    H157838   6.087   0.354  14.635  0.1142 -0.1107  0.6634
12141TIP3    H257839   6.008   0.252  14.557 -0.0617  0.7048 -0.2470
12142TIP3   OH257840   3.605   5.416   4.928 -0.2205 -0.5172 -0.7210
12142TIP3    H157841   3.565   5.496   4.893 -0.6790 -0.1916  0.4943
12142TIP3    H257842   3.599   5.353   4.856 -0.7794  0.2381 -1.3533
12143TIP3   OH257843   5.223   4.519  11.605 -0.0922  0.4097 -0.7093
12143TIP3    H157844   5.263   4.577  11.541  1.6362 -1.3576 -1.3288
12143TIP3    H257845   5.296   4.467  11.639 -1.1648  0.3973  1.7572
12144TIP3   OH257846   6.231   0.479  15.333 -0.3172  0.1833 -0.1018
12144TIP3    H157847   6.275   0.442  15.257  0.6448 -0.3637  0.6952
12144TIP3    H257848   6.151   0.518  15.298 -0.0147 -0.2708 -1.3478
12145TIP3   OH257849   0.978   3.580   6.312 -0.0687  0.3784  0.6711
12145TIP3    H157850   0.883   3.565   6.315 -0.2099  0.6751 -1.0589
12145TIP3    H257851   0.988   3.673   6.334 -0.1929  0.3779  0.7312
12146TIP3   OH257852   4.810   4.646   0.036  0.1677 -0.6601 -0.2148
12146TIP3    H157853   4.887   4.601   0.070 -1.6635 -1.6863  3.0788
12146TIP3    H257854   4.810   4.731   0.081 -1.5966 -1.5094  1.5848
12147TIP3   OH257855   5.558   5.997  15.649  0.3782  0.3918  0.5886
12147TIP3    H157856   5.625   5.940  15.611 -0.9289 -0.5754 -0.3917
12147TIP3    H257857   5.532   5.952  15.730  0.3544  0.3256  0.5450
12148TIP3   OH257858   1.039   4.992   1.039  0.3624  0.8425 -0.1352
12148TIP3    H157859   1.093   4.920   1.008  1.0327  1.6829 -0.9753
12148TIP3    H257860   1.095   5.038   1.103 -0.2820  0.2881  0.8603
12149TIP3   OH257861   2.183   0.409   0.390  0.3100  0.0620  0.3123
12149TIP3    H157862   2.140   0.442   0.469  1.3179  0.2702  0.7911
12149TIP3    H257863   2.123   0.343   0.356 -1.1615  1.4739  0.0391
12150TIP3   OH257864   3.533   3.493   2.474 -0.0577  0.0088  0.0905
12150TIP3    H157865   3.568   3.462   2.391 -0.3040  0.9889 -0.4010
12150TIP3    H257866   3.444   3.456   2.478 -0.2838  0.4786 -0.4018
12151TIP3   OH257867   6.095   1.052   2.786 -0.1742  0.0320 -0.1151
12151TIP3    H157868   6.176   1.091   2.819  0.7886 -0.3819 -1.8684
12151TIP3    H257869   6.120   0.962   2.763 -1.1378 -0.1078 -0.6707
12152TIP3   OH257870   4.238   3.608  11.559 -0.4931  0.1021  0.2445
12152TIP3    H157871   4.260   3.665  11.485  1.3777 -1.9621 -0.9023
12152TIP3    H257872   4.143   3.608  11.562 -0.5719  1.3664 -1.2635
12153TIP3   OH257873   5.030   0.446   5.121 -0.4119 -0.2085  0.1388
12153TIP3    H157874   4.964   0.382   5.149 -0.1926 -0.0899  0.9524
12153TIP3    H257875   5.075   0.470   5.202  0.4289 -0.0633 -0.3675
12154TIP3   OH257876   1.745   4.216   0.072  0.3596  0.1712 -0.1386
12154TIP3    H157877   1.727   4.296   0.122 -1.1514 -1.0199  1.3338
12154TIP3    H257878   1.837   4.224   0.046 -0.1534  3.0924 -1.4162
12155TIP3   OH257879   5.681   3.450  15.426 -0.2530 -0.5186 -0.1610
12155TIP3    H157880   5.748   3.515  15.448 -0.4479 -0.1347 -0.6992
12155TIP3    H257881   5.606   3.475  15.480 -0.2913 -0.3580 -0.2863
12156TIP3   OH257882   6.460   2.953   1.564  0.1672 -0.2844 -0.0201
12156TIP3    H157883   6.410   2.979   1.487  1.5462 -2.0093 -1.5635
12156TIP3    H257884   6.509   3.032   1.588  0.0367  0.1537 -1.1454
12157TIP3   OH257885   5.241   6.673  16.140  0.0037 -0.1411  0.6510
12157TIP3    H157886   5.148   6.682  16.122  0.5462  0.2345 -2.6219
12157TIP3    H257887   5.260   6.580  16.124  0.3305 -0.0126  0.2528
12158TIP3   OH257888   5.509   6.208  14.296  0.2255 -0.2307 -0.4038
12158TIP3    H157889   5.459   6.286  14.323  0.0014 -1.2680  2.6330
12158TIP3    H257890   5.445   6.137  14.301  0.4625 -0.7033 -3.0224
12159TIP3   OH257891   2.558   5.761  13.523  0.3792  0.8334 -0.4811
12159TIP3    H157892   2.577   5.817  13.598 -0.8182  1.5392 -0.6849
12159TIP3    H257893   2.474   5.722  13.544 -0.4119  1.7478 -1.8515
12160TIP3   OH257894   5.642   0.099  14.855 -0.2423 -0.8463 -0.5061
12160TIP3    H157895   5.563   0.052  14.828 -1.2362  0.8212 -0.6389
12160TIP3    H257896   5.659   0.160  14.784  1.9773 -2.0278 -1.1016
12161TIP3   OH257897   3.973   3.838   4.194  0.3572 -0.0409 -0.3564
12161TIP3    H157898   3.955   3.747   4.173 -0.7465  0.0936 -0.0360
12161TIP3    H257899   3.967   3.842   4.290  1.6426  0.1223 -0.2584
12162TIP3   OH257900   0.787   3.467   2.387  0.2061  0.0255  0.0539
12162TIP3    H157901   0.759   3.552   2.421  0.4335  0.3599 -0.5696
12162TIP3    H257902   0.711   3.433   2.341  0.2329  0.0687 -0.0230
12163TIP3   OH257903   4.147   6.282  12.787 -0.4077  0.2280  0.6755
12163TIP3    H157904   4.070   6.298  12.732  0.1378  0.6011  0.0139
12163TIP3    H257905   4.221   6.295  12.728  0.1638 -3.8320  0.2185
12164TIP3   OH257906   1.812   3.979   5.177 -0.3665 -0.3997  0.4438
12164TIP3    H157907   1.800   3.894   5.219  0.2592 -0.3119  0.8116
12164TIP3    H257908   1.871   3.960   5.103  0.0951 -0.2227  0.7626
12165TIP3   OH257909   5.040   4.595   1.792  0.2691 -0.3551 -0.6535
12165TIP3    H157910   5.050   4.614   1.885  0.8063  1.1193 -0.9990
12165TIP3    H257911   4.946   4.603   1.776 -0.1844 -2.8729  0.1850
12166TIP3   OH257912   0.039   2.142  14.753 -0.2758 -0.3475 -0.0486
12166TIP3    H157913   0.118   2.196  14.752 -1.5195  1.5921  0.9111
12166TIP3    H257914  -0.014   2.175  14.681  0.1459 -2.2962 -1.3238
12167TIP3   OH257915   1.638   6.368  16.656 -0.1833  0.2394 -0.3711
12167TIP3    H157916   1.564   6.406  16.703  0.0215 -0.2316  0.3453
12167TIP3    H257917   1.598   6.306  16.594 -0.3529 -0.8420  0.7782
12168TIP3   OH257918   1.146   3.475  15.088  0.2684  0.4511 -0.2909
12168TIP3    H157919   1.148   3.467  14.992 -0.6050  1.9284 -0.4568
12168TIP3    H257920   1.062   3.517  15.106  0.9220  1.2099  1.0585
12169TIP3   OH257921   3.675   4.369  13.724 -0.4879 -0.7133 -0.1970
12169TIP3    H157922   3.649   4.384  13.815  1.0627 -1.0875  0.3307
12169TIP3    H257923   3.685   4.457  13.687  0.2493 -0.5230  0.4179
12170TIP3   OH257924   4.333   3.826   0.208 -0.1664  0.2285  0.1688
12170TIP3    H157925   4.361   3.877   0.284 -0.2823 -0.4130  0.6516
12170TIP3    H257926   4.376   3.868   0.134  1.4885 -0.2691  0.8075
12171TIP3   OH257927   3.075   3.687   5.310  0.0544 -0.5947 -0.0094
12171TIP3    H157928   3.115   3.634   5.241  0.8474 -1.3910  1.0280
12171TIP3    H257929   3.017   3.627   5.356  1.5784 -0.8570  1.6996
12172TIP3   OH257930   2.388   1.638  16.413  0.5238  0.0250  0.1331
12172TIP3    H157931   2.326   1.576  16.451 -1.4493  0.0826 -2.6613
12172TIP3    H257932   2.473   1.595  16.419 -0.3024 -1.5734  1.0227
12173TIP3   OH257933   1.306   6.244  15.429 -0.5699 -0.2504 -0.2838
12173TIP3    H157934   1.369   6.241  15.356 -0.4850  0.7580 -0.2691
12173TIP3    H257935   1.269   6.333  15.425 -2.3846 -0.9666 -0.6132
12174TIP3   OH257936   5.156   3.135   0.915 -0.2268  0.5615  0.0146
12174TIP3    H157937   5.204   3.216   0.932 -0.2718  0.8953 -1.3705
12174TIP3    H257938   5.092   3.158   0.848 -0.5179 -0.5322 -0.1070
12175TIP3   OH257939   5.012   4.838   4.143  0.1821  0.2305 -0.0353
12175TIP3    H157940   4.971   4.854   4.058  1.8537 -0.8232 -1.0847
12175TIP3    H257941   5.043   4.924   4.171  1.3663  0.2951 -1.4493
12176TIP3   OH257942   0.274   6.776  13.924  0.3277  0.0741  0.3920
12176TIP3    H157943   0.206   6.807  13.984  1.2022 -0.8408  1.9308
12176TIP3    H257944   0.281   6.683  13.943  0.4272 -0.3014 -1.3834
12177TIP3   OH257945   1.356   4.370  11.314  0.0581 -0.6679 -0.2548
12177TIP3    H157946   1.288   4.310  11.282 -1.3689  0.7971 -0.0724
12177TIP3    H257947   1.401   4.401  11.235 -1.8945  1.1086 -0.7486
12178TIP3   OH257948   4.668   0.041  15.997  0.1392  0.8238  0.4712
12178TIP3    H157949   4.670   0.075  15.908  0.2537 -1.5320 -0.5007
12178TIP3    H257950   4.654   0.118  16.052  1.0434  2.4765 -1.4805
12179TIP3   OH257951   6.451   1.209  16.566  0.7530  0.3033 -0.6533
12179TIP3    H157952   6.361   1.243  16.570  0.6204 -0.1558  2.0757
12179TIP3    H257953   6.445   1.132  16.510 -0.8611 -0.4433  0.4542
12180TIP3   OH257954   1.529   1.623   2.025 -0.4022 -0.2367  0.6385
12180TIP3    H157955   1.605   1.678   2.003 -1.8914  1.4251 -0.6470
12180TIP3    H257956   1.567   1.537   2.044  1.6453 -0.2212 -2.5358
12181TIP3   OH257957   2.468   1.635  15.914 -0.0454  0.4607  0.1412
12181TIP3    H157958   2.504   1.552  15.945 -0.2560 -0.1763 -1.2700
12181TIP3    H257959   2.391   1.649  15.969 -0.6559 -0.8588 -0.3515
12182TIP3   OH257960   6.686   6.279   6.237 -0.0167  0.1378 -0.6937
12182TIP3    H157961   6.644   6.236   6.163  0.8226  0.7846 -1.5674
12182TIP3    H257962   6.777   6.293   6.210  0.3668  0.2133  0.5302
12183TIP3   OH257963   4.240   3.223  13.644 -0.1786 -0.6252  0.0294
12183TIP3    H157964   4.320   3.205  13.693 -1.0174 -1.3334  1.1932
12183TIP3    H257965   4.237   3.154  13.578 -0.0323 -0.8291  0.2359
12184TIP3   OH257966   0.660   0.063   3.267 -0.2779 -0.4701  0.0394
12184TIP3    H157967   0.708   0.069   3.349 -0.7008 -0.9992  0.3337
12184TIP3    H257968   0.726   0.039   3.202  0.0083 -0.3239  0.2762
12185TIP3   OH257969   0.601   0.795   3.334  0.0256  0.1676 -0.4362
12185TIP3    H157970   0.529   0.753   3.286  0.6148 -1.7382  0.2795
12185TIP3    H257971   0.679   0.747   3.307  0.8901  1.4696 -0.3235
12186TIP3   OH257972   2.867   2.000   1.014  0.5655 -0.0092  0.2689
12186TIP3    H157973   2.866   1.971   1.104  0.2776 -0.6290  0.0702
12186TIP3    H257974   2.790   2.057   1.007  1.0703  0.7285  0.6286
12187TIP3   OH257975   2.235   1.353  16.831 -0.3246 -0.3016  0.2621
12187TIP3    H157976   2.291   1.278  16.852 -0.0636 -0.3272 -0.4909
12187TIP3    H257977   2.154   1.336  16.878 -0.9248 -1.9462 -1.2377
12188TIP3   OH257978   5.877   4.684   6.233  0.4648 -0.1261  0.3329
12188TIP3    H157979   5.971   4.696   6.223  0.6177 -1.5287  0.0093
12188TIP3    H257980   5.840   4.716   6.151  0.7125 -0.2736  0.1640
12189TIP3   OH257981   0.337   2.558  14.951 -0.2653 -0.3528  0.1644
12189TIP3    H157982   0.332   2.555  14.856 -0.4234 -0.5894  0.1801
12189TIP3    H257983   0.427   2.531  14.971 -0.2681 -0.4182  0.0887
12190TIP3   OH257984   3.807   1.206  16.960 -0.2976 -0.3915  0.4036
12190TIP3    H157985   3.850   1.122  16.946 -0.6196 -0.7130  1.2585
12190TIP3    H257986   3.879   1.269  16.971  0.0105 -1.0247  2.4547
12191TIP3   OH257987   1.688   3.843   2.598 -0.1589  0.4251 -0.1027
12191TIP3    H157988   1.666   3.910   2.663  1.8835 -0.4934  1.6419
12191TIP3    H257989   1.732   3.891   2.528  0.9027  1.0044  0.9278
12192TIP3   OH257990   6.189   5.639   5.422 -0.2073 -0.0382  0.1336
12192TIP3    H157991   6.137   5.718   5.434 -1.6600 -0.9079 -0.2027
12192TIP3    H257992   6.240   5.631   5.502 -1.3666  0.2818  0.9258
12193TIP3   OH257993   4.993   6.672   5.792 -0.3212  0.0176 -0.2048
12193TIP3    H157994   4.968   6.722   5.870 -0.0363 -0.6531  0.3211
12193TIP3    H257995   4.987   6.580   5.819 -1.3340 -0.2668 -1.3070
12194TIP3   OH257996   2.502   4.292  14.032 -0.7014 -0.6846 -0.2348
12194TIP3    H157997   2.565   4.283  13.961  2.5448  0.1682  2.2887
12194TIP3    H257998   2.487   4.386  14.040 -2.8796 -0.8916 -1.1464
12195TIP3   OH257999   0.899   6.396   1.487 -0.1332 -0.0799 -0.2411
12195TIP3    H158000   0.919   6.359   1.401 -3.0746 -0.8230 -0.7290
12195TIP3    H258001   0.803   6.398   1.490 -0.1123  0.8500  2.6524
12196TIP3   OH258002   3.406   4.556   1.544  0.2334 -0.0759  0.2829
12196TIP3    H158003   3.368   4.581   1.628  0.4788 -0.1357  0.4139
12196TIP3    H258004   3.331   4.545   1.485  0.0208 -0.5566  0.6366
12197TIP3   OH258005   6.063   1.890  11.784  0.5727 -0.0937  0.0004
12197TIP3    H158006   5.994   1.954  11.798  0.2377 -0.7040  1.2887
12197TIP3    H258007   6.023   1.806  11.805  1.8248 -0.4140  1.2568
12198TIP3   OH258008   2.556   4.335  14.323  0.1048  0.7560 -0.0926
12198TIP3    H158009   2.634   4.298  14.280  0.4436  0.7257  0.5371
12198TIP3    H258010   2.491   4.340  14.253  0.2917 -0.3366 -0.3707
12199TIP3   OH258011   2.117   5.991  13.207 -0.0525  0.1898  0.1636
12199TIP3    H158012   2.077   6.002  13.121  0.7633  2.3423  0.0111
12199TIP3    H258013   2.158   5.904  13.204 -2.6606 -1.1431 -0.4495
12200TIP3   OH258014   6.211   6.440   4.639 -0.2935 -0.3222  0.0705
12200TIP3    H158015   6.162   6.378   4.585  0.1690 -0.7062  0.0795
12200TIP3    H258016   6.150   6.466   4.708 -0.4926 -0.7820  0.0722
12201TIP3   OH258017   3.073   3.119  12.698  0.3608  0.2568  0.3035
12201TIP3    H158018   3.073   3.033  12.657 -1.4987  0.6536 -0.6899
12201TIP3    H258019   2.980   3.137  12.715  0.7290  1.9374  0.7472
12202TIP3   OH258020   2.897   4.071   3.845 -0.5209 -0.5848 -0.0293
12202TIP3    H158021   2.930   4.161   3.853 -1.5576 -0.2527  0.7553
12202TIP3    H258022   2.854   4.069   3.759  0.1302 -0.5474 -0.3573
12203TIP3   OH258023   3.660   0.889  12.831  0.1783 -1.0022 -0.1957
12203TIP3    H158024   3.580   0.839  12.816 -0.5470 -1.0163  2.9950
12203TIP3    H258025   3.679   0.877  12.924  1.4068  2.5688  0.1720
12204TIP3   OH258026   4.127   2.243  11.330  0.7544 -0.1271  0.3765
12204TIP3    H158027   4.097   2.238  11.421  2.3997 -0.3909  0.9426
12204TIP3    H258028   4.211   2.195  11.330  3.0028  3.4321 -0.3040
12205TIP3   OH258029   2.125   4.311  14.880  0.1790  0.2731 -0.3251
12205TIP3    H158030   2.075   4.308  14.962 -0.5918 -0.6588 -0.8082
12205TIP3    H258031   2.180   4.388  14.888 -1.4092  1.4052  0.2134
12206TIP3   OH258032   5.341   1.788  12.166 -0.2918  0.1713 -0.0511
12206TIP3    H158033   5.376   1.773  12.254 -1.3519  1.9108  0.7233
12206TIP3    H258034   5.379   1.718  12.112 -0.7336 -1.8204  2.0702
12207TIP3   OH258035   4.727   3.937  13.237 -0.0695 -0.2963  0.0656
12207TIP3    H158036   4.704   3.910  13.148  1.8612 -2.8157  0.2040
12207TIP3    H258037   4.816   3.971  13.230  0.2115 -0.7790  1.0495
12208TIP3   OH258038   1.884   2.046  14.292 -0.0320 -0.4656  0.1149
12208TIP3    H158039   1.907   1.953  14.288 -0.0493 -0.4330 -0.8159
12208TIP3    H258040   1.840   2.064  14.210  1.1614  0.6778 -0.3191
12209TIP3   OH258041   0.199   0.230   1.843 -0.2204 -0.0972 -0.1744
12209TIP3    H158042   0.204   0.265   1.754 -1.1559  1.2826  0.2966
12209TIP3    H258043   0.112   0.253   1.874 -1.2525 -3.5186 -0.0601
12210TIP3   OH258044   2.225   4.259   4.272  0.5573 -0.1748  0.1384
12210TIP3    H158045   2.293   4.244   4.206 -0.2930  0.3777 -0.9131
12210TIP3    H258046   2.272   4.292   4.348  1.3543  1.8456 -1.1315
12211TIP3   OH258047   5.232   6.320   2.098 -0.0769 -0.0852  0.1618
12211TIP3    H158048   5.196   6.251   2.155 -2.1395  1.5425  0.9164
12211TIP3    H258049   5.202   6.297   2.011 -1.7306  0.4052  0.5682
12212TIP3   OH258050   3.680   5.383   6.361  0.3085  0.1955 -0.1218
12212TIP3    H158051   3.770   5.384   6.394  0.4862 -2.0957 -0.3301
12212TIP3    H258052   3.689   5.370   6.267 -0.2304  0.5962 -0.2303
12213TIP3   OH258053   0.549   0.015  12.444 -0.4311 -0.4263 -0.2850
12213TIP3    H158054   0.488  -0.055  12.420 -0.3008 -0.4762 -0.4697
12213TIP3    H258055   0.493   0.081  12.487 -0.7787 -0.0757 -1.2337
12214TIP3   OH258056   5.292   1.349  12.467 -0.0612  0.4485 -0.5121
12214TIP3    H158057   5.305   1.386  12.379 -3.8684  0.0291 -1.3980
12214TIP3    H258058   5.280   1.426  12.523  1.0916  0.6797 -0.5489
12215TIP3   OH258059   6.443   6.657   2.469 -0.0536  0.0331  0.1749
12215TIP3    H158060   6.431   6.572   2.512 -0.5065  0.8985  1.8946
12215TIP3    H258061   6.535   6.680   2.486 -0.4348  0.7393  1.5125
12216TIP3   OH258062   6.040   3.372  16.817  0.3064  0.5225 -0.0557
12216TIP3    H158063   6.051   3.410  16.904  0.5522 -1.8060  0.9866
12216TIP3    H258064   6.128   3.356  16.785  0.3306 -3.0963  1.4125
12217TIP3   OH258065   2.652   2.183  14.680  0.2734 -0.6267 -0.0658
12217TIP3    H158066   2.689   2.112  14.734  2.2203  0.5339  0.2301
12217TIP3    H258067   2.635   2.253  14.743  0.7233  0.0433 -0.6851
12218TIP3   OH258068   5.763   5.231   0.490 -0.0309 -0.1659 -0.1699
12218TIP3    H158069   5.829   5.293   0.522 -0.9917  1.2564 -0.8515
12218TIP3    H258070   5.791   5.210   0.401 -0.5583  0.5379 -0.5048
12219TIP3   OH258071   6.323   3.854   1.548  0.1449  0.3584  0.0176
12219TIP3    H158072   6.235   3.831   1.580  1.3927 -1.1640  2.7350
12219TIP3    H258073   6.315   3.945   1.522 -2.3565  0.1367 -0.2857
12220TIP3   OH258074   0.257   3.491   3.200 -0.0156  0.2089  0.1578
12220TIP3    H158075   0.208   3.471   3.279  0.9870 -1.5522  0.3809
12220TIP3    H258076   0.322   3.422   3.194  0.8095  1.0703 -1.4864
12221TIP3   OH258077   0.925   5.392   2.463  0.4510  0.0145  0.4596
12221TIP3    H158078   0.893   5.346   2.540  0.9173  0.4833  0.9452
12221TIP3    H258079   0.852   5.449   2.437 -0.2222 -1.1557 -0.3008
12222TIP3   OH258080   3.925   4.926  16.685  0.2330 -1.0216  0.2391
12222TIP3    H158081   3.860   4.992  16.710  1.8681  0.3073  1.2044
12222TIP3    H258082   3.961   4.958  16.602  0.3688 -1.1967  0.2287
12223TIP3   OH258083   6.510   3.725  10.638  0.1797 -0.4050  0.1063
12223TIP3    H158084   6.590   3.744  10.590 -0.1177 -1.7613 -0.9973
12223TIP3    H258085   6.503   3.629  10.638 -0.9196 -0.3618  1.0648
12224TIP3   OH258086   5.166   3.739   3.833 -1.2011 -0.0456 -0.3328
12224TIP3    H158087   5.220   3.792   3.774  1.5762 -2.7274 -0.4721
12224TIP3    H258088   5.091   3.794   3.853 -0.6391  2.2538 -3.7292
12225TIP3   OH258089   1.338   5.747   0.928  0.5973  0.0141 -0.5304
12225TIP3    H158090   1.346   5.841   0.913  0.2174  0.3771  1.2761
12225TIP3    H258091   1.253   5.724   0.890 -0.1032  0.7728  0.5133
12226TIP3   OH258092   1.677   1.493  13.452  0.1294 -0.2330 -0.3269
12226TIP3    H158093   1.639   1.417  13.407 -1.1406  0.2993 -0.2119
12226TIP3    H258094   1.719   1.543  13.382 -1.1484  0.1830 -0.8336
12227TIP3   OH258095   5.775   4.833  13.379  0.2385 -0.1352 -1.3057
12227TIP3    H158096   5.684   4.823  13.349 -0.4796 -1.0795  0.9542
12227TIP3    H258097   5.825   4.770  13.328 -0.7507 -0.9808 -1.2625
12228TIP3   OH258098   6.463   1.703   1.442 -0.1760 -0.0249  0.4009
12228TIP3    H158099   6.459   1.791   1.479  0.0268  0.5923 -0.9890
12228TIP3    H258100   6.382   1.661   1.473  0.2100  0.2837  1.9106
12229TIP3   OH258101   5.082   6.288  16.924 -0.0187 -0.5896 -0.2526
12229TIP3    H158102   5.156   6.226  16.929  0.0936 -0.3501  2.1782
12229TIP3    H258103   5.034   6.260  16.846  2.3345 -1.0498 -1.6735
12230TIP3   OH258104   1.713   1.774   0.351  0.0328  0.0586  0.0106
12230TIP3    H158105   1.661   1.702   0.384 -1.0160  1.1844  0.8933
12230TIP3    H258106   1.741   1.745   0.264  0.7062 -1.9049  0.8192
12231TIP3   OH258107   5.637   5.360  10.745 -0.5756  0.1271 -0.7032
12231TIP3    H158108   5.573   5.414  10.698 -2.5192 -1.2809  0.1793
12231TIP3    H258109   5.624   5.271  10.710  0.7430 -0.2416 -0.3096
12232TIP3   OH258110   2.823   6.656   0.735 -0.1055 -0.7617 -0.1753
12232TIP3    H158111   2.892   6.605   0.778  1.5336  1.1782 -0.3544
12232TIP3    H258112   2.765   6.681   0.806  1.2089  0.3009  0.5873
12233TIP3   OH258113   5.663   0.271   4.802 -0.1094 -0.3088 -0.6232
12233TIP3    H158114   5.658   0.307   4.714  0.5536  2.0903  0.2506
12233TIP3    H258115   5.618   0.335   4.858  1.7752 -0.4184  1.1348
12234TIP3   OH258116   2.923   3.316  13.117  0.4166 -0.4168 -0.0527
12234TIP3    H158117   2.876   3.325  13.200 -0.0759 -0.1038 -0.3609
12234TIP3    H258118   2.938   3.222  13.108 -1.9057 -0.7822 -0.8938
12235TIP3   OH258119   4.837   1.108  15.127  0.2608 -0.5749  0.6500
12235TIP3    H158120   4.859   1.113  15.220  1.4790 -2.0915  0.4747
12235TIP3    H258121   4.778   1.033  15.120  0.2926 -0.5613  0.1878
12236TIP3   OH258122   5.780   1.431   3.584 -0.0198  0.0211  0.4903
12236TIP3    H158123   5.841   1.492   3.627  0.4633  0.3318 -0.5936
12236TIP3    H258124   5.822   1.411   3.500 -1.9552  1.2129 -0.8553
12237TIP3   OH258125   1.183   4.903   3.263  0.1482  0.2385  0.6443
12237TIP3    H158126   1.160   4.947   3.345  0.0679  2.0638 -0.2967
12237TIP3    H258127   1.197   4.975   3.201  5.0578 -0.6915  0.2207
12238TIP3   OH258128   4.618   3.325  11.775 -0.6003 -0.0273 -1.0742
12238TIP3    H158129   4.566   3.246  11.760 -0.3440 -0.2391 -0.8537
12238TIP3    H258130   4.634   3.325  11.870  2.0192 -1.3796 -1.4264
12239TIP3   OH258131   4.286   5.964  13.367 -0.4504 -0.0956 -0.4875
12239TIP3    H158132   4.297   5.968  13.271 -0.9370  0.1985 -0.5351
12239TIP3    H258133   4.246   6.048  13.389  0.1831  0.0685  0.0473
12240TIP3   OH258134   6.632   4.576  12.674 -0.3427  0.4898  0.3700
12240TIP3    H158135   6.615   4.541  12.587  2.1310 -0.3772  0.1609
12240TIP3    H258136   6.566   4.644  12.687  0.4477  2.0658 -2.9805
12241TIP3   OH258137   3.968   1.108   3.704  0.4962 -0.0687  0.0838
12241TIP3    H158138   3.971   1.204   3.711 -0.0439  0.3927 -3.8704
12241TIP3    H258139   4.058   1.084   3.680  0.1563 -0.2649 -1.0338
12242TIP3   OH258140   1.203   3.453  13.980 -0.0514  0.4501  0.4218
12242TIP3    H158141   1.113   3.475  13.956  0.5542 -0.4909 -3.4338
12242TIP3    H258142   1.209   3.359  13.966  1.4158  0.4229  1.0965
12243TIP3   OH258143   1.143   1.088   0.670  0.1767 -0.0152 -0.0912
12243TIP3    H158144   1.191   1.151   0.617  0.9266  0.0480  0.6395
12243TIP3    H258145   1.053   1.092   0.637  0.1639  1.5810  0.0858
12244TIP3   OH258146   3.037   5.615   2.563  0.0639 -0.3749 -0.2672
12244TIP3    H158147   3.122   5.642   2.597  0.8369  0.6882 -2.8293
12244TIP3    H258148   3.057   5.550   2.496 -1.1497 -0.3134 -0.7123
12245TIP3   OH258149   0.408   2.390   4.053  0.6886  0.6769 -0.3916
12245TIP3    H158150   0.318   2.393   4.021  1.1121 -0.6621 -1.8368
12245TIP3    H258151   0.408   2.446   4.130 -0.8163  2.6931 -1.7496
12246TIP3   OH258152   2.716   3.815  11.308 -0.0287 -0.4499 -0.3178
12246TIP3    H158153   2.744   3.897  11.349  2.2509 -0.7064 -1.1721
12246TIP3    H258154   2.750   3.747  11.367 -2.4293 -0.8556  0.7092
12247TIP3   OH258155   5.685   3.195  11.527 -0.1045  0.1041 -0.0898
12247TIP3    H158156   5.736   3.216  11.605  0.9046  1.3803 -1.0480
12247TIP3    H258157   5.751   3.171  11.461 -1.0135 -2.5422 -0.1405
12248TIP3   OH258158   0.966   5.892   0.880  0.4777 -0.1281  0.4697
12248TIP3    H158159   0.939   5.929   0.965  0.6989 -0.2652  0.5994
12248TIP3    H258160   0.985   5.969   0.826  0.8688 -0.0481  0.7177
12249TIP3   OH258161   3.027   0.651   2.004 -0.3709 -0.1740  0.4182
12249TIP3    H158162   3.008   0.576   1.948 -2.2491  0.1586  0.5481
12249TIP3    H258163   2.955   0.654   2.066  1.6280 -0.4928  2.8991
12250TIP3   OH258164   4.637   0.466   5.297 -0.1188 -0.1493  0.0305
12250TIP3    H158165   4.627   0.450   5.203 -2.0648  1.2733 -0.0565
12250TIP3    H258166   4.605   0.555   5.310 -0.3759 -0.4972  2.1391
12251TIP3   OH258167   0.128   4.270  14.845  0.5047 -0.0705 -0.4740
12251TIP3    H158168   0.205   4.213  14.842  0.9659  0.5341 -0.3789
12251TIP3    H258169   0.107   4.287  14.754  0.2184 -0.5763 -0.5078
12252TIP3   OH258170   1.864   1.910  14.804 -0.1102 -0.7861 -0.1368
12252TIP3    H158171   1.895   1.824  14.832  1.6417  0.2949  1.5305
12252TIP3    H258172   1.813   1.943  14.878 -0.4743 -0.2249 -0.6210
12253TIP3   OH258173   5.553   4.000  15.844 -0.4780  0.7198  0.2270
12253TIP3    H158174   5.624   4.062  15.861 -1.3865  1.6133  0.8556
12253TIP3    H258175   5.516   4.028  15.760 -1.5665  1.7055  1.0180
12254TIP3   OH258176   4.851   6.290  13.892  0.0008  0.2688 -0.9920
12254TIP3    H158177   4.854   6.246  13.806 -1.0040 -0.4702 -0.6693
12254TIP3    H258178   4.790   6.363  13.878 -0.9078 -0.4055 -0.6894
12255TIP3   OH258179   0.851   6.205  11.256  0.3090 -0.0764  0.3894
12255TIP3    H158180   0.785   6.274  11.250 -0.5114 -0.9495 -0.9665
12255TIP3    H258181   0.908   6.234  11.328 -1.2605  0.9183  1.2989
12256TIP3   OH258182   0.764   2.374  13.195  0.4377 -0.4211 -0.0500
12256TIP3    H158183   0.841   2.321  13.176  0.4863 -0.3570 -0.0343
12256TIP3    H258184   0.702   2.353  13.124  1.4756  1.5008 -1.6342
12257TIP3   OH258185   0.361   6.462  12.102 -0.3761  0.3845  0.2355
12257TIP3    H158186   0.438   6.518  12.092 -1.9333  2.3637 -1.5643
12257TIP3    H258187   0.298   6.496  12.039 -3.5098  0.1471  2.9358
12258TIP3   OH258188   3.663   4.638  11.890  0.2788  0.4980  0.0367
12258TIP3    H158189   3.754   4.666  11.887  0.6319 -0.3063  1.8744
12258TIP3    H258190   3.648   4.612  11.981 -2.0198  1.3380 -0.0221
12259TIP3   OH258191   3.092   6.453  16.954  0.3191  0.2381  0.1385
12259TIP3    H158192   3.050   6.387  16.900  0.0341 -0.2215  0.9089
12259TIP3    H258193   3.185   6.430  16.952  0.3711  0.4874 -0.5057
12260TIP3   OH258194   4.375   1.327  11.469 -0.0262 -0.3676 -0.2304
12260TIP3    H158195   4.313   1.315  11.540  0.4665 -0.2122  0.2298
12260TIP3    H258196   4.332   1.288  11.392 -0.2371 -1.2240  0.3115
12261TIP3   OH258197   5.376   1.061   2.179 -0.0092 -0.2218  0.7446
12261TIP3    H158198   5.401   0.997   2.112 -0.0563 -0.3000  0.8011
12261TIP3    H258199   5.455   1.072   2.232  0.1590  0.1650  0.4191
12262TIP3   OH258200   0.755   4.753   2.422 -0.1924 -0.1729  0.1934
12262TIP3    H158201   0.830   4.702   2.452 -0.0841 -0.3528 -0.3759
12262TIP3    H258202   0.678   4.700   2.444 -0.0916 -0.4848 -0.2014
12263TIP3   OH258203   5.698   4.957   1.952  0.4813 -0.0486 -0.6218
12263TIP3    H158204   5.616   5.006   1.961  2.8194  4.1203  1.4657
12263TIP3    H258205   5.731   4.981   1.866  0.1354 -0.7165 -0.9497
12264TIP3   OH258206   0.206   0.329  13.678  0.4318 -0.0025  0.0096
12264TIP3    H158207   0.229   0.312  13.770  0.1529  0.3988  0.1573
12264TIP3    H258208   0.114   0.357  13.682 -0.0824 -1.4894 -0.5468
12265TIP3   OH258209   1.595   2.955   0.770  0.0422  0.6296  0.5893
12265TIP3    H158210   1.506   2.967   0.737  0.2964  0.9825  0.0078
12265TIP3    H258211   1.592   2.874   0.820 -0.5932  0.6131  0.5297
12266TIP3   OH258212   5.598   2.944   4.434  0.7373 -0.0179  0.0696
12266TIP3    H158213   5.550   3.026   4.438 -0.7757 -0.8934  1.2074
12266TIP3    H258214   5.583   2.903   4.519  0.0629 -2.1930 -1.0026
12267TIP3   OH258215   0.943   3.978   2.449 -0.6083 -0.0700 -0.2902
12267TIP3    H158216   0.932   4.071   2.431  0.5901  0.1669  0.1558
12267TIP3    H258217   1.011   3.949   2.388 -2.7107 -1.2741 -2.2618
12268TIP3   OH258218   2.356   5.040  14.426 -0.3401  0.6153 -0.6492
12268TIP3    H158219   2.400   4.964  14.389 -1.5223 -0.2676 -0.3010
12268TIP3    H258220   2.263   5.015  14.428 -0.8664  2.3610 -1.2656
12269TIP3   OH258221   2.833   5.498  11.623  0.3279 -0.1618  0.2295
12269TIP3    H158222   2.924   5.525  11.638  0.9205 -3.1439  3.1694
12269TIP3    H258223   2.839   5.418  11.571 -0.8320  0.6223 -1.2015
12270TIP3   OH258224   1.510   1.577  16.734 -0.0129 -0.3964  0.6019
12270TIP3    H158225   1.531   1.512  16.668 -0.4133  1.0045 -0.9768
12270TIP3    H258226   1.467   1.528  16.804 -0.2097 -1.8227 -0.4727
12271TIP3   OH258227   4.232   5.299  15.301  0.1551 -0.1726  0.4561
12271TIP3    H158228   4.227   5.392  15.282 -1.3503 -0.5053 -1.0775
12271TIP3    H258229   4.316   5.287  15.345 -0.0947  2.0438  1.6237
12272TIP3   OH258230   1.279   0.238  13.245 -0.1473 -0.2327  0.1163
12272TIP3    H158231   1.213   0.188  13.293  0.2951 -1.0551 -0.1122
12272TIP3    H258232   1.314   0.176  13.180 -0.8272  0.8852 -1.3816
12273TIP3   OH258233   2.138   0.170   0.964 -0.0304 -0.0927 -0.3449
12273TIP3    H158234   2.180   0.252   0.988  0.3415 -0.7451  1.3504
12273TIP3    H258235   2.046   0.182   0.989  0.2420 -0.5596  0.9752
12274TIP3   OH258236   1.379   0.961   1.538  0.4494  0.2517 -0.2839
12274TIP3    H158237   1.362   0.877   1.580 -0.4691  0.9313  0.7997
12274TIP3    H258238   1.293   1.005   1.539  0.9302  1.2174 -0.7381
12275TIP3   OH258239   1.745   5.511  15.621 -0.1556 -0.1848  0.3584
12275TIP3    H158240   1.651   5.520  15.603  0.0480  1.0661 -0.1830
12275TIP3    H258241   1.786   5.505  15.534  0.2623 -0.9068  0.5953
12276TIP3   OH258242   4.483   0.966   4.962  0.7609  0.4441 -0.2317
12276TIP3    H158243   4.510   0.925   5.045 -1.2759  1.2933  0.9174
12276TIP3    H258244   4.400   0.924   4.941  0.3928  1.4929 -0.9082
12277TIP3   OH258245   3.843   0.952   1.099 -1.1490  0.7236 -0.6589
12277TIP3    H158246   3.819   0.913   1.183  0.6810  1.1204  0.0912
12277TIP3    H258247   3.821   0.884   1.035 -0.9663 -0.2928  0.3189
12278TIP3   OH258248   2.048   1.767  12.462  0.0122  0.1723  0.2544
12278TIP3    H158249   2.016   1.719  12.385  0.6034 -0.3515  0.3270
12278TIP3    H258250   1.976   1.827  12.484  0.3417  1.3215 -1.5263
12279TIP3   OH258251   3.755   0.689   0.334  1.2182  0.0840 -0.1221
12279TIP3    H158252   3.771   0.723   0.246 -2.7405 -0.2503 -1.1697
12279TIP3    H258253   3.743   0.595   0.322  1.6363 -0.1362  1.0024
12280TIP3   OH258254   1.074   1.424  17.025 -0.0062  0.0074  0.2647
12280TIP3    H158255   1.053   1.491  16.960  3.7580 -0.8650 -2.2506
12280TIP3    H258256   1.042   1.343  16.986  0.9957 -0.3433  0.1285
12281TIP3   OH258257   3.136   3.060   2.482 -0.2695 -0.4658  0.2424
12281TIP3    H158258   3.158   3.024   2.396 -0.3708 -1.7166  0.7128
12281TIP3    H258259   3.144   2.985   2.542  0.4187  0.5110  1.4300
12282TIP3   OH258260   4.786   1.693   1.046 -0.6462 -0.0031 -0.1578
12282TIP3    H158261   4.826   1.751   1.111  0.0574 -1.1038  0.4168
12282TIP3    H258262   4.850   1.624   1.033 -1.3173 -0.4705 -1.1050
12283TIP3   OH258263   4.940   1.673  15.489  0.0281  0.1654 -0.6140
12283TIP3    H158264   4.891   1.706  15.565 -0.6215 -0.4052 -0.7755
12283TIP3    H258265   4.897   1.714  15.414 -2.3768 -2.7797 -1.0269
12284TIP3   OH258266   0.190   4.591   2.458  0.0957 -0.1859 -0.2470
12284TIP3    H158267   0.170   4.497   2.456  0.3885 -0.3795  2.5384
12284TIP3    H258268   0.115   4.631   2.500 -0.7368  1.1386 -2.8061
12285TIP3   OH258269   2.564   2.041   5.868 -0.2903  0.0328 -0.6838
12285TIP3    H158270   2.628   1.970   5.876  0.0400  0.4568  0.8045
12285TIP3    H258271   2.551   2.051   5.774 -0.0227 -1.7052 -0.9387
12286TIP3   OH258272   2.648   5.081   4.886  0.1945 -0.1662 -0.7381
12286TIP3    H158273   2.595   5.001   4.876  0.6174 -0.3280 -1.7441
12286TIP3    H258274   2.698   5.065   4.966 -0.4864 -0.4621 -0.3561
12287TIP3   OH258275   2.190   4.160   1.002  0.3736 -0.1445 -0.2058
12287TIP3    H158276   2.185   4.223   1.073  1.0907  2.7452 -2.5228
12287TIP3    H258277   2.278   4.122   1.009  1.0688  1.3502 -0.4374
12288TIP3   OH258278   5.843   0.167  12.306  0.6006 -0.0557 -0.3776
12288TIP3    H158279   5.817   0.198  12.219  0.0819 -0.5485 -0.4108
12288TIP3    H258280   5.877   0.079  12.291  0.7798 -0.0317 -0.1176
12289TIP3   OH258281   3.380   1.706   1.854  0.5486  0.5884  0.2428
12289TIP3    H158282   3.295   1.718   1.897  0.0893  0.9314 -0.7426
12289TIP3    H258283   3.427   1.644   1.911 -0.8133 -0.5496  0.1815
12290TIP3   OH258284   2.757   4.258  15.960 -0.0094  0.7548  0.3453
12290TIP3    H158285   2.666   4.286  15.975  0.1165  1.5539 -0.3064
12290TIP3    H258286   2.788   4.231  16.046 -1.0114 -0.0031  0.4977
12291TIP3   OH258287   0.317   0.062   2.437 -0.2727  0.4853  0.1863
12291TIP3    H158288   0.252   0.038   2.372  2.7529 -1.1417 -2.5553
12291TIP3    H258289   0.310   0.158   2.444 -4.3430  0.2817  1.9195
12292TIP3   OH258290   0.701   4.374  12.445  0.2613  0.5795  0.2997
12292TIP3    H158291   0.722   4.463  12.417  0.9382  0.3947  0.1888
12292TIP3    H258292   0.664   4.333  12.368  0.1508  0.6971  0.2893
12293TIP3   OH258293   0.055   4.800   4.655 -0.1969  0.6117 -0.5028
12293TIP3    H158294  -0.018   4.802   4.717 -0.9198  0.6279 -1.3386
12293TIP3    H258295   0.132   4.785   4.710 -1.0517 -1.5938  0.1888
12294TIP3   OH258296   6.790   1.663  11.859  0.3190  0.2636 -0.0591
12294TIP3    H158297   6.858   1.730  11.860 -0.1013  0.6889  0.1632
12294TIP3    H258298   6.838   1.581  11.852  0.7927  0.6405 -1.4819
12295TIP3   OH258299   2.364   0.605   3.663 -0.0231 -0.1208  0.5782
12295TIP3    H158300   2.287   0.659   3.682 -1.3601 -1.8769  0.4606
12295TIP3    H258301   2.416   0.610   3.743 -0.8646  0.1447  1.1335
12296TIP3   OH258302   6.468   2.572  15.461 -0.1619  0.6522 -0.1667
12296TIP3    H158303   6.512   2.647  15.421  1.1804  1.0018  1.8159
12296TIP3    H258304   6.421   2.609  15.536  0.3173 -0.4271  0.6946
12297TIP3   OH258305   5.402   0.545  13.447 -0.1216 -0.4257  0.0138
12297TIP3    H158306   5.340   0.606  13.407 -1.1218 -0.2533  1.7236
12297TIP3    H258307   5.487   0.571  13.412 -0.8044  0.3676 -1.1529
12298TIP3   OH258308   3.456   2.955  17.051  0.3485  0.4414 -0.7233
12298TIP3    H158309   3.547   2.943  17.022  0.5818  0.1940  0.0891
12298TIP3    H258310   3.436   2.876  17.101 -0.7765 -0.1207 -2.0109
12299TIP3   OH258311   2.877   6.655   0.072  0.3480 -0.4305 -0.4344
12299TIP3    H158312   2.864   6.592   0.001 -0.2651 -0.8092  0.0143
12299TIP3    H258313   2.802   6.715   0.065  0.5088 -0.2189 -0.3622
12300TIP3   OH258314   2.211   5.374   0.513  0.6656 -0.2312  0.1082
12300TIP3    H158315   2.265   5.301   0.543  1.5548 -0.0650 -1.0212
12300TIP3    H258316   2.255   5.452   0.549 -0.0204 -0.2029  0.9245
12301TIP3   OH258317   2.704   5.485  11.202  0.0359  0.4353  0.2353
12301TIP3    H158318   2.750   5.540  11.139  3.3984  0.0748  2.1284
12301TIP3    H258319   2.718   5.395  11.172  0.8245  0.3087  0.9490
12302TIP3   OH258320   2.940   3.849   0.174 -0.5498  0.2366 -0.6856
12302TIP3    H158321   2.950   3.758   0.145  1.1296  0.3246 -0.4879
12302TIP3    H258322   3.030   3.883   0.175 -0.9882  1.4239  0.7669
12303TIP3   OH258323   5.844   1.813   5.441 -0.0276 -0.1001 -0.1375
12303TIP3    H158324   5.897   1.740   5.474  0.3747 -0.0565 -0.6608
12303TIP3    H258325   5.909   1.873   5.404 -0.3414  0.6149  0.4702
12304TIP3   OH258326   2.907   2.133   4.608  0.3106  0.6762 -0.3740
12304TIP3    H158327   2.819   2.118   4.642 -0.4000  1.4062 -1.8081
12304TIP3    H258328   2.894   2.173   4.522  2.0574  2.0591 -0.0670
12305TIP3   OH258329   1.779   1.431   5.737 -0.0474  0.4238 -0.1779
12305TIP3    H158330   1.804   1.340   5.754 -2.2380 -0.3074 -0.4704
12305TIP3    H258331   1.805   1.447   5.647  2.3132  0.8739  0.5143
12306TIP3   OH258332   6.585   0.046  15.748  0.4473 -0.2037 -0.2280
12306TIP3    H158333   6.568   0.085  15.834  0.5901  1.2986 -0.8474
12306TIP3    H258334   6.501   0.053  15.702  0.4010 -0.9075 -0.2654
12307TIP3   OH258335   4.832   5.111   1.939 -0.0113 -0.3521  0.0328
12307TIP3    H158336   4.895   5.149   1.878 -0.4562 -0.7201 -0.6577
12307TIP3    H258337   4.859   5.145   2.025 -1.6421  3.3096 -0.7318
12308TIP3   OH258338   0.513   0.995  15.743 -0.1020 -0.0388  0.0426
12308TIP3    H158339   0.573   0.934  15.700  1.5246  1.0747  0.6491
12308TIP3    H258340   0.436   0.942  15.764  0.5815 -1.4731 -0.9155
12309TIP3   OH258341   1.195   1.480  12.314 -0.0730  0.0476  0.1580
12309TIP3    H158342   1.102   1.489  12.333 -0.3305  0.9169 -1.3277
12309TIP3    H258343   1.202   1.498  12.220  1.5748 -0.1372  0.2137
12310TIP3   OH258344   4.157   4.015  17.158  0.1885  0.0807  0.1818
12310TIP3    H158345   4.252   4.008  17.169  0.7632  1.4751 -2.8531
12310TIP3    H258346   4.134   4.098  17.200  0.7261  0.7473 -0.7815
12311TIP3   OH258347   4.093   3.365   3.091  0.0475 -0.3528  0.5079
12311TIP3    H158348   4.134   3.350   3.006  0.5397 -2.5230  1.0542
12311TIP3    H258349   3.999   3.366   3.073  0.1574 -0.6620 -0.0895
12312TIP3   OH258350   0.139   1.600   4.396 -0.6547 -0.2979 -0.1658
12312TIP3    H158351   0.060   1.649   4.419 -1.5548 -2.1245  0.8639
12312TIP3    H258352   0.123   1.511   4.429  1.8111 -0.7478  0.0383
12313TIP3   OH258353   5.143   1.881   3.401 -0.2869 -0.3929 -0.6855
12313TIP3    H158354   5.210   1.814   3.398  0.6935  0.5778 -1.3996
12313TIP3    H258355   5.066   1.838   3.438  1.0324 -1.2386  1.1842
12314TIP3   OH258356   0.403   2.659   3.817  0.6279 -0.1234 -0.0863
12314TIP3    H158357   0.333   2.722   3.800  0.7061  0.2087  0.7833
12314TIP3    H258358   0.397   2.597   3.744 -0.0652  0.3432 -0.4415
12315TIP3   OH258359   1.002   4.751  14.131 -0.0375 -0.2389  0.4299
12315TIP3    H158360   1.060   4.679  14.107 -1.8449 -1.7507  0.3785
12315TIP3    H258361   0.977   4.792  14.048 -0.0524 -0.4003  0.3565
12316TIP3   OH258362   2.390   1.877   4.249 -0.3285 -0.0552 -0.6406
12316TIP3    H158363   2.343   1.794   4.243 -0.6234  0.0678 -0.1058
12316TIP3    H258364   2.324   1.944   4.230 -0.7050  0.1949  1.3109
12317TIP3   OH258365   5.940   0.783  16.955  0.2254 -0.2346 -0.2056
12317TIP3    H158366   6.017   0.815  17.002  1.2145 -1.6497 -0.8265
12317TIP3    H258367   5.894   0.729  17.019  0.9233 -1.1627 -0.4707
12318TIP3   OH258368   4.470   0.274  16.300 -0.2850 -0.2204 -0.5493
12318TIP3    H158369   4.520   0.295  16.221 -1.2424 -0.4113 -1.2347
12318TIP3    H258370   4.509   0.328  16.368 -1.1676  2.0656 -1.7487
12319TIP3   OH258371   1.086   3.070  16.235  0.2609  0.4195  0.0397
12319TIP3    H158372   1.116   3.154  16.202  0.4278 -0.0052 -0.9296
12319TIP3    H258373   1.162   3.011  16.225  0.1932  0.1783  0.8324
12320TIP3   OH258374   5.787   0.863   4.433 -0.3108 -0.4941  0.4670
12320TIP3    H158375   5.811   0.827   4.518  1.8634 -0.1448  0.0804
12320TIP3    H258376   5.696   0.889   4.442 -0.4716 -1.5220  2.3056
12321TIP3   OH258377   0.331   1.124   2.905  0.1618  0.1267  0.0842
12321TIP3    H158378   0.283   1.140   2.986  1.3855 -0.3548  0.9328
12321TIP3    H258379   0.416   1.092   2.933  0.8139  0.4661 -1.3863
12322TIP3   OH258380   0.063   3.694   4.164  0.1482 -0.0785 -0.1831
12322TIP3    H158381   0.041   3.784   4.143  0.0928 -0.4070 -1.6857
12322TIP3    H258382  -0.015   3.659   4.208  0.4161  0.7594  1.0057
12323TIP3   OH258383   5.106   4.307  16.867 -0.2014 -0.1021 -0.1910
12323TIP3    H158384   5.105   4.305  16.963 -0.1078 -0.1000 -0.1893
12323TIP3    H258385   5.164   4.380  16.845 -0.6378  0.2283 -0.2475
12324TIP3   OH258386   0.196   3.551   2.906  0.2996 -0.4422  0.1926
12324TIP3    H158387   0.290   3.534   2.898 -0.0117 -2.5304  0.4321
12324TIP3    H258388   0.176   3.526   2.996 -0.4765  0.1492  0.1902
12325TIP3   OH258389   0.961   4.201   2.009  0.6205 -0.0022 -0.0524
12325TIP3    H158390   0.952   4.233   1.920 -0.1420 -0.7598 -0.2592
12325TIP3    H258391   1.022   4.128   2.003  1.9790  1.0416  0.3465
12326TIP3   OH258392   2.269   6.076   1.382 -0.5342  0.1905  0.3591
12326TIP3    H158393   2.186   6.035   1.356 -2.8675  3.5903  1.6882
12326TIP3    H258394   2.245   6.166   1.404  3.5776  1.3477  0.9116
12327TIP3   OH258395   0.957   0.003   1.910 -0.8027 -0.8340 -0.3185
12327TIP3    H158396   0.932   0.093   1.933 -0.7527 -1.0406  0.5875
12327TIP3    H258397   1.013   0.013   1.833 -0.8643 -0.0925 -0.2799
12328TIP3   OH258398   5.843   4.866   4.255  0.3608  0.5115 -0.7669
12328TIP3    H158399   5.845   4.938   4.192  0.7758 -1.1825 -2.7772
12328TIP3    H258400   5.759   4.875   4.299  1.0377  3.1035  0.1648
12329TIP3   OH258401   3.733   3.103  12.347  0.1115  0.1419  0.4701
12329TIP3    H158402   3.721   3.145  12.261 -2.5102  0.7342  1.0424
12329TIP3    H258403   3.753   3.011  12.326 -0.5193  0.2697 -0.7959
12330TIP3   OH258404   1.772   4.634   4.494  0.3856 -0.4958  0.2039
12330TIP3    H158405   1.825   4.713   4.484  1.6742 -1.4083 -0.3633
12330TIP3    H258406   1.697   4.663   4.547  1.0789  0.9841  0.4384
12331TIP3   OH258407   5.680   2.865  12.181  0.1002  0.0317  0.5992
12331TIP3    H158408   5.590   2.831  12.177 -0.0171  0.2043  1.5696
12331TIP3    H258409   5.699   2.891  12.091 -1.1496  0.8036  0.5307
12332TIP3   OH258410   5.996   3.195   2.614 -0.2425  0.3783 -0.8135
12332TIP3    H158411   5.938   3.254   2.566 -0.9540  0.0281 -0.4049
12332TIP3    H258412   5.973   3.108   2.581 -1.2289  0.0546  0.6001
12333TIP3   OH258413   4.449   6.511   3.702 -0.4817  0.2722 -0.0737
12333TIP3    H158414   4.417   6.438   3.755  0.5053 -0.7714 -0.8616
12333TIP3    H258415   4.502   6.562   3.763  1.0562 -1.1928 -0.0849
12334TIP3   OH258416   2.075   6.265  13.678 -0.1146  0.3595  0.1301
12334TIP3    H158417   2.168   6.272  13.702 -0.3279  0.8609  0.8558
12334TIP3    H258418   2.074   6.209  13.601  0.8118  0.4855  0.0151
12335TIP3   OH258419   5.631   2.705   0.682  0.9321  0.3616  0.4118
12335TIP3    H158420   5.676   2.628   0.647  0.0113 -0.5140  1.1021
12335TIP3    H258421   5.540   2.677   0.694  0.9750  0.9307  2.5005
12336TIP3   OH258422   0.451   4.596  14.254 -0.8862  0.0994 -0.2442
12336TIP3    H158423   0.376   4.654  14.256 -1.4691 -0.6276 -0.3547
12336TIP3    H258424   0.454   4.556  14.341  0.0363  0.9241  0.1260
12337TIP3   OH258425   5.136   0.752   2.652 -0.1900 -0.3620  0.2811
12337TIP3    H158426   5.220   0.709   2.636  1.2517  1.6505  1.9585
12337TIP3    H258427   5.096   0.760   2.565  1.3409 -1.3349 -0.5564
12338TIP3   OH258428   2.447   3.375   1.097 -0.1124  0.1075 -0.0364
12338TIP3    H158429   2.476   3.456   1.055 -0.4567  1.5566  2.3377
12338TIP3    H258430   2.527   3.326   1.114  0.2060  0.4779 -0.4649
12339TIP3   OH258431   6.026   2.910   2.425  0.7930  0.7454  0.0992
12339TIP3    H158432   5.942   2.872   2.401 -0.1003  1.4871  1.8902
12339TIP3    H258433   6.080   2.836   2.453  0.7144  0.2882 -0.9204
12340TIP3   OH258434   1.825   5.264  12.631 -0.6759  0.1729 -0.0981
12340TIP3    H158435   1.872   5.348  12.636  1.8724 -1.2091  1.6115
12340TIP3    H258436   1.849   5.229  12.545 -1.3689  0.9511 -0.6243
12341TIP3   OH258437   6.685   3.370   2.358  0.2426 -0.0958  0.7459
12341TIP3    H158438   6.598   3.350   2.393  0.4209 -1.5031  0.4466
12341TIP3    H258439   6.670   3.390   2.266  0.1341  0.6322  0.9141
12342TIP3   OH258440   6.777   3.992   0.297  0.3958 -0.5827 -0.1601
12342TIP3    H158441   6.793   4.081   0.329 -0.3517 -0.3486 -0.4168
12342TIP3    H258442   6.683   3.979   0.308  0.4823 -1.2986 -0.2437
12343TIP3   OH258443   6.536   5.332  13.776  0.0268  0.0727 -0.3028
12343TIP3    H158444   6.521   5.277  13.699 -0.1480 -0.7994  0.3507
12343TIP3    H258445   6.450   5.370  13.796  0.1870  0.7696 -0.8737
12344TIP3   OH258446   1.054   2.573   6.124  0.5238 -0.4625  0.0511
12344TIP3    H158447   1.013   2.646   6.076 -1.1192 -1.5148 -0.2163
12344TIP3    H258448   0.984   2.539   6.179  1.4978 -1.3517  0.7640
12345TIP3   OH258449   4.034   6.152  17.093  0.1339 -0.6565 -0.0926
12345TIP3    H158450   4.077   6.231  17.061 -1.5837 -0.1889 -1.3919
12345TIP3    H258451   4.088   6.080  17.059 -0.0640 -0.0991 -1.6502
12346TIP3   OH258452   0.858   5.645   1.413 -0.4557  0.1657 -0.4226
12346TIP3    H158453   0.817   5.559   1.405 -1.2895  0.6188 -1.2018
12346TIP3    H258454   0.934   5.630   1.469  0.6555 -1.5332 -2.2290
12347TIP3   OH258455   5.325   6.043  13.344 -0.2022  0.0851  0.2545
12347TIP3    H158456   5.407   6.029  13.296 -0.3437  0.2798 -0.0400
12347TIP3    H258457   5.273   6.100  13.288 -1.1869 -1.2849 -0.2663
12348TIP3   OH258458   2.553   4.034  13.812 -0.4232 -0.0724  0.2357
12348TIP3    H158459   2.489   4.023  13.741 -1.0540  0.5703  0.6894
12348TIP3    H258460   2.574   4.128  13.811  0.3144 -0.2268  0.2727
12349TIP3   OH258461   5.203   3.536  12.667 -0.2380 -0.2101 -0.0516
12349TIP3    H158462   5.160   3.514  12.750 -1.6816  0.4141 -0.6074
12349TIP3    H258463   5.145   3.599  12.626  0.9191  0.1793 -1.1446
12350TIP3   OH258464   5.062   1.662   5.297 -0.7397  0.3696  0.2571
12350TIP3    H158465   4.968   1.673   5.280 -0.3633 -0.2816 -2.7296
12350TIP3    H258466   5.099   1.749   5.285 -0.5566  0.0162 -2.1381
12351TIP3   OH258467   4.857   0.777   4.318 -0.2521 -0.2564  0.0838
12351TIP3    H158468   4.855   0.725   4.238 -1.0391 -1.2059  0.7158
12351TIP3    H258469   4.803   0.854   4.298  2.1839  1.2193 -1.4013
12352TIP3   OH258470   5.283   3.002   2.534 -0.1089 -0.3180 -0.1930
12352TIP3    H158471   5.200   3.006   2.582  1.2676  1.0164  2.3012
12352TIP3    H258472   5.301   3.093   2.510  1.3086 -0.3511  0.6236
12353TIP3   OH258473   2.586   4.886   1.205 -0.5619  0.0713 -0.4524
12353TIP3    H158474   2.555   4.892   1.115  0.6037  0.1140 -0.8595
12353TIP3    H258475   2.577   4.793   1.227  1.8489 -0.5333 -1.6397
12354TIP3   OH258476   2.599   2.913   2.956 -0.0150 -0.1775 -0.1714
12354TIP3    H158477   2.631   2.888   2.869 -1.5453  0.1305 -0.8553
12354TIP3    H258478   2.559   2.833   2.990 -1.3351  0.2522 -0.6732
12355TIP3   OH258479   0.731   3.340  10.935  0.2312  0.0162 -0.1921
12355TIP3    H158480   0.700   3.394  10.863 -1.8518 -0.1413  0.5021
12355TIP3    H258481   0.813   3.302  10.904  0.6307  1.8350 -1.5183
12356TIP3   OH258482   2.167   5.104   5.984 -0.4027 -0.2458 -0.3270
12356TIP3    H158483   2.211   5.020   5.997 -1.9549 -1.0320  0.0566
12356TIP3    H258484   2.218   5.165   6.037  0.3210 -1.0803 -0.0207
12357TIP3   OH258485   6.095   5.061   6.234  0.1643  0.2496 -0.6678
12357TIP3    H158486   6.168   5.057   6.296  0.3722  0.6708 -0.8843
12357TIP3    H258487   6.018   5.045   6.288  0.1558  2.4069  0.0467
12358TIP3   OH258488   6.096   1.174  16.014  0.4891 -0.2131 -1.0653
12358TIP3    H158489   6.072   1.130  15.932 -0.8083 -3.1847  0.7573
12358TIP3    H258490   6.136   1.105  16.067  2.1009  1.8406  0.5244
12359TIP3   OH258491   1.183   1.222  16.433  0.6077  0.4843 -0.1076
12359TIP3    H158492   1.201   1.308  16.396 -0.8808  0.8072 -0.1215
12359TIP3    H258493   1.169   1.240  16.527 -0.3979  0.3657 -0.2317
12360TIP3   OH258494   4.985   0.123   5.678 -0.8259  0.2467  0.2802
12360TIP3    H158495   5.009   0.034   5.706  0.0188  0.0059 -1.0695
12360TIP3    H258496   4.890   0.122   5.674 -0.8182 -0.7368 -0.0648
12361TIP3   OH258497   1.910   5.717  13.453 -0.1271  0.1113  0.3317
12361TIP3    H158498   1.854   5.679  13.386 -1.2512  1.3326  0.5372
12361TIP3    H258499   1.945   5.797  13.412  1.3910 -0.5561  0.2538
12362TIP3   OH258500   0.243   6.609   3.116 -0.1053  0.4818  0.2041
12362TIP3    H158501   0.193   6.534   3.082  1.6067 -0.9100  0.6222
12362TIP3    H258502   0.186   6.647   3.182 -0.1387 -1.9228  1.6941
12363TIP3   OH258503   1.001   1.394   0.323 -0.2387  0.2523 -0.3377
12363TIP3    H158504   1.051   1.445   0.259 -0.3753 -0.6601 -1.1977
12363TIP3    H258505   1.016   1.303   0.298  0.8403 -0.2104  1.7868
12364TIP3   OH258506   4.342   1.680  14.558  0.1772 -0.2926  0.6649
12364TIP3    H158507   4.287   1.729  14.497 -0.6771 -1.7112  0.2418
12364TIP3    H258508   4.304   1.697  14.644  0.0494 -0.0009  0.5525
12365TIP3   OH258509   4.282   0.793   4.847 -0.1330  0.1867 -0.4361
12365TIP3    H158510   4.253   0.844   4.771 -1.1099  0.2657 -0.0249
12365TIP3    H258511   4.365   0.754   4.820 -0.6626 -0.1170 -1.6886
12366TIP3   OH258512   4.686   3.888  13.724 -0.5708  0.4420  0.1311
12366TIP3    H158513   4.697   3.846  13.639  2.1444 -1.7436  1.3798
12366TIP3    H258514   4.603   3.855  13.758  0.4521 -2.3782  0.1245
12367TIP3   OH258515   6.326   4.930  14.527 -0.0769 -0.5201  0.0640
12367TIP3    H158516   6.388   4.994  14.563 -0.7017 -0.9337  2.0464
12367TIP3    H258517   6.354   4.918  14.437  1.9640  0.2391  0.5216
12368TIP3   OH258518   3.899   0.283  16.161 -0.1095  0.0111  0.3934
12368TIP3    H158519   3.991   0.271  16.185 -0.3852  0.2722  1.6590
12368TIP3    H258520   3.902   0.315  16.071  1.2338  3.0518  1.3700
12369TIP3   OH258521   1.873   3.685  16.843  0.1515 -0.4681 -0.3494
12369TIP3    H158522   1.778   3.674  16.832  0.0140  0.3104 -0.0368
12369TIP3    H258523   1.881   3.765  16.895  0.9720 -0.7636 -0.0153
12370TIP3   OH258524   2.869   1.892   0.359 -0.3976  0.2680  0.0605
12370TIP3    H158525   2.929   1.828   0.396  0.0875  1.2810  1.1069
12370TIP3    H258526   2.782   1.862   0.384 -0.2438 -0.4875 -0.3003
12371TIP3   OH258527   3.190   3.045  14.966 -0.2954  0.1575  0.4431
12371TIP3    H158528   3.239   2.968  14.994  1.1204  0.7888 -0.1897
12371TIP3    H258529   3.227   3.068  14.881 -1.5620  0.8049  0.0401
12372TIP3   OH258530   0.371   4.977  12.764 -0.0656  0.2801  0.1995
12372TIP3    H158531   0.296   4.966  12.823 -0.8491  1.3635 -0.5488
12372TIP3    H258532   0.401   4.888  12.747 -2.3082 -0.3481 -0.8531
12373TIP3   OH258533   0.186   3.232   2.874  0.5095  0.5846 -0.5811
12373TIP3    H158534   0.182   3.156   2.817 -0.0019  1.8381 -2.2954
12373TIP3    H258535   0.258   3.213   2.935 -1.7698 -2.7523  1.3625
12374TIP3   OH258536   1.913   1.382   2.481 -0.0378  0.3543 -0.0314
12374TIP3    H158537   1.917   1.370   2.576 -3.9035  1.0188  0.3433
12374TIP3    H258538   1.952   1.468   2.466  0.2956  0.3910  0.9803
12375TIP3   OH258539   5.294   4.408  15.990 -0.2247 -0.2161 -0.0546
12375TIP3    H158540   5.335   4.356  15.920 -1.9118 -1.9098  0.1425
12375TIP3    H258541   5.217   4.447  15.949 -0.6241 -0.3329  0.5765
12376TIP3   OH258542   5.108   5.532   1.887  0.4001  0.0702 -0.0664
12376TIP3    H158543   5.174   5.580   1.836  0.8152  1.4112  1.6547
12376TIP3    H258544   5.146   5.524   1.974  0.0416 -2.8700 -0.0551
12377TIP3   OH258545   5.095   6.344   0.079 -0.3854  0.4167 -0.0316
12377TIP3    H158546   5.096   6.412   0.011  0.1956 -0.7211 -1.1889
12377TIP3    H258547   5.180   6.301   0.071 -0.5403 -0.1329  1.0505
12378TIP3   OH258548   3.351   3.534  14.757  0.8158  0.1470 -0.2058
12378TIP3    H158549   3.330   3.596  14.688  1.2580  0.6768  0.1252
12378TIP3    H258550   3.303   3.454  14.734 -0.2446  0.8042 -0.3131
12379TIP3   OH258551   0.738   5.572   0.376  0.0369 -0.7652 -0.1561
12379TIP3    H158552   0.651   5.534   0.390 -1.1166  1.6049 -0.3065
12379TIP3    H258553   0.753   5.564   0.281 -1.3020  1.1621 -0.6052
12380TIP3   OH258554   5.477   0.338   4.274 -0.4344 -0.8450  0.6172
12380TIP3    H158555   5.502   0.427   4.248  0.2835 -1.0311  0.6493
12380TIP3    H258556   5.395   0.321   4.228 -0.3395 -0.3325  0.2600
12381TIP3   OH258557   1.516   4.839   1.513 -0.1967  0.1033 -0.3938
12381TIP3    H158558   1.554   4.906   1.456  0.6809 -0.7149 -0.8036
12381TIP3    H258559   1.423   4.836   1.489 -0.1480  0.8512 -0.6877
12382TIP3   OH258560   1.118   4.639   0.539 -0.2110  0.1216 -0.4880
12382TIP3    H158561   1.163   4.723   0.530  0.4542 -0.0950  0.6044
12382TIP3    H258562   1.180   4.583   0.585 -1.6063 -0.1544  1.1797
12383TIP3   OH258563   5.901   1.294   5.327  0.0455 -0.8379 -0.4257
12383TIP3    H158564   5.867   1.269   5.413 -2.3260  1.1622 -0.6666
12383TIP3    H258565   5.822   1.313   5.275  1.4696  2.1258 -1.7042
12384TIP3   OH258566   3.594   6.096  12.441  0.3738  0.2989 -0.4086
12384TIP3    H158567   3.500   6.115  12.442  0.4710  0.9446  1.7220
12384TIP3    H258568   3.633   6.171  12.398  0.0775  1.1448  0.7599
12385TIP3   OH258569   2.956   2.372  12.883  0.3464  0.0155 -0.5682
12385TIP3    H158570   3.034   2.323  12.857  0.4911  0.2022 -0.4875
12385TIP3    H258571   2.974   2.462  12.856  0.6097  0.2651  0.4224
12386TIP3   OH258572   3.885   2.734   0.040 -0.2070  0.2048  0.3207
12386TIP3    H158573   3.851   2.725   0.129  1.7399 -1.1701  0.9895
12386TIP3    H258574   3.893   2.645   0.008  3.5756  0.2742  0.6183
12387TIP3   OH258575   3.171   0.167  12.519  0.3333  0.1349  0.0412
12387TIP3    H158576   3.115   0.113  12.463 -1.4488 -0.4232  2.1819
12387TIP3    H258577   3.110   0.228  12.561  1.7633  1.3092  0.4821
12388TIP3   OH258578   3.451   2.097  12.965 -0.0875 -0.1447 -0.3274
12388TIP3    H158579   3.453   2.036  13.039  0.7598 -0.8061 -0.8694
12388TIP3    H258580   3.542   2.102  12.937 -0.2880  0.7061 -0.8416
12389TIP3   OH258581   6.316   4.474   4.648  0.2630  0.1374  0.1571
12389TIP3    H158582   6.311   4.383   4.618  0.5890  0.5085 -1.0902
12389TIP3    H258583   6.409   4.493   4.651  0.1758  0.7247 -0.5680
12390TIP3   OH258584   0.179   0.879   3.601 -0.2557  0.0604 -0.2479
12390TIP3    H158585   0.168   0.794   3.558 -2.5109  1.2381 -2.2739
12390TIP3    H258586   0.201   0.858   3.691 -1.6198 -2.6948 -0.4492
12391TIP3   OH258587   0.517   5.442   5.938 -0.0695 -0.7947  0.6514
12391TIP3    H158588   0.476   5.369   5.984 -0.7383 -1.3844 -0.8198
12391TIP3    H258589   0.542   5.503   6.007  0.1976 -2.2548  1.8871
12392TIP3   OH258590   0.815   6.651  15.512 -0.3304  0.5323  0.2283
12392TIP3    H158591   0.888   6.630  15.454 -1.3220 -0.9891 -0.5418
12392TIP3    H258592   0.834   6.604  15.593 -0.3327  0.3084  0.1014
12393TIP3   OH258593   3.824   4.514   1.377 -0.1435  0.0929 -0.0877
12393TIP3    H158594   3.892   4.448   1.392 -0.4430  0.1210  1.6428
12393TIP3    H258595   3.872   4.592   1.348  0.2133 -0.8394 -2.1051
12394TIP3   OH258596   2.663   0.159  11.540  0.2286  0.1371  0.6860
12394TIP3    H158597   2.706   0.224  11.596  1.0068 -0.0048  0.2647
12394TIP3    H258598   2.590   0.126  11.593  0.2833  0.8057  1.1877
12395TIP3   OH258599   1.554   1.116  15.824  0.4842  0.1521 -0.1385
12395TIP3    H158600   1.609   1.056  15.874  1.5251 -0.0973 -1.5027
12395TIP3    H258601   1.468   1.073  15.820  1.6592 -2.3310 -2.6987
12396TIP3   OH258602   6.424   5.871  16.808  0.1178  0.5614 -0.3089
12396TIP3    H158603   6.494   5.937  16.809  0.5235  0.1436  0.8020
12396TIP3    H258604   6.456   5.802  16.866 -0.9864  0.1165 -0.2149
12397TIP3   OH258605   2.086   1.147   5.699  0.4671 -0.1031 -0.2006
12397TIP3    H158606   2.000   1.150   5.742  0.0539 -0.0550 -1.0157
12397TIP3    H258607   2.133   1.223   5.733 -0.8778  1.5760 -1.9445
12398TIP3   OH258608   0.831   6.360  12.477 -0.0952  0.4622 -0.4677
12398TIP3    H158609   0.826   6.455  12.489 -0.8918  0.3009  0.5744
12398TIP3    H258610   0.925   6.342  12.473  0.1086  1.1460  0.7001
12399TIP3   OH258611   0.717   2.962   3.169  0.3399 -0.3634 -0.0627
12399TIP3    H158612   0.672   2.973   3.253  0.2672  0.9367 -0.2555
12399TIP3    H258613   0.776   2.888   3.183 -0.4210 -0.8230  0.8083
12400TIP3   OH258614   3.907   0.071   0.876 -0.0492 -0.3173 -0.5062
12400TIP3    H158615   3.867   0.135   0.817 -1.0724 -0.1656  0.3276
12400TIP3    H258616   3.836   0.043   0.934  0.6440 -1.3820 -0.1329
12401TIP3   OH258617   4.511   6.102   0.172 -0.1277  0.0520  0.3056
12401TIP3    H158618   4.513   6.011   0.143 -0.0764  0.4612 -1.0497
12401TIP3    H258619   4.582   6.108   0.236  1.4172 -0.3748 -1.2547
12402TIP3   OH258620   1.341   5.408   3.683  0.5213 -0.1794 -0.5201
12402TIP3    H158621   1.263   5.362   3.716  0.3574 -0.4748 -1.2941
12402TIP3    H258622   1.397   5.338   3.648  0.0630  0.2245 -2.1449
12403TIP3   OH258623   4.265   6.039  13.905  0.5812 -0.0765 -0.0637
12403TIP3    H158624   4.333   6.030  13.839 -0.0690  1.1916 -0.9572
12403TIP3    H258625   4.195   5.981  13.875  1.2488 -1.4325  0.8898
12404TIP3   OH258626   5.664   0.768  14.557  0.1724 -0.1096 -0.2635
12404TIP3    H158627   5.578   0.794  14.592  1.0929 -0.5413  2.5615
12404TIP3    H258628   5.723   0.838  14.586  1.0983 -0.7871 -0.4856
12405TIP3   OH258629   0.128   5.068   2.627 -0.2881 -0.7422 -0.7249
12405TIP3    H158630   0.175   5.145   2.661  2.6052 -1.6028 -2.4245
12405TIP3    H258631   0.038   5.098   2.618 -0.0576  1.2531  2.1485
12406TIP3   OH258632   1.499   0.854   0.952 -0.1591  0.1859  0.3843
12406TIP3    H158633   1.416   0.868   0.907 -0.9452  0.1873  1.7541
12406TIP3    H258634   1.482   0.883   1.042  1.2837  0.0409  0.7265
12407TIP3   OH258635   5.832   5.184  13.100 -0.0989  0.0931 -0.2868
12407TIP3    H158636   5.885   5.207  13.023  1.7268 -1.0467  0.5759
12407TIP3    H258637   5.869   5.236  13.171 -1.2039  0.4730  0.0241
12408TIP3   OH258638   5.699   3.521  14.620  0.4545 -0.3648  0.4180
12408TIP3    H158639   5.661   3.440  14.585  0.4167  0.1752 -0.8534
12408TIP3    H258640   5.623   3.575  14.641  0.4454 -1.0757  2.3900
12409TIP3   OH258641   5.303   4.411   1.893  0.1906  0.1180  0.7183
12409TIP3    H158642   5.209   4.430   1.883  0.0342 -0.9789 -0.1234
12409TIP3    H258643   5.334   4.396   1.803  1.5816  2.1559  0.7992
12410TIP3   OH258644   5.175   1.257   4.736 -0.0509 -0.3263 -0.2407
12410TIP3    H158645   5.199   1.234   4.826 -0.1470  2.4211  0.6078
12410TIP3    H258646   5.257   1.250   4.686  0.2405 -0.8812  0.3100
12411TIP3   OH258647   1.790   6.361  16.152  0.0475 -0.2670  0.4045
12411TIP3    H158648   1.822   6.433  16.098  0.0004 -0.3474  0.2673
12411TIP3    H258649   1.841   6.366  16.233 -0.0425 -0.0057  0.4438
12412TIP3   OH258650   0.683   3.916  16.177 -0.0750  0.4383  0.2349
12412TIP3    H158651   0.592   3.892  16.197  0.2761 -1.3533 -0.1411
12412TIP3    H258652   0.675   3.977  16.104 -0.9516 -1.3332 -1.2395
12413TIP3   OH258653   1.649   1.099  11.585 -0.1336 -0.3110 -0.0184
12413TIP3    H158654   1.603   1.060  11.511  0.7569 -1.1402 -0.1491
12413TIP3    H258655   1.684   1.182  11.551  1.1396 -1.1544 -0.8591
12414TIP3   OH258656   4.689   1.050  16.948 -0.1304 -0.0887  0.2961
12414TIP3    H158657   4.735   1.010  16.874  2.0733  0.0176  1.5175
12414TIP3    H258658   4.697   0.987  17.019 -1.4322  0.1932  0.7195
12415TIP3   OH258659   6.497   2.565  13.949  0.3769  0.3093  0.4610
12415TIP3    H158660   6.572   2.623  13.936  0.1914  0.4250 -0.1017
12415TIP3    H258661   6.441   2.580  13.874 -0.0444 -0.0418  0.6982
12416TIP3   OH258662   0.503   4.460  16.164  0.3343 -0.3193  0.0837
12416TIP3    H158663   0.575   4.520  16.146  1.0600 -1.3245 -0.4696
12416TIP3    H258664   0.538   4.400  16.231  0.2656 -1.2156 -0.6629
12417TIP3   OH258665   6.025   3.656   3.712 -0.5424  0.2690 -0.2926
12417TIP3    H158666   6.090   3.604   3.759 -0.1479  1.1181  0.1320
12417TIP3    H258667   6.059   3.746   3.716 -0.7293  0.4279 -1.8142
12418TIP3   OH258668   1.719   6.216  12.001 -0.9645  0.3121 -0.2071
12418TIP3    H158669   1.726   6.172  11.916 -1.0918 -1.6967  0.7820
12418TIP3    H258670   1.625   6.231  12.012 -0.9202  0.8974 -0.5473
12419TIP3   OH258671   4.107   5.314   3.888  0.4647  0.5405 -0.4837
12419TIP3    H158672   4.152   5.294   3.806 -1.4883 -0.5302 -1.3771
12419TIP3    H258673   4.166   5.283   3.957  1.8000  0.7369 -1.5060
12420TIP3   OH258674   4.443   5.733   0.390  0.3864 -0.7152 -0.4530
12420TIP3    H158675   4.365   5.732   0.446 -0.1532 -1.9663 -1.1715
12420TIP3    H258676   4.430   5.807   0.331 -0.7003 -1.4094 -1.1265
12421TIP3   OH258677   5.621   1.620   4.097 -0.2123  0.2604 -0.5799
12421TIP3    H158678   5.704   1.603   4.141  0.1334  0.5465 -1.1079
12421TIP3    H258679   5.587   1.534   4.075  0.6937  0.1815 -1.7249
12422TIP3   OH258680   0.609   3.363  15.372  0.3730 -0.1841 -0.6070
12422TIP3    H158681   0.552   3.351  15.295 -0.3704  1.1531 -0.2946
12422TIP3    H258682   0.665   3.437  15.349 -1.0702  1.4094  0.7941
12423TIP3   OH258683   1.494   0.584   3.656  0.2261  0.3098  0.6003
12423TIP3    H158684   1.445   0.648   3.707  1.9191  1.9514  0.2897
12423TIP3    H258685   1.559   0.636   3.608  1.1332 -1.5602 -0.3185
12424TIP3   OH258686   6.184   0.645   1.818 -0.2307  0.0809  0.6587
12424TIP3    H158687   6.265   0.674   1.775 -0.9523  0.1668 -0.7055
12424TIP3    H258688   6.140   0.591   1.751 -1.3417  0.1150  1.3429
12425TIP3   OH258689   2.307   1.859   0.786 -0.0868  0.3571 -0.0834
12425TIP3    H158690   2.331   1.926   0.723  1.2541 -0.9264 -1.0192
12425TIP3    H258691   2.289   1.781   0.732 -0.5323 -0.3276  1.0145
12426TIP3   OH258692   1.604   4.761  15.585 -0.2183 -0.3148 -0.3560
12426TIP3    H158693   1.526   4.739  15.536 -0.0428 -1.6639 -0.0834
12426TIP3    H258694   1.594   4.714  15.668 -0.2919  1.5262  0.7323
12427TIP3   OH258695   4.526   5.269  15.416  0.3314 -0.5406  0.2941
12427TIP3    H158696   4.597   5.251  15.354 -0.9656 -0.6678 -1.2328
12427TIP3    H258697   4.528   5.364  15.428 -0.4180 -0.2793 -1.3066
12428TIP3   OH258698   3.944   1.227  13.043  0.6635 -0.1275 -0.4886
12428TIP3    H158699   3.972   1.257  12.956  0.5064 -1.3861 -0.9854
12428TIP3    H258700   3.924   1.134  13.032 -3.6433  0.5720 -0.1559
12429TIP3   OH258701   4.146   2.792  16.441 -0.3592 -0.2030  0.2265
12429TIP3    H158702   4.221   2.740  16.412  2.0834  1.9564  2.1347
12429TIP3    H258703   4.086   2.729  16.478  0.8568 -1.9726 -0.6620
12430TIP3   OH258704   4.370   0.690   3.999 -0.0212 -0.3782  0.8534
12430TIP3    H158705   4.304   0.760   4.000 -0.6830 -0.9722  0.0090
12430TIP3    H258706   4.320   0.610   4.014  0.1295 -1.1048 -2.0011
12431TIP3   OH258707   5.321   1.865   2.834  0.3449  0.4305 -0.2500
12431TIP3    H158708   5.263   1.790   2.845  2.3024 -0.8872  2.1604
12431TIP3    H258709   5.269   1.939   2.866 -1.4874  0.1577 -2.3323
12432TIP3   OH258710   3.619   2.034  14.275  0.1738  0.0372 -0.4231
12432TIP3    H158711   3.608   2.103  14.209 -2.0023  2.0624  1.8606
12432TIP3    H258712   3.581   1.956  14.234  1.4663  0.4510 -2.5733
12433TIP3   OH258713   2.228   3.321  15.042 -0.5656  0.0314  0.1499
12433TIP3    H158714   2.322   3.311  15.054 -0.5430  1.1769  1.1214
12433TIP3    H258715   2.189   3.259  15.103 -0.5031 -2.1075 -1.8342
12434TIP3   OH258716   5.244   5.550   3.545 -0.0215 -0.4330  0.7891
12434TIP3    H158717   5.243   5.514   3.634  1.2092 -0.1570  0.9395
12434TIP3    H258718   5.320   5.608   3.544 -0.2970 -0.0679 -0.3089
12435TIP3   OH258719   4.607   3.411  16.642 -0.6488  0.2975 -0.1775
12435TIP3    H158720   4.551   3.455  16.578 -1.6272  1.0271  1.1133
12435TIP3    H258721   4.660   3.481  16.679  0.8275 -0.3187 -1.0522
12436TIP3   OH258722   1.094   3.870  10.862 -0.2134 -0.6727 -0.0285
12436TIP3    H158723   1.133   3.802  10.917  1.0608 -1.8507 -2.2361
12436TIP3    H258724   1.029   3.823  10.809 -1.7493  0.5142  0.7148
12437TIP3   OH258725   5.429   1.677   1.695 -0.6470 -0.1866  0.6776
12437TIP3    H158726   5.466   1.744   1.753 -2.8098  0.4572  1.4061
12437TIP3    H258727   5.415   1.721   1.612 -1.0022 -0.0273  0.8163
12438TIP3   OH258728   4.093   3.220  15.453 -0.0756  0.0016  0.2630
12438TIP3    H158729   4.021   3.177  15.500 -0.8597  2.2009  1.1844
12438TIP3    H258730   4.051   3.290  15.403  1.2143  0.0869 -0.7374
12439TIP3   OH258731   6.334   6.354  14.735 -0.1213 -0.1065 -0.0085
12439TIP3    H158732   6.247   6.342  14.697  0.4761  0.2480 -1.5628
12439TIP3    H258733   6.323   6.426  14.798 -0.9257 -0.0216 -0.2359
12440TIP3   OH258734   2.210   4.080   6.263 -0.1478 -0.2766  0.3665
12440TIP3    H158735   2.206   4.071   6.358 -0.0542  2.1898  0.6726
12440TIP3    H258736   2.123   4.114   6.238  0.7537  1.9443  0.0159
12441TIP3   OH258737   5.098   0.881  15.513 -0.6363  0.2359  0.2777
12441TIP3    H158738   5.099   0.924  15.598  1.9900 -0.7437  0.8409
12441TIP3    H258739   5.103   0.788  15.532 -1.0300 -0.0606 -0.9447
12442TIP3   OH258740   0.685   1.191  15.506  0.9455 -0.7505  0.0666
12442TIP3    H158741   0.771   1.233  15.510 -0.0841  1.5204 -0.6368
12442TIP3    H258742   0.652   1.195  15.596  0.7698  0.1303 -0.0363
12443TIP3   OH258743   4.819   1.268  15.497  0.7005 -0.1733 -0.2422
12443TIP3    H158744   4.827   1.180  15.460  1.1145  0.8508 -2.8051
12443TIP3    H258745   4.909   1.298  15.508  0.5639 -0.1247  0.7712
12444TIP3   OH258746   4.852   0.606   5.733  0.5937  0.2279 -0.7691
12444TIP3    H158747   4.924   0.543   5.736  1.3989  1.0063 -2.0705
12444TIP3    H258748   4.808   0.588   5.650  1.3625  1.8545 -1.5926
12445TIP3   OH258749   3.343   5.933   1.028  0.2160 -0.3700 -0.3259
12445TIP3    H158750   3.278   6.003   1.020  0.0292 -0.5022  0.0232
12445TIP3    H258751   3.336   5.904   1.119  1.3957  0.2271 -0.0132
12446TIP3   OH258752   1.228   6.767   4.674 -0.5788 -0.1862 -0.1860
12446TIP3    H158753   1.216   6.795   4.583 -1.8941 -0.2883 -0.0646
12446TIP3    H258754   1.321   6.745   4.680 -0.8637 -2.2232 -2.0893
12447TIP3   OH258755   2.823   0.806  16.260  0.1450 -0.3750  0.0867
12447TIP3    H158756   2.852   0.717  16.240  1.3972 -0.3152  1.4767
12447TIP3    H258757   2.889   0.840  16.319 -1.1444  0.9291  0.8380
12448TIP3   OH258758   3.036   0.497   0.981 -0.1403  0.3325 -0.1069
12448TIP3    H158759   3.066   0.572   0.928  1.3220 -0.2786 -0.1918
12448TIP3    H258760   3.044   0.527   1.071 -0.3889  0.5662 -0.1587
12449TIP3   OH258761   2.326   4.577  15.936 -0.6632 -0.3181  0.5995
12449TIP3    H158762   2.397   4.633  15.968 -1.3739  0.1950  1.3112
12449TIP3    H258763   2.361   4.538  15.856 -0.0069  0.8356  0.2972
12450TIP3   OH258764   3.896   1.849  14.261 -0.1005 -0.6654 -0.1318
12450TIP3    H158765   3.950   1.913  14.308 -1.9292  0.8681  0.0136
12450TIP3    H258766   3.903   1.875  14.169  0.7131 -1.5030 -0.3136
12451TIP3   OH258767   5.313   1.762   5.967  0.0089  0.2628  0.6275
12451TIP3    H158768   5.336   1.736   6.056  2.3331  2.1388  0.6721
12451TIP3    H258769   5.360   1.700   5.911 -0.7757 -0.3950  0.6797
12452TIP3   OH258770   2.714   3.013  10.940  0.0478  0.3009  0.0942
12452TIP3    H158771   2.775   3.082  10.914 -1.3129  1.4312 -0.2656
12452TIP3    H258772   2.643   3.020  10.877 -0.5285 -0.8681  0.5919
12453TIP3   OH258773   0.721   4.295   1.752  0.3667 -0.2657 -0.1924
12453TIP3    H158774   0.811   4.285   1.782  0.0196  1.0577  1.4249
12453TIP3    H258775   0.668   4.250   1.817 -0.1687 -0.7195 -0.9339
12454TIP3   OH258776   3.812   0.144   0.140 -0.2528  0.0346 -0.4730
12454TIP3    H158777   3.806   0.105   0.226 -1.2262 -1.1581 -1.0525
12454TIP3    H258778   3.841   0.073   0.082  0.3651  0.8031 -1.1402
12455TIP3   OH258779   3.337   3.899   4.539  0.0648 -0.0370 -0.3954
12455TIP3    H158780   3.257   3.847   4.545  0.0208 -0.1469 -1.6464
12455TIP3    H258781   3.317   3.980   4.585 -1.3629  0.6413 -2.1203
12456TIP3   OH258782   4.985   3.420  13.239 -1.2890 -0.3569 -0.5213
12456TIP3    H158783   4.995   3.426  13.144  0.9099  0.2743 -0.2921
12456TIP3    H258784   5.065   3.458  13.274 -1.6217 -1.4655  1.5840
12457TIP3   OH258785   5.283   5.282   5.227 -0.0721 -0.1308 -0.3310
12457TIP3    H158786   5.206   5.292   5.282  0.4691  1.5227  0.1689
12457TIP3    H258787   5.297   5.368   5.188  3.7786  0.8817  2.6746
12458TIP3   OH258788   0.337   6.726  15.129  0.0540  0.2448 -0.4073
12458TIP3    H158789   0.255   6.759  15.093 -0.2043 -0.5230 -0.5281
12458TIP3    H258790   0.386   6.805  15.152 -0.3973  0.7214 -1.0431
12459TIP3   OH258791   1.777   4.223  16.583  0.5559  0.5585  0.1810
12459TIP3    H158792   1.846   4.186  16.528  0.1961 -0.7390  0.5673
12459TIP3    H258793   1.768   4.161  16.656 -0.9267  0.7627  0.2039
12460TIP3   OH258794   6.368   1.530   5.808 -0.1250 -0.3997  0.5043
12460TIP3    H158795   6.376   1.439   5.837  1.8464  0.4537  3.0602
12460TIP3    H258796   6.294   1.564   5.859 -0.9687 -0.5599 -0.5730
12461TIP3   OH258797   0.866   5.832   2.433  0.2028  0.1804  0.6354
12461TIP3    H158798   0.870   5.887   2.511 -0.5001  0.9689  0.1257
12461TIP3    H258799   0.865   5.894   2.360  0.5910 -0.5423  0.0041
12462TIP3   OH258800   0.245   4.674  11.766  0.2036  0.3299 -0.0884
12462TIP3    H158801   0.237   4.754  11.818 -1.0633 -0.5484  1.1597
12462TIP3    H258802   0.197   4.608  11.816  1.7189 -1.3812 -0.7663
12463TIP3   OH258803   6.716   2.405   2.377  0.3197  0.0761 -0.3108
12463TIP3    H158804   6.793   2.450   2.343  0.2688 -0.5296 -1.2717
12463TIP3    H258805   6.654   2.404   2.303 -0.9330  1.2409  0.6687
12464TIP3   OH258806   1.155   4.242  11.196  0.1987  0.1501 -0.2040
12464TIP3    H158807   1.124   4.252  11.106  0.6752  4.1780 -0.1271
12464TIP3    H258808   1.149   4.148  11.213  0.3002 -0.8566 -4.4604
12465TIP3   OH258809   5.606   0.719  15.119 -0.4077 -0.0931  0.8768
12465TIP3    H158810   5.649   0.646  15.074  0.4094  0.8344  0.1061
12465TIP3    H258811   5.664   0.794  15.105 -1.9047  1.0434  0.4342
12466TIP3   OH258812   2.274   4.571   0.277  0.4949  0.1616 -0.2905
12466TIP3    H158813   2.258   4.605   0.365 -1.1448  1.9473 -1.2070
12466TIP3    H258814   2.327   4.638   0.234  0.9739 -0.5194 -0.7891
12467TIP3   OH258815   6.743   0.394  15.309 -0.2960  0.1013 -0.1521
12467TIP3    H158816   6.718   0.302  15.301  2.9787 -0.8764 -0.4751
12467TIP3    H258817   6.701   0.423  15.391 -1.0881 -1.7515  0.1438
12468TIP3   OH258818   2.742   5.294   0.840 -0.1601 -0.6480 -0.1980
12468TIP3    H158819   2.662   5.252   0.872 -1.4095  0.3380 -1.9241
12468TIP3    H258820   2.712   5.366   0.785  1.9349  0.3232 -0.1681
12469TIP3   OH258821   6.692   3.074  14.428 -0.0238  1.1259  0.1978
12469TIP3    H158822   6.707   3.157  14.474 -1.3156  2.0642 -1.0071
12469TIP3    H258823   6.626   3.094  14.362  0.4027 -0.6330 -0.8279
12470TIP3   OH258824   0.695   6.374  11.812 -0.4302 -0.3328  0.1081
12470TIP3    H158825   0.728   6.392  11.724 -1.1726  0.8390  0.0492
12470TIP3    H258826   0.723   6.284  11.831  0.2825 -0.3691 -1.0632
12471TIP3   OH258827   0.568   5.706  13.011  0.4655  0.2073 -0.0927
12471TIP3    H158828   0.577   5.619  13.050 -1.7159  0.2060  0.5019
12471TIP3    H258829   0.479   5.708  12.977  1.2163  1.4344 -2.1449
12472TIP3   OH258830   4.868   1.480   5.995  0.7202  0.1257 -0.1126
12472TIP3    H158831   4.835   1.548   6.053  1.5836  0.5523 -0.1151
12472TIP3    H258832   4.870   1.401   6.049 -1.1156 -0.1280 -0.3499
12473TIP3   OH258833   2.328   1.098   0.231 -1.0807  0.0116  0.2242
12473TIP3    H158834   2.358   1.024   0.284 -2.8699 -1.2194 -0.3895
12473TIP3    H258835   2.400   1.161   0.235 -0.8611 -0.2734  3.5514
12474TIP3   OH258836   0.278   3.278   1.245  0.3224  0.0319 -0.6530
12474TIP3    H158837   0.319   3.220   1.310  0.1203  0.8432  0.2253
12474TIP3    H258838   0.220   3.221   1.196 -0.1376 -0.4670  0.4303
12475TIP3   OH258839   6.213   3.598  12.537  0.1557  0.2848  0.3430
12475TIP3    H158840   6.253   3.514  12.558  1.1155  0.8759  0.9341
12475TIP3    H258841   6.139   3.575  12.480  0.2385 -0.9699  0.7073
12476TIP3   OH258842   2.953   4.289  17.149 -0.2379  0.1952 -0.1929
12476TIP3    H158843   2.922   4.228  17.215 -2.5621  0.4540 -0.9538
12476TIP3    H258844   2.996   4.359  17.198  1.5082 -1.4344  0.7466
12477TIP3   OH258845   1.056   0.082  13.397 -0.4498  0.1199 -0.4223
12477TIP3    H158846   1.047   0.072  13.491 -1.9247 -0.3807 -0.5910
12477TIP3    H258847   1.120   0.015  13.372 -3.1839 -2.8349 -0.2635
12478TIP3   OH258848   1.539   4.790  15.960 -0.3364 -0.4118 -0.4188
12478TIP3    H158849   1.450   4.818  15.940 -0.2652 -1.3793 -2.3033
12478TIP3    H258850   1.532   4.695  15.973  0.0276 -0.1636  2.0820
12479TIP3   OH258851   5.539   3.365  13.963 -0.0020 -0.1018 -0.0675
12479TIP3    H158852   5.561   3.413  14.043  0.3472  1.8702 -1.2877
12479TIP3    H258853   5.507   3.280  13.995  0.4345  0.4823  2.1371
12480TIP3   OH258854   3.234   4.414   3.796 -0.0583 -0.0723 -0.1600
12480TIP3    H158855   3.319   4.453   3.776 -0.3564 -0.2320 -1.8512
12480TIP3    H258856   3.246   4.320   3.784  0.0387 -0.3152  1.6107
12481TIP3   OH258857   3.949   3.880   3.723  0.7115 -0.9187  0.0347
12481TIP3    H158858   3.918   3.878   3.813  0.9398 -3.1632  0.1295
12481TIP3    H258859   3.870   3.879   3.670  0.5651  0.9766  0.1688
12482TIP3   OH258860   4.399   6.145  12.262  0.0156 -0.2629  0.0968
12482TIP3    H158861   4.438   6.069  12.304 -0.3138 -1.0368 -0.9758
12482TIP3    H258862   4.332   6.175  12.324  1.6372  0.5434  1.5540
12483TIP3   OH258863   2.262   1.006   1.121  0.2844 -0.0299 -0.3646
12483TIP3    H158864   2.293   1.065   1.053 -0.8512  0.6087 -0.3538
12483TIP3    H258865   2.325   1.016   1.192  1.2372 -0.3828 -1.1385
12484TIP3   OH258866   6.638   1.010  11.843  0.2319  0.4869 -0.2888
12484TIP3    H158867   6.649   1.063  11.922 -1.0215  1.2579 -0.5887
12484TIP3    H258868   6.594   1.069  11.781 -0.3913 -0.6285 -0.9513
12485TIP3   OH258869   1.846   4.672   6.105 -0.1444  0.1044  0.0981
12485TIP3    H158870   1.885   4.759   6.112 -0.3742  0.1083  2.2348
12485TIP3    H258871   1.773   4.683   6.044 -0.5773  1.5886  0.8327
12486TIP3   OH258872   3.922   4.913  15.137  0.2146  0.4464 -0.0643
12486TIP3    H158873   3.862   4.910  15.212  2.6908 -0.0251  2.0654
12486TIP3    H258874   4.001   4.868  15.168  1.2528 -0.1205 -3.1491
12487TIP3   OH258875   4.167   3.739  15.149 -0.1336  0.6320 -0.6156
12487TIP3    H158876   4.166   3.813  15.088 -2.1435  2.0873  1.0254
12487TIP3    H258877   4.075   3.724  15.169  0.3487 -1.2285  0.4203
12488TIP3   OH258878   4.985   1.687  11.839  0.1618 -0.2372  0.4721
12488TIP3    H158879   4.918   1.755  11.832 -0.4000 -0.8502 -0.2935
12488TIP3    H258880   5.067   1.730  11.817 -0.3258 -0.0228 -1.0343
12489TIP3   OH258881   3.022   4.639   4.975 -0.9704  0.5534  0.2196
12489TIP3    H158882   2.992   4.625   4.885 -1.1768 -1.6275  0.5898
12489TIP3    H258883   2.964   4.586   5.029  2.0378 -2.0883  1.1571
12490TIP3   OH258884   0.843   1.932  14.358 -0.6119 -0.1119 -0.5985
12490TIP3    H158885   0.801   1.884  14.287  1.0199  0.4975 -2.0393
12490TIP3    H258886   0.936   1.931  14.336 -0.1259  0.6458  1.2190
12491TIP3   OH258887   0.725   3.491  12.249 -0.0688  0.3365 -0.0315
12491TIP3    H158888   0.762   3.570  12.289  3.0367 -1.9019  1.8648
12491TIP3    H258889   0.668   3.455  12.317  0.7899 -0.5194  0.2529
12492TIP3   OH258890   5.978   0.674  12.690  0.5981 -0.1447 -0.5795
12492TIP3    H158891   5.954   0.762  12.717 -1.2052 -0.9427  0.6739
12492TIP3    H258892   6.042   0.645  12.755  0.9511  0.1103 -0.8090
12493TIP3   OH258893   0.438   3.474   4.642 -0.1208 -0.7592 -0.3219
12493TIP3    H158894   0.410   3.384   4.651 -1.3862 -0.3377  0.0745
12493TIP3    H258895   0.428   3.493   4.549  0.9364 -1.2604 -0.5539
12494TIP3   OH258896   1.180   2.196   1.551 -0.3216 -0.1766 -0.2958
12494TIP3    H158897   1.154   2.104   1.545 -0.0035 -0.1940 -1.6962
12494TIP3    H258898   1.238   2.209   1.477  2.2127  0.3592  1.6356
12495TIP3   OH258899   0.747   2.987  15.185  0.0929 -0.0814  0.0365
12495TIP3    H158900   0.669   2.932  15.184  0.4443 -0.6824  2.1725
12495TIP3    H258901   0.797   2.959  15.108 -1.7103  0.2935 -1.3461
12496TIP3   OH258902   3.839   4.705   5.490  0.4170  0.0815  0.4382
12496TIP3    H158903   3.753   4.665   5.487  0.3109  0.3382 -1.8962
12496TIP3    H258904   3.844   4.759   5.411  2.6166  0.2926  0.6362
12497TIP3   OH258905   4.537   3.351   0.382  0.5104 -0.1456 -0.2719
12497TIP3    H158906   4.558   3.421   0.320  2.3481 -0.3009  0.1035
12497TIP3    H258907   4.530   3.394   0.467  1.5459 -0.3636 -0.0566
12498TIP3   OH258908   3.167   6.496  13.555 -0.1080 -0.2641 -0.0089
12498TIP3    H158909   3.096   6.431  13.562 -0.2992 -0.4617 -2.7933
12498TIP3    H258910   3.138   6.557  13.487 -0.7930  4.0437  3.6702
12499TIP3   OH258911   0.277   1.367   6.539 -0.2290 -0.5782 -0.5468
12499TIP3    H158912   0.324   1.450   6.539 -0.1591 -0.6109  0.4022
12499TIP3    H258913   0.343   1.302   6.512  0.7086 -0.8328  2.0955
12500TIP3   OH258914   6.217   3.712   5.631  0.0686  0.4649  0.0952
12500TIP3    H158915   6.271   3.776   5.677 -1.1204  2.8815 -1.6630
12500TIP3    H258916   6.247   3.715   5.540  0.3695 -1.9984  0.0386
12501TIP3   OH258917   5.906   4.092  17.060 -0.4059  0.0313 -0.6491
12501TIP3    H158918   5.837   4.087  17.127  1.2611 -0.0687  1.1505
12501TIP3    H258919   5.946   4.178  17.074  0.4678 -0.3122 -1.0123
12502TIP3   OH258920   5.643   3.347   4.051 -0.5123 -0.7950  0.7342
12502TIP3    H158921   5.649   3.288   3.976 -0.6388 -0.2181  0.2657
12502TIP3    H258922   5.710   3.316   4.111  1.3313  0.2274 -0.6778
12503TIP3   OH258923   4.089   4.773  15.368 -0.3651  0.3475 -0.5696
12503TIP3    H158924   4.076   4.817  15.451  0.7506  1.1082 -0.7652
12503TIP3    H258925   4.154   4.705  15.387  1.5694  1.8940 -1.1723
12504TIP3   OH258926   4.515   2.528  14.466 -0.0142  0.6417 -0.3213
12504TIP3    H158927   4.587   2.591  14.454  1.0084 -0.4268  0.0968
12504TIP3    H258928   4.490   2.538  14.558  0.7158 -0.1237 -0.0238
12505TIP3   OH258929   0.676   0.496   0.273 -0.4265 -0.1325 -0.1903
12505TIP3    H158930   0.748   0.543   0.229  1.1943  0.3010  2.6755
12505TIP3    H258931   0.702   0.404   0.268 -0.3001 -0.0965 -0.2064
12506TIP3   OH258932   5.983   0.762   4.931 -0.1676 -0.2938 -0.2969
12506TIP3    H158933   5.996   0.721   5.016 -2.8437  3.3967  2.2159
12506TIP3    H258934   6.051   0.830   4.926 -2.8390  2.8170  1.5085
12507TIP3   OH258935   2.273   3.811  11.101  0.5968  0.1435 -0.6661
12507TIP3    H158936   2.184   3.794  11.069  0.1579  0.5778  0.2743
12507TIP3    H258937   2.313   3.865  11.034 -0.4007  1.2965 -0.3642
12508TIP3   OH258938   0.040   0.074   5.668 -0.3341  0.1553  0.1179
12508TIP3    H158939   0.001   0.008   5.611  1.5203 -1.0062  0.0735
12508TIP3    H258940   0.090   0.023   5.732  1.0142  1.4881  0.2038
12509TIP3   OH258941   1.712   5.252  10.685 -0.0327 -0.6169 -0.7408
12509TIP3    H158942   1.620   5.270  10.707 -0.4501 -3.1735 -0.1121
12509TIP3    H258943   1.712   5.239  10.590 -0.7627 -2.5560 -0.5228
12510TIP3   OH258944   5.738   4.556  16.613  0.2270 -0.5679 -0.0163
12510TIP3    H158945   5.823   4.596  16.595  0.0916  0.3772  1.3252
12510TIP3    H258946   5.718   4.581  16.703 -1.4634 -0.7886 -0.3000
12511TIP3   OH258947   3.990   1.687  14.739 -0.2807  0.2535 -0.4600
12511TIP3    H158948   3.991   1.728  14.826  0.7962  0.3889 -0.5159
12511TIP3    H258949   3.998   1.760  14.678  1.5930  0.0210 -0.5621
12512TIP3   OH258950   3.865   2.809  14.381 -0.1494 -0.5227 -0.4181
12512TIP3    H158951   3.831   2.874  14.443 -0.0715 -0.2067 -0.6977
12512TIP3    H258952   3.932   2.761  14.429  2.2174  1.8091 -1.1358
12513TIP3   OH258953   0.418   5.770   4.378 -0.3419  0.2305  0.1636
12513TIP3    H158954   0.323   5.763   4.387 -0.6540  0.6937 -2.1548
12513TIP3    H258955   0.453   5.737   4.461 -2.5218  0.4624  1.2342
12514TIP3   OH258956   0.573   5.154  13.711  0.0910 -0.5373 -0.2308
12514TIP3    H158957   0.538   5.145  13.799  2.2054 -1.8054  0.5280
12514TIP3    H258958   0.519   5.095  13.658 -2.1351  1.2943 -0.1631
12515TIP3   OH258959   2.653   0.956  13.335  0.1729 -0.1500 -0.2753
12515TIP3    H158960   2.616   0.872  13.307 -3.0429  1.2204 -0.6581
12515TIP3    H258961   2.643   1.013  13.259 -0.3904  1.3051  0.8371
12516TIP3   OH258962   5.552   5.735   2.002  0.9132  0.7373 -0.1837
12516TIP3    H158963   5.537   5.711   1.910 -0.4021 -2.1752  0.6470
12516TIP3    H258964   5.545   5.830   2.003  1.8897  0.9625 -3.2193
12517TIP3   OH258965   4.577   1.840  11.794 -0.0927  0.2419  0.2076
12517TIP3    H158966   4.627   1.826  11.874 -0.8724 -0.0228  0.6643
12517TIP3    H258967   4.486   1.835  11.822 -0.3994 -1.1342 -0.9018
12518TIP3   OH258968   4.754   2.696   1.687  0.1251  0.0350  0.2993
12518TIP3    H158969   4.763   2.602   1.701 -1.4418  0.0520  1.8317
12518TIP3    H258970   4.753   2.733   1.776 -0.1181  1.4006 -0.2518
12519TIP3   OH258971   4.656   6.568  11.284  0.3375 -0.4404 -0.5125
12519TIP3    H158972   4.720   6.637  11.272  0.3527 -0.2027  0.7469
12519TIP3    H258973   4.592   6.581  11.214  0.6140  0.5437 -0.5947
12520TIP3   OH258974   3.025   6.032   0.010  0.5101 -0.5893 -0.6311
12520TIP3    H158975   3.087   6.090   0.054  1.4106 -1.2364 -1.0046
12520TIP3    H258976   3.060   6.023  -0.079 -0.4255 -0.5377 -1.0112
12521TIP3   OH258977   2.873   2.010   2.283 -0.2401 -0.2320 -0.0041
12521TIP3    H158978   2.826   1.927   2.284  0.9617 -0.9405  0.0745
12521TIP3    H258979   2.903   2.022   2.373  1.3024 -0.7582 -0.4128
12522TIP3   OH258980   2.325   3.895   0.892 -0.1966 -0.0889  0.4413
12522TIP3    H158981   2.309   3.878   0.799 -1.8887  0.5166  0.5794
12522TIP3    H258982   2.250   3.856   0.936 -0.5434  1.4981  1.3428
12523TIP3   OH258983   4.384   4.231  14.411  0.1633  0.3346 -0.1682
12523TIP3    H158984   4.289   4.230  14.428  0.2623  0.4834  0.4166
12523TIP3    H258985   4.407   4.324  14.415  0.4731  0.2312  0.5008
12524TIP3   OH258986   6.511   6.247  12.729 -0.2034  0.2238 -0.0208
12524TIP3    H158987   6.571   6.199  12.786 -0.4642  0.9113  0.8398
12524TIP3    H258988   6.539   6.338  12.734 -1.4725  0.5977  0.6087
12525TIP3   OH258989   6.310   5.728  13.525  0.1689 -0.8200 -0.3537
12525TIP3    H158990   6.404   5.717  13.542 -0.1315 -1.0838  1.3425
12525TIP3    H258991   6.304   5.742  13.431  2.2264  2.5729 -0.1476
12526TIP3   OH258992   1.792   0.001  16.660 -0.0850 -0.2324  0.2061
12526TIP3    H158993   1.858  -0.020  16.727 -0.5434  0.3575  0.8604
12526TIP3    H258994   1.712   0.017  16.710 -0.7326 -0.9551 -0.5871
12527TIP3   OH258995   3.709   0.733  17.050  0.1989 -0.3207  0.4821
12527TIP3    H158996   3.716   0.761  17.141 -1.2799 -0.8387  0.7818
12527TIP3    H258997   3.779   0.780  17.005  0.3386  0.6985  1.7053
12528TIP3   OH258998   3.888   6.002   2.907  1.0011 -0.5296 -0.5354
12528TIP3    H158999   3.920   6.090   2.885  0.3972 -0.4172 -0.9926
12528TIP3    H259000   3.855   5.967   2.824  0.8729 -1.0307 -0.2756
12529TIP3   OH259001   5.810   1.454   4.666 -0.3312 -0.2195 -0.0092
12529TIP3    H159002   5.903   1.475   4.667 -0.2524 -0.5744  0.1280
12529TIP3    H259003   5.801   1.389   4.597 -0.8594  1.5562 -1.6966
12530TIP3   OH259004   5.799   0.753   4.666  0.1137  0.6639  0.1493
12530TIP3    H159005   5.875   0.730   4.718  0.5872  0.2711 -0.6981
12530TIP3    H259006   5.739   0.679   4.676 -0.0037  0.8049  0.5118
12531TIP3   OH259007   0.968   6.547   0.090 -0.1816 -0.9045 -0.0756
12531TIP3    H159008   1.021   6.570   0.166 -0.5054 -1.3183  0.2824
12531TIP3    H259009   1.015   6.585   0.016  0.1427 -0.5013  0.3265
12532TIP3   OH259010   4.613   3.397  12.097  0.0563 -0.1665 -0.5082
12532TIP3    H159011   4.592   3.490  12.104 -0.8064 -0.3426 -0.6178
12532TIP3    H259012   4.538   3.352  12.136  0.3105 -0.8303 -0.7601
12533TIP3   OH259013   1.015   5.090   3.046 -0.5105  0.7904  1.0361
12533TIP3    H159014   0.965   5.122   3.121 -1.5497  1.9193 -0.0721
12533TIP3    H259015   1.033   5.169   2.995  1.5172  0.2514  0.8624
12534TIP3   OH259016   1.783   2.897  15.776  0.4103  0.0071  0.2294
12534TIP3    H159017   1.760   2.817  15.730 -0.3046 -0.1892  0.9137
12534TIP3    H259018   1.703   2.950  15.775  0.9890  0.9065 -0.5791
12535TIP3   OH259019   5.449   0.082  11.342  0.5182  0.6074  0.3843
12535TIP3    H159020   5.395   0.154  11.307  0.6193  1.7770  2.4680
12535TIP3    H259021   5.431   0.083  11.436  1.7256 -1.1078  0.6677
12536TIP3   OH259022   3.440   4.443   1.970  0.2718 -0.1652 -0.3803
12536TIP3    H159023   3.401   4.376   2.027  0.5388  0.0961  0.1085
12536TIP3    H259024   3.383   4.443   1.893  0.7779 -1.5943 -0.7924
12537TIP3   OH259025   5.282   4.482   2.681  0.3261  0.2269  0.5858
12537TIP3    H159026   5.325   4.408   2.638 -1.4883  0.1332 -1.2255
12537TIP3    H259027   5.226   4.442   2.747 -0.1848  0.0068  0.0293
12538TIP3   OH259028   3.548   3.770   0.577  0.4416 -0.3338 -0.0579
12538TIP3    H159029   3.515   3.859   0.578 -0.8494 -0.7970  0.8664
12538TIP3    H259030   3.643   3.779   0.571  0.4837  1.1444  2.0938
12539TIP3   OH259031   2.237   6.639  14.700  0.2839  0.7466  0.0471
12539TIP3    H159032   2.197   6.553  14.712  0.0620  0.9526  0.8646
12539TIP3    H259033   2.210   6.666  14.613  3.3849 -1.6049 -1.8586
12540TIP3   OH259034   6.637   5.571   0.452  0.2878 -0.0490 -0.7943
12540TIP3    H159035   6.600   5.653   0.419  0.7167  0.3753 -0.2189
12540TIP3    H259036   6.731   5.582   0.446  0.3477 -0.6974 -1.1783
12541TIP3   OH259037   5.821   4.852   4.935  0.4520  0.1058 -1.0244
12541TIP3    H159038   5.806   4.916   5.005  1.2273  1.5153 -2.0872
12541TIP3    H259039   5.901   4.805   4.961 -1.3595 -2.1449  0.9048
12542TIP3   OH259040   6.167   1.031  14.704  0.2165  0.5658 -0.3406
12542TIP3    H159041   6.209   1.117  14.716  0.3749  0.2915  1.1733
12542TIP3    H259042   6.230   0.982  14.651  0.9353  0.8094  0.2683
12543TIP3   OH259043   1.983   6.629  15.408 -0.0701 -0.2290  0.0447
12543TIP3    H159044   1.910   6.652  15.465  1.4676 -0.1033  2.0896
12543TIP3    H259045   1.994   6.535  15.420  0.4428 -0.1539  0.2094
12544TIP3   OH259046   6.593   2.186   4.847  0.5018  0.1635 -0.1246
12544TIP3    H159047   6.608   2.242   4.770  1.7375  0.3505  0.2318
12544TIP3    H259048   6.622   2.239   4.921  2.1376 -1.0954  0.1837
12545TIP3   OH259049   0.584   4.230  15.009  0.4390 -0.1106 -0.2398
12545TIP3    H159050   0.516   4.284  15.050  0.7690 -0.8328  1.3482
12545TIP3    H259051   0.543   4.144  14.998  0.6768 -0.1882 -0.5368
12546TIP3   OH259052   0.872   1.934  10.799 -0.5890 -1.0100 -0.2708
12546TIP3    H159053   0.853   1.855  10.748  1.0059 -0.6374 -1.5671
12546TIP3    H259054   0.933   1.983  10.744  0.6516 -0.1999  1.7129
12547TIP3   OH259055   6.730   4.893  11.499 -0.1411 -0.5339  0.3540
12547TIP3    H159056   6.646   4.848  11.496 -0.9834  0.9049  1.2370
12547TIP3    H259057   6.795   4.823  11.501 -1.3579 -1.6841  0.7713
12548TIP3   OH259058   0.480   1.814   1.107  0.2700 -0.0278  0.1806
12548TIP3    H159059   0.407   1.864   1.072  0.8835  0.2108 -0.8195
12548TIP3    H259060   0.558   1.855   1.068  1.0057  0.2942  1.9044
12549TIP3   OH259061   0.572   1.480   5.744  0.4601 -0.3427 -0.2587
12549TIP3    H159062   0.497   1.538   5.762  0.6107 -0.5798  1.2662
12549TIP3    H259063   0.648   1.538   5.748  0.5785 -0.5479  0.9184
12550TIP3   OH259064   1.525   1.950   5.913 -1.0589 -0.4638 -0.0661
12550TIP3    H159065   1.486   1.914   5.992 -1.6546  1.8535  0.7739
12550TIP3    H259066   1.511   2.044   5.919  0.5221 -0.0076 -2.0440
12551TIP3   OH259067   2.373   0.863  16.846  0.0243 -0.6751  0.0172
12551TIP3    H159068   2.336   0.775  16.834 -0.0634 -0.5950 -0.3047
12551TIP3    H259069   2.368   0.903  16.760  0.5662 -0.5470  0.0390
12552TIP3   OH259070   1.521   4.015   3.366  0.5184  0.0465 -0.8959
12552TIP3    H159071   1.552   4.029   3.277 -0.1073 -0.3409 -1.1861
12552TIP3    H259072   1.485   4.100   3.392  0.9959  0.2498 -0.8863
12553TIP3   OH259073   0.419   3.190  15.756  0.5879 -0.3256  0.3418
12553TIP3    H159074   0.458   3.233  15.832 -0.4993  1.0537  0.1534
12553TIP3    H259075   0.392   3.104  15.788 -1.9166  1.0291  2.1876
12554TIP3   OH259076   2.120   4.052  16.985  0.8251 -0.5974  0.0691
12554TIP3    H159077   2.101   4.095  16.902 -1.2187 -1.1853  0.1967
12554TIP3    H259078   2.185   3.985  16.963  1.8102  0.5334 -0.6508
12555TIP3   OH259079   3.687   1.430   2.661 -0.1898 -0.2103 -0.4082
12555TIP3    H159080   3.636   1.494   2.711 -1.8630 -1.2924 -0.6750
12555TIP3    H259081   3.745   1.484   2.607  0.0764  1.0223  1.0311
12556TIP3   OH259082   6.201   3.550   3.347  0.1601  0.0205  0.1435
12556TIP3    H159083   6.161   3.479   3.397  0.4308  0.1565  0.5616
12556TIP3    H259084   6.281   3.571   3.395  0.2876  0.3366 -0.2007
12557TIP3   OH259085   6.067   3.289  14.836  0.4244  0.1795 -0.3764
12557TIP3    H159086   6.070   3.345  14.758 -1.5837 -1.1904 -1.5392
12557TIP3    H259087   6.111   3.208  14.809 -1.0511 -0.6372 -0.4464
12558TIP3   OH259088   1.728   4.751  14.024  0.6697 -0.2394 -0.2016
12558TIP3    H159089   1.696   4.827  14.073 -0.7021 -0.6632 -0.3996
12558TIP3    H259090   1.787   4.788  13.958 -0.7287  0.7839 -0.9313
12559TIP3   OH259091   0.967   6.186   0.742 -0.4980  0.5010 -0.1886
12559TIP3    H159092   1.044   6.181   0.685  0.0771  1.3901  0.4804
12559TIP3    H259093   0.997   6.237   0.817 -0.8556 -1.6242  1.5141
12560TIP3   OH259094   2.290   6.484  13.863 -0.1644  0.1244 -0.0106
12560TIP3    H159095   2.346   6.542  13.915 -0.1676 -0.8117  1.0604
12560TIP3    H259096   2.288   6.402  13.912 -0.8900 -0.4972 -1.0480
12561TIP3   OH259097   0.924   4.670   4.391 -0.0004 -0.1280 -0.1934
12561TIP3    H159098   0.923   4.731   4.317  0.3640  0.1212  0.0014
12561TIP3    H259099   0.994   4.703   4.448  1.7196 -1.9555 -1.1185
12562TIP3   OH259100   0.756   2.295   2.171 -0.3300 -0.0799  0.4954
12562TIP3    H159101   0.768   2.266   2.081 -4.3511  0.9074 -0.5582
12562TIP3    H259102   0.726   2.217   2.218  1.5108 -0.5318  0.9787
12563TIP3   OH259103   0.606   5.043   3.234  0.9032 -0.7165 -0.0843
12563TIP3    H159104   0.632   5.121   3.283 -0.1776  0.6881 -1.6546
12563TIP3    H259105   0.551   4.994   3.295 -0.4347  0.9961  0.1671
12564TIP3   OH259106   1.825   2.707  10.994 -0.0352  0.2868 -0.1328
12564TIP3    H159107   1.848   2.634  11.051  1.0563 -1.1862 -2.3251
12564TIP3    H259108   1.739   2.735  11.025 -1.4473 -3.2621 -0.3722
12565TIP3   OH259109   5.302   3.444  15.789 -0.1315 -0.2077 -0.1864
12565TIP3    H159110   5.258   3.518  15.831 -0.4974  0.8135 -2.2321
12565TIP3    H259111   5.323   3.385  15.860  0.3690  1.9662  1.5854
12566TIP3   OH259112   2.829   5.296  11.446 -0.2520 -0.4739  0.3298
12566TIP3    H159113   2.849   5.327  11.358  1.5742 -0.0126  0.8667
12566TIP3    H259114   2.871   5.211  11.453 -0.2476 -0.4392  0.7986
12567TIP3   OH259115   1.491   5.638  15.845 -0.2845 -0.2599 -0.4623
12567TIP3    H159116   1.490   5.586  15.765 -0.8596  0.1032 -0.7019
12567TIP3    H259117   1.400   5.667  15.856 -0.1355  0.0158  0.1092
12568TIP3   OH259118   6.052   1.358   1.861 -0.3422  0.1940  0.6616
12568TIP3    H159119   6.075   1.348   1.953 -0.7409 -1.1975  0.6314
12568TIP3    H259120   5.961   1.328   1.855 -0.8559  1.7862  0.0816
12569TIP3   OH259121   5.075   3.601  14.510  0.4359 -0.4787  0.4237
12569TIP3    H159122   5.108   3.623  14.423  0.1104  0.3839  0.5075
12569TIP3    H259123   4.983   3.628  14.508  1.1238  2.2911  1.9544
12570TIP3   OH259124   5.811   4.183   1.180  0.0814  0.4292 -0.2327
12570TIP3    H159125   5.782   4.270   1.154  0.9353  0.9610  0.5082
12570TIP3    H259126   5.906   4.185   1.167  0.0809 -0.4755 -0.4330
12571TIP3   OH259127   4.387   4.625  16.255 -0.7187  0.2414  0.2240
12571TIP3    H159128   4.367   4.718  16.254 -0.5825  0.2676 -0.3131
12571TIP3    H259129   4.454   4.615  16.322 -0.3789  0.6081 -0.0580
12572TIP3   OH259130   1.077   5.681  13.064 -0.8013 -0.4341 -0.2157
12572TIP3    H159131   1.033   5.741  13.125 -2.0178  1.0356 -2.4022
12572TIP3    H259132   1.014   5.611  13.049  0.4281 -2.1433  1.9468
12573TIP3   OH259133   1.467   5.919  15.271 -0.8603  0.3138 -0.2733
12573TIP3    H159134   1.533   5.852  15.257 -1.3284 -0.0453 -0.8000
12573TIP3    H259135   1.440   5.946  15.183 -1.2648  0.5976 -0.0679
12574TIP3   OH259136   6.259   3.298  16.045  0.0200 -0.1879  0.0539
12574TIP3    H159137   6.270   3.374  15.988  2.3500  0.0273  0.7112
12574TIP3    H259138   6.347   3.263  16.056 -0.5341 -1.0140  2.4479
12575TIP3   OH259139   4.400   0.170   1.356  0.2345 -0.1141  0.2855
12575TIP3    H159140   4.370   0.128   1.437 -0.1313 -2.0807 -0.8016
12575TIP3    H259141   4.496   0.167   1.362  0.2357  0.7291  1.0796
12576TIP3   OH259142   2.823   2.320   5.160  0.6236 -0.5371 -0.3451
12576TIP3    H159143   2.779   2.404   5.169 -0.1484 -1.0094  0.4086
12576TIP3    H259144   2.863   2.305   5.246  1.9443 -0.3032 -0.8938
12577TIP3   OH259145   3.413   3.193   4.775 -0.6832 -0.3650  0.0763
12577TIP3    H159146   3.404   3.287   4.790  1.7196 -0.6184  4.4916
12577TIP3    H259147   3.323   3.160   4.778 -1.4486  1.5777  0.0767
12578TIP3   OH259148   2.905   1.144  17.025 -0.4881  0.2161  0.1476
12578TIP3    H159149   2.830   1.086  17.037 -0.1939 -0.7885 -2.2362
12578TIP3    H259150   2.980   1.093  17.056 -0.5654  0.4575  0.7309
12579TIP3   OH259151   5.571   4.056  16.653 -0.0809  0.7273 -0.3905
12579TIP3    H159152   5.538   4.114  16.585 -1.6950 -0.0159 -0.2875
12579TIP3    H259153   5.584   3.972  16.608  0.3664  0.6433 -0.1149
12580TIP3   OH259154   5.128   0.688   5.494  0.2479 -0.6551 -0.0160
12580TIP3    H159155   5.199   0.715   5.434  1.5137 -0.2638  1.5869
12580TIP3    H259156   5.112   0.596   5.472  2.0757 -1.0985  0.3134
12581TIP3   OH259157   2.174   5.719   3.642 -0.6128 -0.2283  0.0043
12581TIP3    H159158   2.237   5.760   3.702 -0.8763 -1.0584  0.8818
12581TIP3    H259159   2.211   5.632   3.624 -0.7225 -0.1233 -0.7496
12582TIP3   OH259160   5.269   0.516  14.694 -0.5984 -0.2269 -0.0838
12582TIP3    H159161   5.353   0.474  14.676 -0.9454 -0.7246 -0.5756
12582TIP3    H259162   5.262   0.514  14.789 -0.2391 -0.5561 -0.0578
12583TIP3   OH259163   4.658   6.164   1.279  0.2807 -0.1249  0.0587
12583TIP3    H159164   4.655   6.089   1.338  0.1870  0.9490  1.4756
12583TIP3    H259165   4.662   6.240   1.337 -0.5942  1.0219 -1.3115
12584TIP3   OH259166   3.909   3.269  11.890 -0.4430 -0.0637  0.7325
12584TIP3    H159167   3.991   3.222  11.908 -0.3828 -0.5832 -0.7583
12584TIP3    H259168   3.883   3.239  11.804 -0.8177  2.0620  0.0426
12585TIP3   OH259169   0.191   5.737   3.314  0.0918  0.2598 -0.6831
12585TIP3    H159170   0.108   5.695   3.338 -0.6860  1.5627 -0.9570
12585TIP3    H259171   0.171   5.831   3.318  1.9482  0.6434  0.6336
12586TIP3   OH259172   5.363   3.890   4.632  0.0866  0.0295 -0.2916
12586TIP3    H159173   5.294   3.940   4.589  0.0056  1.0169  0.9198
12586TIP3    H259174   5.317   3.827   4.688  0.1916 -1.0395 -1.3631
12587TIP3   OH259175   6.782   5.819  16.168  0.4595  0.0082  0.4094
12587TIP3    H159176   6.745   5.857  16.248 -0.0384 -0.5140  0.4307
12587TIP3    H259177   6.733   5.738  16.155  0.8009 -0.1016 -0.2168
12588TIP3   OH259178   2.620   0.921  11.700  0.9462 -0.3386 -0.0682
12588TIP3    H159179   2.598   1.011  11.722  0.1192 -0.6602  0.4557
12588TIP3    H259180   2.580   0.906  11.614  1.8048  0.0438 -0.5501
12589TIP3   OH259181   0.114   5.285   3.823  0.1614  0.0223  0.0465
12589TIP3    H159182   0.059   5.207   3.816 -1.1653  0.9248 -0.0311
12589TIP3    H259183   0.185   5.259   3.881 -0.9498 -0.8744  1.0675
12590TIP3   OH259184   6.224   6.760  16.928 -0.0004  0.0929 -0.4471
12590TIP3    H159185   6.295   6.695  16.934  0.3782  0.6291  2.3798
12590TIP3    H259186   6.257   6.825  16.866  1.0631 -0.7460 -0.8060
12591TIP3   OH259187   0.300   1.046   3.413  0.1328  0.3119  0.2268
12591TIP3    H159188   0.261   0.972   3.458  0.1146 -0.1749 -0.5811
12591TIP3    H259189   0.386   1.057   3.454  0.0853 -0.0776  0.4260
12592TIP3   OH259190   2.819   4.585   0.377 -0.7772 -0.1655  0.0979
12592TIP3    H159191   2.795   4.647   0.308 -0.7075 -0.2362  0.0100
12592TIP3    H259192   2.893   4.537   0.341 -0.2409  0.3260  0.5266
12593TIP3   OH259193   1.665   4.654  11.766 -0.1170  0.1046  0.1122
12593TIP3    H159194   1.701   4.571  11.734  0.4408  0.0686  0.8009
12593TIP3    H259195   1.573   4.653  11.738  0.0074 -0.5296 -0.2918
12594TIP3   OH259196   0.190   5.005  11.687 -0.7321  0.7428  0.7265
12594TIP3    H159197   0.181   4.993  11.781 -0.4906  1.1341  0.7975
12594TIP3    H259198   0.106   4.974  11.651 -0.5130 -0.2051  0.9933
12595TIP3   OH259199   1.741   1.366  14.497  0.0977  0.7667  0.7479
12595TIP3    H159200   1.687   1.442  14.472 -0.0527  0.8702  1.3765
12595TIP3    H259201   1.788   1.395  14.574 -0.8422 -0.1714  1.7046
12596TIP3   OH259202   1.360   4.560  15.524  0.6293  0.4716 -0.1132
12596TIP3    H159203   1.347   4.566  15.429  1.5766  0.4043 -0.2533
12596TIP3    H259204   1.305   4.487  15.552 -0.6903  1.3194 -0.4012
12597TIP3   OH259205   4.737   0.087  13.065  0.1016 -0.0597  0.2236
12597TIP3    H159206   4.737   0.138  13.146 -0.7278  0.6417 -0.2042
12597TIP3    H259207   4.722   0.151  12.996 -1.7430 -0.9495 -0.2701
12598TIP3   OH259208   4.952   4.217  10.923  0.4900  0.1713 -0.3384
12598TIP3    H159209   5.016   4.175  10.981  2.1953  1.2700 -1.3548
12598TIP3    H259210   4.868   4.185  10.955  1.1671  1.8208  3.6931
12599TIP3   OH259211   3.059   3.630   0.069  0.2862  0.5008  0.4217
12599TIP3    H159212   3.049   3.593  -0.019  3.5020  1.1331 -0.3182
12599TIP3    H259213   3.119   3.571   0.114  0.7061  1.5590  1.2974
12600TIP3   OH259214   5.096   3.220   5.362  0.1728 -0.3134  0.9427
12600TIP3    H159215   5.149   3.205   5.441  0.4528 -1.0984  0.6176
12600TIP3    H259216   5.009   3.243   5.395  0.2842 -0.6500  1.4857
12601TIP3   OH259217   2.971   5.771  13.730  0.2083 -1.0031 -0.8842
12601TIP3    H159218   2.923   5.731  13.803 -2.4013 -1.1681 -2.5717
12601TIP3    H259219   2.907   5.828  13.688  0.8791 -2.5476 -4.3351
12602TIP3   OH259220   6.152   3.329   0.267  0.4354  0.4158  0.1981
12602TIP3    H159221   6.062   3.357   0.284  0.5107 -0.0150  1.4820
12602TIP3    H259222   6.158   3.319   0.172 -1.0304 -0.0597  0.1429
12603TIP3   OH259223   4.230   4.876   5.117 -0.4765  0.3841 -0.3263
12603TIP3    H159224   4.263   4.802   5.168 -1.6175  1.6070  2.3944
12603TIP3    H259225   4.135   4.860   5.111 -0.3604  0.1214 -2.4856
12604TIP3   OH259226   3.936   2.740  12.679  0.2531  0.1982 -0.1390
12604TIP3    H159227   4.015   2.710  12.725 -0.4239  0.2266  1.0867
12604TIP3    H259228   3.876   2.666  12.685 -0.9864  1.2827  1.8249
12605TIP3   OH259229   6.233   0.678   5.549 -0.1154  0.3331  0.7475
12605TIP3    H159230   6.211   0.762   5.591  0.8831  1.6801 -1.2694
12605TIP3    H259231   6.148   0.635   5.536 -0.9083  2.0774 -0.2050
12606TIP3   OH259232   4.342   4.792  12.105 -0.2131  0.4576  0.1439
12606TIP3    H159233   4.353   4.847  12.183  1.1401  0.4785 -0.0434
12606TIP3    H259234   4.336   4.703  12.140 -2.9122  0.6972  0.4880
12607TIP3   OH259235   4.795   3.575  14.548  0.1224 -0.4664  0.3517
12607TIP3    H159236   4.745   3.565  14.467  1.3140  0.8160 -0.5860
12607TIP3    H259237   4.734   3.551  14.617 -1.4131 -0.0926 -0.8261
12608TIP3   OH259238   4.577   5.204  13.378  0.3100  0.5071  0.0491
12608TIP3    H159239   4.515   5.175  13.310 -0.0532 -0.7465  0.8728
12608TIP3    H259240   4.648   5.246  13.329  1.0939 -2.1931 -1.3314
12609TIP3   OH259241   3.217   0.538  11.248  0.0781  0.7564  0.4580
12609TIP3    H159242   3.166   0.501  11.176 -0.0520  0.0657  0.8999
12609TIP3    H259243   3.159   0.532  11.324  0.4481  0.8977  0.7532
12610TIP3   OH259244   4.314   2.539   5.252 -0.2436  0.5251  0.2218
12610TIP3    H159245   4.263   2.612   5.286 -0.2450  1.7878 -2.2604
12610TIP3    H259246   4.366   2.577   5.181  2.2512 -1.2397  0.9726
12611TIP3   OH259247   0.530   4.591   1.305 -0.2395 -0.3151  0.4381
12611TIP3    H159248   0.600   4.540   1.264 -0.0155 -1.5017  2.1754
12611TIP3    H259249   0.452   4.537   1.295 -0.5343  0.1670  0.1053
12612TIP3   OH259250   2.141   0.628   2.615 -0.0455  0.3736  0.3506
12612TIP3    H159251   2.216   0.614   2.673 -0.0003 -0.4597  0.1054
12612TIP3    H259252   2.090   0.696   2.658  1.2205  1.4755  0.1494
12613TIP3   OH259253   3.355   5.142  12.599  0.3434  0.2847  0.5983
12613TIP3    H159254   3.310   5.167  12.679  2.4552  1.3743  1.5256
12613TIP3    H259255   3.360   5.047  12.602 -1.7218  0.1256  0.4914
12614TIP3   OH259256   5.303   2.412   2.562 -0.8332 -0.6466  0.3099
12614TIP3    H159257   5.384   2.362   2.573 -0.7421 -0.7424 -0.6766
12614TIP3    H259258   5.317   2.462   2.482 -0.0165  2.7685  2.4059
12615TIP3   OH259259   3.590   5.872  13.652  0.0235 -0.2992  0.1721
12615TIP3    H159260   3.672   5.826  13.668  0.9458  1.4081  0.7067
12615TIP3    H259261   3.553   5.885  13.739  0.1890  0.6297  0.1159
12616TIP3   OH259262   4.695   3.028   3.067  0.1196  0.5840 -0.1039
12616TIP3    H159263   4.742   3.037   2.983  0.1813 -2.2459 -0.4708
12616TIP3    H259264   4.603   3.022   3.042  0.2034 -1.0964 -0.0928
12617TIP3   OH259265   0.369   3.835   4.538  0.0316  0.3248  0.0025
12617TIP3    H159266   0.374   3.851   4.443  0.6378 -0.9681 -0.2075
12617TIP3    H259267   0.444   3.779   4.557 -1.7361 -1.9585  0.6874
12618TIP3   OH259268   6.255   0.137  13.391  0.2584  0.6560 -0.1429
12618TIP3    H159269   6.258   0.144  13.487  1.0368 -1.9329  0.1213
12618TIP3    H259270   6.174   0.181  13.366 -0.5440  0.4266  1.8438
12619TIP3   OH259271   4.652   2.663  12.543 -0.4595 -0.8409 -0.5895
12619TIP3    H159272   4.623   2.592  12.486 -1.5859 -0.0138 -1.0901
12619TIP3    H259273   4.607   2.646  12.626 -1.6403 -0.1380 -1.0480
12620TIP3   OH259274   0.238   0.105   4.037 -0.1086  0.5474 -0.1863
12620TIP3    H159275   0.257   0.034   3.976 -0.2782  1.2893 -1.1263
12620TIP3    H259276   0.318   0.114   4.088  0.5542  0.8312 -1.2405
12621TIP3   OH259277   0.282   2.213  12.164  0.5877  0.2733  0.0325
12621TIP3    H159278   0.264   2.202  12.258  1.9858  0.5245  0.3452
12621TIP3    H259279   0.217   2.157  12.121 -0.7635  0.9666  1.0919
12622TIP3   OH259280   5.385   6.795   2.830  0.2266  0.1110 -0.0858
12622TIP3    H159281   5.382   6.857   2.902  1.6558 -0.6603  0.6984
12622TIP3    H259282   5.412   6.713   2.871 -0.1585 -0.6526 -1.3186
12623TIP3   OH259283   1.125   3.210  14.393  0.5455 -0.2844 -0.4202
12623TIP3    H159284   1.088   3.128  14.363  0.5995  0.3142 -2.2462
12623TIP3    H259285   1.053   3.255  14.437  0.1824 -0.7583 -0.5286
12624TIP3   OH259286   6.149   6.638   1.164  0.2224  0.0996  0.0396
12624TIP3    H159287   6.240   6.626   1.192  1.1790  0.0699 -2.7622
12624TIP3    H259288   6.109   6.551   1.176  0.8082 -0.1272  0.4259
12625TIP3   OH259289   3.649   2.299   0.277 -0.2921 -0.8894 -0.5243
12625TIP3    H159290   3.592   2.279   0.202 -0.0773  0.5029 -1.1004
12625TIP3    H259291   3.646   2.221   0.331 -1.8923 -1.2642 -1.0862
12626TIP3   OH259292   6.325   4.703   6.388  0.4398 -0.0893 -0.2305
12626TIP3    H159293   6.240   4.726   6.352  0.5066 -0.7102 -0.8158
12626TIP3    H259294   6.328   4.607   6.383  0.5682 -0.1821  1.1801
12627TIP3   OH259295   3.795   5.282   2.843 -0.0780  0.5915  0.2072
12627TIP3    H159296   3.861   5.351   2.848 -0.6211  1.1673 -0.2909
12627TIP3    H259297   3.822   5.218   2.908  0.1696  1.5100  1.0319
12628TIP3   OH259298   1.200   1.508  16.458 -0.1804  0.1047  0.3453
12628TIP3    H159299   1.177   1.545  16.543  1.2329 -1.5123  1.4926
12628TIP3    H259300   1.288   1.541  16.441  1.0518 -2.3722  1.3159
12629TIP3   OH259301   2.866   6.788  10.629  0.0852  0.1469  0.4705
12629TIP3    H159302   2.836   6.877  10.613 -0.6815 -0.1289  0.3103
12629TIP3    H259303   2.903   6.760  10.545  2.7188  1.1849  1.2038
12630TIP3   OH259304   5.225   2.197   1.570  0.7055  0.0048 -0.2169
12630TIP3    H159305   5.161   2.126   1.572  1.7452 -0.9581  1.3714
12630TIP3    H259306   5.304   2.159   1.609  1.5367  1.8064 -0.0510
12631TIP3   OH259307   4.223   2.922   0.178  0.2121  0.1094 -0.0802
12631TIP3    H159308   4.262   3.001   0.142 -1.5974  1.2345  0.3095
12631TIP3    H259309   4.298   2.866   0.199  1.5277  1.6349 -0.5061
12632TIP3   OH259310   1.450   1.673  12.664  0.3609  0.4216 -0.4334
12632TIP3    H159311   1.455   1.767  12.649 -0.3331  0.2923 -1.6778
12632TIP3    H259312   1.533   1.638  12.632  1.1944  0.7176  1.2822
12633TIP3   OH259313   3.205   0.360   2.733  0.5605  0.3590 -0.2497
12633TIP3    H159314   3.263   0.419   2.781 -0.1170  0.4671  0.4537
12633TIP3    H259315   3.164   0.306   2.800  0.5344 -0.3484 -0.8152
12634TIP3   OH259316   3.162   4.204   4.925 -0.0295 -0.0777  0.7483
12634TIP3    H159317   3.240   4.257   4.911 -0.6711  0.5823 -0.4916
12634TIP3    H259318   3.112   4.252   4.991  0.1630 -0.0030  0.8409
12635TIP3   OH259319   6.635   5.392  16.559 -0.1009  0.0396 -0.0794
12635TIP3    H159320   6.611   5.453  16.488  0.2225 -0.3799 -0.5603
12635TIP3    H259321   6.637   5.306  16.516  1.9995  0.0036 -0.0410
12636TIP3   OH259322   4.030   0.309  11.008 -0.1593  0.0259 -0.0379
12636TIP3    H159323   4.057   0.379  11.067 -1.3521 -0.2077  0.8345
12636TIP3    H259324   4.079   0.232  11.037 -1.6128 -0.3862  1.5025
12637TIP3   OH259325   5.981   2.467   5.371  0.1319  0.0456  0.7691
12637TIP3    H159326   5.952   2.535   5.430  1.1762  1.6009 -0.4157
12637TIP3    H259327   6.011   2.396   5.428 -0.4178  0.8182  2.0445
12638TIP3   OH259328   4.956   5.998  13.931  0.4522 -1.0094  0.2622
12638TIP3    H159329   4.874   5.973  13.888 -0.3788 -0.7874  1.6607
12638TIP3    H259330   4.973   6.087  13.899 -0.1263 -0.8695  0.3220
12639TIP3   OH259331   2.563   0.667  11.832 -0.2541 -0.7259 -0.0045
12639TIP3    H159332   2.559   0.728  11.905 -0.9465 -0.7664  0.0029
12639TIP3    H259333   2.548   0.721  11.754 -3.2661 -1.1517  0.1625
12640TIP3   OH259334   6.191   5.568  10.628 -0.5052  0.1464  0.5668
12640TIP3    H159335   6.227   5.657  10.631 -1.2045  0.4078  1.4180
12640TIP3    H259336   6.225   5.526  10.707 -3.2380  0.8888  2.2883
12641TIP3   OH259337   3.144   3.385   4.297 -0.0987  0.3646  0.6687
12641TIP3    H159338   3.215   3.448   4.284 -0.7573  0.9988  0.0615
12641TIP3    H259339   3.185   3.312   4.343  0.8607  0.8833  0.6649
12642TIP3   OH259340   1.099   3.873   2.240 -0.1859  0.0822 -0.5089
12642TIP3    H159341   1.068   3.880   2.150  0.0505  1.1573 -0.5219
12642TIP3    H259342   1.194   3.872   2.233 -0.1686 -1.4021 -0.3539
12643TIP3   OH259343   2.757   4.388  11.499  0.1735  0.4168  0.0426
12643TIP3    H159344   2.750   4.443  11.421 -1.9309 -1.1670 -0.9944
12643TIP3    H259345   2.672   4.396  11.542  0.5465 -0.4126  0.9788
12644TIP3   OH259346   6.215   5.959  15.664 -0.6802  0.1731 -0.0427
12644TIP3    H159347   6.189   6.032  15.720 -3.6192  0.4954 -1.6384
12644TIP3    H259348   6.186   5.984  15.577  1.6171 -1.3492 -1.3510
12645TIP3   OH259349   1.476   4.450  17.022 -0.6457 -0.3007 -1.2099
12645TIP3    H159350   1.571   4.460  17.019 -0.3880 -1.1184  1.4612
12645TIP3    H259351   1.463   4.368  17.071 -2.7304  0.2242 -0.8158
12646TIP3   OH259352   3.193   5.241   2.632  0.2981 -0.0444  0.2530
12646TIP3    H159353   3.230   5.320   2.672 -0.3675  0.4813 -0.1277
12646TIP3    H259354   3.260   5.210   2.572  0.9923 -0.3912  1.1946
12647TIP3   OH259355   3.952   0.088  16.851 -0.3989 -0.3248  0.2314
12647TIP3    H159356   3.896   0.130  16.785  0.1765 -2.8464 -2.0273
12647TIP3    H259357   4.040   0.091  16.814  0.3974  0.2786  2.0407
12648TIP3   OH259358   5.908   3.529   4.289 -0.0916  0.5723  0.5960
12648TIP3    H159359   5.902   3.570   4.204  1.3017 -0.5638 -0.0987
12648TIP3    H259360   5.885   3.437   4.274  1.3401  0.0810  1.1628
12649TIP3   OH259361   0.215   2.617   0.395 -0.1412  0.3949 -0.0733
12649TIP3    H159362   0.121   2.602   0.385  0.0217 -0.7353  0.0593
12649TIP3    H259363   0.228   2.705   0.358 -1.4098  1.0318  0.9120
12650TIP3   OH259364   0.416   3.609  13.996 -0.4146  0.0331  0.6013
12650TIP3    H159365   0.460   3.616  13.912 -0.2100 -0.5674  0.6542
12650TIP3    H259366   0.425   3.517  14.021 -1.0635  0.0596  0.9611
12651TIP3   OH259367   2.489   5.443   2.858 -0.0453  0.8948  0.1195
12651TIP3    H159368   2.512   5.535   2.851 -1.8357  1.3618 -0.0883
12651TIP3    H259369   2.411   5.433   2.802  0.9597 -1.0668 -1.0461
12652TIP3   OH259370   6.772   3.717   4.711 -0.1360  0.0081  0.3844
12652TIP3    H159371   6.792   3.780   4.642 -0.9002  0.7587  0.8428
12652TIP3    H259372   6.840   3.731   4.777  2.2003 -2.4407 -1.2423
12653TIP3   OH259373   2.119   6.507  13.450  0.9148  0.3292  1.1284
12653TIP3    H159374   2.181   6.540  13.515  0.0321  1.6039  1.3646
12653TIP3    H259375   2.041   6.484  13.501  1.7704 -3.1216  1.1183
12654TIP3   OH259376   3.820   4.638  15.626  0.2238 -0.0518  0.3858
12654TIP3    H159377   3.781   4.624  15.713  0.7214 -0.1714  0.5887
12654TIP3    H259378   3.908   4.602  15.633 -0.2503 -1.4614 -0.6241
12655TIP3   OH259379   1.386   3.376   1.631 -0.5399 -0.1594 -0.1791
12655TIP3    H159380   1.401   3.462   1.670  0.7284  0.4361 -1.8672
12655TIP3    H259381   1.296   3.354   1.656 -0.8482  1.5858  0.4012
12656TIP3   OH259382   5.337   5.598   0.291 -0.3238  0.5178  0.0104
12656TIP3    H159383   5.277   5.579   0.219 -0.4214  1.6084 -0.2118
12656TIP3    H259384   5.412   5.540   0.276 -1.5343 -1.2802  0.6143
12657TIP3   OH259385   6.353   4.655  10.237 -0.4475 -0.7380 -0.1264
12657TIP3    H159386   6.389   4.743  10.252 -0.2737 -0.7476 -0.4872
12657TIP3    H259387   6.279   4.649  10.298  0.0263 -0.6409  0.4618
12658TIP3   OH259388   5.759   2.265  13.149  0.5466 -0.0277 -0.0153
12658TIP3    H159389   5.850   2.283  13.127  0.1891  0.0261 -1.6166
12658TIP3    H259390   5.760   2.177  13.187  1.2291 -0.1414 -0.2900
12659TIP3   OH259391   5.943   3.217   2.896 -0.1923  0.4198 -0.0643
12659TIP3    H159392   5.934   3.122   2.910  0.5548  0.5983  2.0049
12659TIP3    H259393   5.972   3.225   2.805  2.1358 -1.5216  0.3915
12660TIP3   OH259394   5.234   3.111  13.723  0.8871 -0.4269  0.0080
12660TIP3    H159395   5.210   3.197  13.688  0.8217 -0.9841 -1.3680
12660TIP3    H259396   5.330   3.110  13.719  0.8609 -0.7080 -0.7364
12661TIP3   OH259397   1.583   1.454   5.244 -0.8782 -0.2585 -0.2109
12661TIP3    H159398   1.518   1.505   5.292  0.7846  0.1413  1.7805
12661TIP3    H259399   1.548   1.366   5.242 -1.4495 -0.0859  0.9664
12662TIP3   OH259400   2.636   4.578  11.931 -0.0667  0.6519  0.2912
12662TIP3    H159401   2.665   4.574  12.023 -0.4336  0.9578  0.4259
12662TIP3    H259402   2.604   4.668  11.921 -0.5676  0.4492  0.0320
12663TIP3   OH259403   3.144   5.142   4.900  0.2620 -0.0487  0.2020
12663TIP3    H159404   3.113   5.051   4.898 -0.6472  0.2186  1.1506
12663TIP3    H259405   3.208   5.147   4.829 -0.7609 -1.0388 -0.8466
12664TIP3   OH259406   5.260   0.790  16.373 -0.1837 -0.2846  0.4890
12664TIP3    H159407   5.286   0.825  16.458 -0.4883  1.5367 -0.1335
12664TIP3    H259408   5.340   0.748  16.339  0.9549  1.9241  0.2399
12665TIP3   OH259409   0.176   2.163   4.060  0.6308 -0.4524 -0.6360
12665TIP3    H159410   0.225   2.110   4.123 -0.1316 -0.7103 -0.2557
12665TIP3    H259411   0.130   2.098   4.006 -1.1100 -0.1702  0.4723
12666TIP3   OH259412   1.524   4.101  11.520 -0.1061  0.1514 -1.1706
12666TIP3    H159413   1.476   4.171  11.564  0.2602  1.3861 -2.6492
12666TIP3    H259414   1.457   4.047  11.480 -0.3926 -0.4032 -0.0009
12667TIP3   OH259415   6.422   2.009  14.111 -0.0039  0.1651 -0.5877
12667TIP3    H159416   6.363   2.062  14.165 -1.3600  0.2438 -2.0657
12667TIP3    H259417   6.451   1.939  14.170 -1.1543  0.4246  0.3513
12668TIP3   OH259418   2.178   5.889  13.533  0.4721 -0.6055  0.6233
12668TIP3    H159419   2.192   5.832  13.456 -1.2411 -0.1244 -0.0819
12668TIP3    H259420   2.084   5.900  13.538  0.5207 -0.8475  3.0118
12669TIP3   OH259421   4.077   5.489   4.864  0.3028  0.4593 -0.0759
12669TIP3    H159422   4.022   5.562   4.836 -1.0487 -0.3046  0.4804
12669TIP3    H259423   4.024   5.441   4.928  1.6418 -0.2964  0.5346
12670TIP3   OH259424   3.652   6.292   0.769 -0.0392 -0.0010  0.0533
12670TIP3    H159425   3.726   6.266   0.713  0.8480  1.0675  0.6820
12670TIP3    H259426   3.621   6.374   0.730  0.1574  0.4016  0.7443
12671TIP3   OH259427   5.332   2.948   6.076 -0.2654 -0.2799  0.1948
12671TIP3    H159428   5.305   2.857   6.082 -0.2691 -0.3170 -0.3222
12671TIP3    H259429   5.257   2.998   6.109 -0.0613 -0.4811  0.9847
12672TIP3   OH259430   4.459   1.585   1.047  0.5435  0.5652 -0.0838
12672TIP3    H159431   4.430   1.632   0.968 -2.2874  1.1230  1.1719
12672TIP3    H259432   4.553   1.573   1.034  0.1519  0.2593 -3.7238
12673TIP3   OH259433   5.941   5.088  15.835 -0.4583  0.1304 -0.1867
12673TIP3    H159434   5.930   5.002  15.874 -1.2211  0.4732  0.3959
12673TIP3    H259435   5.860   5.103  15.787  0.3075 -0.1191 -1.6108
12674TIP3   OH259436   6.220   1.391  15.891  0.2002 -0.7354 -0.2139
12674TIP3    H159437   6.199   1.468  15.945  0.4791 -0.1243 -0.9497
12674TIP3    H259438   6.160   1.323  15.920 -0.4386 -0.0623  0.0617
12675TIP3   OH259439   2.247   4.444  11.642  0.2543  0.0418  0.2832
12675TIP3    H159440   2.208   4.485  11.720  0.1499  2.1009 -0.8028
12675TIP3    H259441   2.340   4.465  11.647  0.1414  0.7682 -0.4689
12676TIP3   OH259442   3.062   5.600  11.691 -0.1922 -0.1839  0.2834
12676TIP3    H159443   3.151   5.631  11.672  0.6716 -2.0187  1.1026
12676TIP3    H259444   3.019   5.675  11.731  1.2435  0.5009  0.6211
12677TIP3   OH259445   2.173   3.772  16.079 -0.0084  0.8112 -0.7200
12677TIP3    H159446   2.122   3.692  16.075 -0.2877  1.0196 -1.8282
12677TIP3    H259447   2.139   3.826  16.007  1.6659  1.0024 -1.4282
12678TIP3   OH259448   0.051   1.932   4.325  0.1738 -0.3725  0.3438
12678TIP3    H159449  -0.033   1.931   4.279 -0.3579 -1.1557  1.2808
12678TIP3    H259450   0.106   1.872   4.274  0.3343  0.4891 -0.5322
12679TIP3   OH259451   2.446   4.259   3.507 -0.1655  0.0749 -0.6112
12679TIP3    H159452   2.430   4.238   3.415 -0.1819  2.0003 -1.0880
12679TIP3    H259453   2.362   4.242   3.550 -0.7957  1.1052 -1.3673
12680TIP3   OH259454   2.353   6.096  13.374  0.0762  0.0245  0.3090
12680TIP3    H159455   2.286   6.164  13.373  0.3193  0.2907 -2.0738
12680TIP3    H259456   2.307   6.018  13.404 -0.6299  0.7834  1.3020
12681TIP3   OH259457   3.583   0.500   4.756  0.6780  0.1573 -0.2761
12681TIP3    H159458   3.508   0.524   4.703 -0.4671  0.0280  1.2286
12681TIP3    H259459   3.576   0.555   4.834  3.2982  1.6329 -0.9337
12682TIP3   OH259460   5.637   0.351   4.521  0.1414  0.0030  0.3200
12682TIP3    H159461   5.730   0.328   4.518 -0.0114 -1.3670  3.1339
12682TIP3    H259462   5.602   0.315   4.439  1.7715 -1.0392  0.0155
12683TIP3   OH259463   3.866   3.436   5.291 -0.4861 -0.3542  0.5457
12683TIP3    H159464   3.825   3.355   5.323  2.1889 -1.3885  1.6034
12683TIP3    H259465   3.939   3.451   5.350  1.0598  1.0299 -1.5864
12684TIP3   OH259466   0.258   4.023   1.446 -0.7029 -0.0154  0.7767
12684TIP3    H159467   0.307   3.995   1.368  0.5871  2.2083  0.6942
12684TIP3    H259468   0.238   3.942   1.492 -1.1869 -1.3886 -1.6472
12685TIP3   OH259469   5.186   1.557   2.917  0.5693 -0.3234  0.2879
12685TIP3    H159470   5.261   1.497   2.910  0.6581 -0.3038  0.9555
12685TIP3    H259471   5.164   1.557   3.011 -2.1388 -2.6264 -0.2052
12686TIP3   OH259472   1.754   0.363   2.136 -0.7563  0.2492  0.1328
12686TIP3    H159473   1.762   0.269   2.116 -2.8914 -0.0490  0.4400
12686TIP3    H259474   1.843   0.396   2.131  0.3097 -2.1154  1.5379
12687TIP3   OH259475   0.334   1.117   1.362 -0.2422 -0.5302  0.3483
12687TIP3    H159476   0.318   1.131   1.268 -0.9470  1.9808  0.7472
12687TIP3    H259477   0.420   1.157   1.377 -1.1434  1.2514  1.1135
12688TIP3   OH259478   4.594   6.115  12.952 -0.2189  0.1078  0.0908
12688TIP3    H159479   4.513   6.161  12.975  0.8071  1.1030  1.9440
12688TIP3    H259480   4.609   6.055  13.024  0.9246  0.2531 -0.0164
12689TIP3   OH259481   1.336   1.790   3.070  0.3246  1.0338  0.2468
12689TIP3    H159482   1.253   1.837   3.068  1.0774  2.4591  0.7049
12689TIP3    H259483   1.312   1.698   3.078 -1.2064  1.3605 -0.3245
12690TIP3   OH259484   5.178   5.826  13.565 -0.2336 -0.4507 -0.3916
12690TIP3    H159485   5.186   5.921  13.562 -0.0050 -0.4132  0.8565
12690TIP3    H259486   5.260   5.796  13.604 -0.4844 -1.1277 -0.3648
12691TIP3   OH259487   2.465   6.005  14.005  0.1735 -0.0599 -0.0523
12691TIP3    H159488   2.456   5.915  14.039 -1.4857 -0.6096 -1.7362
12691TIP3    H259489   2.525   5.997  13.931 -0.0251  0.1953 -0.2433
12692TIP3   OH259490   5.790   5.085  13.500 -0.4848 -0.0267  1.0410
12692TIP3    H159491   5.803   5.006  13.448  1.2659  0.6265  0.4524
12692TIP3    H259492   5.699   5.110  13.482 -0.1594 -0.2306 -1.1297
12693TIP3   OH259493   3.955   5.483   2.944  0.1685  0.3821 -0.2133
12693TIP3    H159494   4.029   5.536   2.971  0.9827 -0.4252 -0.7986
12693TIP3    H259495   3.890   5.546   2.912  0.4931  1.1122  0.5297
12694TIP3   OH259496   5.704   1.976  11.326  0.2003  0.0478 -0.0999
12694TIP3    H159497   5.749   1.912  11.380  1.5918  2.3446  1.6303
12694TIP3    H259498   5.768   2.001  11.260  0.4767  1.2286  0.5955
12695TIP3   OH259499   6.698   3.859  12.239  0.0554 -0.7061 -0.6846
12695TIP3    H159500   6.778   3.849  12.290 -0.8222  1.2677  1.2044
12695TIP3    H259501   6.674   3.769  12.214  1.1608 -1.6515  1.4062
12696TIP3   OH259502   6.781   1.373  13.977 -0.1339 -0.0167 -0.1246
12696TIP3    H159503   6.828   1.437  14.031 -0.3288  1.6534 -1.8185
12696TIP3    H259504   6.691   1.404  13.976 -0.3365 -0.6073 -0.5784
12697TIP3   OH259505   3.766   6.586   4.537 -0.0050  0.2034  0.6432
12697TIP3    H159506   3.800   6.591   4.448  0.7867  1.7430  0.9947
12697TIP3    H259507   3.799   6.503   4.570  0.8544  0.2434 -0.0554
12698TIP3   OH259508   4.409   1.874  15.051  0.1805  0.0827  0.0673
12698TIP3    H159509   4.421   1.966  15.076 -1.3289  0.2827  0.1294
12698TIP3    H259510   4.474   1.827  15.103  0.4703  1.0401  0.6059
12699TIP3   OH259511   0.360   5.170   3.894  0.4106  0.1927  0.3023
12699TIP3    H159512   0.344   5.086   3.937  0.2366 -0.8814 -1.7196
12699TIP3    H259513   0.387   5.147   3.805 -0.4747  2.2781 -0.5851
12700TIP3   OH259514   2.376   0.970   2.106  0.5040 -0.7485 -0.3158
12700TIP3    H159515   2.361   1.055   2.146  1.5334  1.7671 -4.5527
12700TIP3    H259516   2.460   0.941   2.141  1.1878  1.1106 -0.3159
12701TIP3   OH259517   0.218   4.465   3.034 -0.0687 -0.2813  0.5682
12701TIP3    H159518   0.198   4.543   2.982 -0.1666 -1.1018 -0.6624
12701TIP3    H259519   0.243   4.399   2.969  0.9388 -0.9968  1.6580
12702TIP3   OH259520   4.968   5.834  16.559 -0.1789  0.0239  0.3000
12702TIP3    H159521   4.987   5.865  16.648  3.1911 -1.8597  0.4259
12702TIP3    H259522   5.018   5.892  16.502 -0.2517 -0.3253 -0.1274
12703TIP3   OH259523   6.001   4.219  12.647 -0.1545 -0.2243 -0.3455
12703TIP3    H159524   6.063   4.147  12.658 -0.0429 -0.2859 -1.2557
12703TIP3    H259525   5.962   4.231  12.733  1.0938 -0.2035  0.2372
12704TIP3   OH259526   4.556   0.925  12.563  0.3237 -0.3454 -0.6499
12704TIP3    H159527   4.620   0.993  12.542  0.3208  0.0093  0.4142
12704TIP3    H259528   4.473   0.960  12.532  0.3448  0.0816 -0.2347
12705TIP3   OH259529   2.978   3.727  13.369 -0.4893 -0.2558 -0.3155
12705TIP3    H159530   2.988   3.756  13.460 -0.8084 -1.4269  0.1207
12705TIP3    H259531   2.888   3.695  13.364 -0.3291 -0.6339 -0.9056
12706TIP3   OH259532   5.083   4.160   1.846 -0.5361 -0.2532 -0.6301
12706TIP3    H159533   5.162   4.171   1.793  0.4630  1.2028  1.0326
12706TIP3    H259534   5.011   4.184   1.788  0.3323 -0.4385 -1.8267
12707TIP3   OH259535   1.257   0.600   0.725 -0.0143 -0.6258 -0.0999
12707TIP3    H159536   1.286   0.602   0.817  0.8764 -1.4965 -0.3481
12707TIP3    H259537   1.302   0.673   0.684  0.2377 -0.7394 -0.0267
12708TIP3   OH259538   3.821   1.317   5.191 -0.2277  0.6803 -0.3990
12708TIP3    H159539   3.758   1.361   5.133 -0.8548  0.5862  0.2030
12708TIP3    H259540   3.867   1.256   5.133 -1.2920  0.1167 -0.6831
12709TIP3   OH259541   2.015   6.284  15.923 -0.2650 -0.1511 -0.4578
12709TIP3    H159542   1.952   6.353  15.946 -0.4087 -0.2377 -0.5861
12709TIP3    H259543   1.968   6.228  15.861 -0.9702 -1.6669  1.3361
12710TIP3   OH259544   4.929   4.083  16.363 -0.0949 -0.2867 -0.0120
12710TIP3    H159545   4.962   4.165  16.325 -3.2693  0.0013 -2.6484
12710TIP3    H259546   4.878   4.111  16.439  1.2827 -0.1853  0.8971
12711TIP3   OH259547   0.028   2.243  16.510 -0.1208  0.0981 -0.1973
12711TIP3    H159548  -0.030   2.175  16.544 -2.1613  0.9817 -1.7488
12711TIP3    H259549   0.020   2.315  16.573 -1.2106  0.4473 -0.7249
12712TIP3   OH259550   3.423   0.909  13.350  0.3186  0.2930 -0.2798
12712TIP3    H159551   3.437   0.837  13.289  1.7004 -1.2888  1.7820
12712TIP3    H259552   3.511   0.936  13.377 -0.1568  2.8470 -1.0202
12713TIP3   OH259553   6.592   0.138  16.349  0.5275 -0.1958 -0.1097
12713TIP3    H159554   6.648   0.088  16.409 -0.1077 -0.1097  0.5556
12713TIP3    H259555   6.563   0.073  16.285 -1.3769 -1.0418  1.5035
12714TIP3   OH259556   3.239   4.885  14.096  0.7351  0.1273 -0.4741
12714TIP3    H159557   3.302   4.816  14.075 -1.3647 -2.3249  0.6981
12714TIP3    H259558   3.214   4.868  14.187 -0.1393  2.2303 -0.2697
12715TIP3   OH259559   1.107   1.466  15.015 -0.0563  0.0594  0.2277
12715TIP3    H159560   1.041   1.481  14.947 -0.5436 -0.1604  0.6460
12715TIP3    H259561   1.064   1.494  15.096 -0.0767 -1.2241  0.6723
12716TIP3   OH259562   2.837   5.815  16.217  0.3670 -0.6114 -0.1348
12716TIP3    H159563   2.747   5.821  16.250  0.0184  0.0414 -1.1480
12716TIP3    H259564   2.829   5.826  16.122  1.7245  2.3726 -0.0404
12717TIP3   OH259565   2.689   1.097   3.176  0.1691 -0.4580  0.5508
12717TIP3    H159566   2.710   1.187   3.198 -0.0851 -0.4187  0.6455
12717TIP3    H259567   2.741   1.077   3.099  0.2503 -0.2410  0.5508
12718TIP3   OH259568   6.510   2.436   6.695  0.4959  0.5729 -0.3187
12718TIP3    H159569   6.436   2.381   6.723  1.2769  0.0995  0.8802
12718TIP3    H259570   6.486   2.524   6.722  1.1896  0.1427  1.8785
12719TIP3   OH259571   5.466   3.561  13.017 -0.1466 -0.2102 -0.7868
12719TIP3    H159572   5.416   3.498  13.069 -1.2827  0.6009 -0.8444
12719TIP3    H259573   5.555   3.525  13.013  0.1569 -0.0249  2.2111
12720TIP3   OH259574   2.642   3.983   4.396  0.0736 -0.6844  0.0426
12720TIP3    H159575   2.675   4.069   4.422  0.9913 -0.4703 -1.6737
12720TIP3    H259576   2.719   3.929   4.386 -0.1228 -0.6354 -2.4388
12721TIP3   OH259577   0.219   6.107  12.230 -0.2044  0.1309  0.2830
12721TIP3    H159578   0.151   6.170  12.253  0.0699  0.3504  0.5046
12721TIP3    H259579   0.244   6.130  12.141 -1.1899 -0.6499 -0.2137
12722TIP3   OH259580   3.281   0.718   2.227  0.2805 -0.8606 -0.1568
12722TIP3    H159581   3.186   0.729   2.227  0.1728 -1.7347 -0.2853
12722TIP3    H259582   3.295   0.635   2.181  1.1508 -0.3533 -0.8419
12723TIP3   OH259583   5.040   4.109  12.034  0.5770  0.1625 -0.2799
12723TIP3    H159584   5.094   4.156  11.971 -1.2810  2.9792  0.0844
12723TIP3    H259585   4.951   4.142  12.021 -0.3391 -1.0458  2.0813
12724TIP3   OH259586   1.846   1.553   2.200 -0.1988 -0.5609 -0.2743
12724TIP3    H159587   1.903   1.585   2.130  0.3504  0.5068  0.6201
12724TIP3    H259588   1.906   1.535   2.273 -0.5364 -3.3182 -0.5821
12725TIP3   OH259589   6.328   0.306   2.074  0.1507  0.7356 -0.7762
12725TIP3    H159590   6.252   0.263   2.113  0.4395  0.7760 -0.1690
12725TIP3    H259591   6.291   0.359   2.003 -0.3376  0.4284 -0.7606
12726TIP3   OH259592   2.466   0.432   1.102 -0.0361  0.3391 -0.5460
12726TIP3    H159593   2.459   0.520   1.063  0.3506  1.1341  1.0866
12726TIP3    H259594   2.389   0.425   1.158  0.5878  0.1572  0.3020
12727TIP3   OH259595   6.155   2.045   5.991  0.5340 -0.4587 -0.2404
12727TIP3    H159596   6.115   1.960   5.971  1.0073 -0.6085 -0.5598
12727TIP3    H259597   6.159   2.048   6.087 -1.4025  0.1007 -0.1295
12728TIP3   OH259598   1.660   6.407   1.146 -0.2330 -0.2587 -0.1921
12728TIP3    H159599   1.710   6.406   1.064  1.5579 -0.0270  0.8321
12728TIP3    H259600   1.603   6.331   1.140  1.7395 -1.7908 -0.5945
12729TIP3   OH259601   3.749   2.032  12.031 -0.1577  0.0665  0.3194
12729TIP3    H159602   3.695   2.037  11.952 -0.8564 -1.3255  0.6658
12729TIP3    H259603   3.830   2.076  12.007 -0.7909  0.6970 -0.7855
12730TIP3   OH259604   4.469   2.128   0.750  0.3360  0.6863  0.2202
12730TIP3    H159605   4.541   2.094   0.804  0.7133  1.1545  0.0137
12730TIP3    H259606   4.466   2.069   0.675 -0.7787 -0.5201  1.1670
12731TIP3   OH259607   5.436   0.504   0.295 -0.2238  0.0302  0.1155
12731TIP3    H159608   5.491   0.474   0.222 -0.4643 -2.5832  0.8929
12731TIP3    H259609   5.412   0.423   0.340 -1.6522  1.4346  1.9808
12732TIP3   OH259610   2.790   5.805   1.022 -0.2894 -0.7004  0.0182
12732TIP3    H159611   2.766   5.773   0.934 -1.2534 -0.6801  0.2599
12732TIP3    H259612   2.873   5.850   1.009 -1.1482  0.6274 -1.1918
12733TIP3   OH259613   1.062   2.518   2.117  0.2313 -0.4611  0.2697
12733TIP3    H159614   1.058   2.489   2.025 -0.0361 -1.5914  0.6169
12733TIP3    H259615   1.062   2.613   2.112  0.2352 -0.5032 -0.9116
12734TIP3   OH259616   1.137   6.569  13.039  0.1289 -0.3898 -0.4234
12734TIP3    H159617   1.226   6.537  13.024  0.6812  0.2873  1.2414
12734TIP3    H259618   1.084   6.489  13.043  1.0497 -0.9741  0.8932
12735TIP3   OH259619   6.700   5.849   4.164  0.3660  0.2216  0.3666
12735TIP3    H159620   6.780   5.901   4.158 -0.5872  1.6080 -1.7152
12735TIP3    H259621   6.630   5.911   4.141 -1.6246 -0.3518  4.1099
12736TIP3   OH259622   2.578   2.269   2.464 -0.4045  0.1834 -0.0295
12736TIP3    H159623   2.665   2.301   2.489  0.3599 -2.1269  0.5448
12736TIP3    H259624   2.520   2.295   2.536  0.6228 -1.4466  1.4815
12737TIP3   OH259625   6.159   1.779  11.506  0.2689 -0.0093 -0.3173
12737TIP3    H159626   6.226   1.847  11.515  1.0840 -0.2996 -3.3083
12737TIP3    H259627   6.176   1.719  11.579  1.0680  1.6880  0.9592
12738TIP3   OH259628   3.843   1.514   4.437  0.1141  0.1032  0.2116
12738TIP3    H159629   3.905   1.479   4.502  1.6716  1.2650 -0.5941
12738TIP3    H259630   3.898   1.555   4.370 -1.5289  1.8195 -0.1877
12739TIP3   OH259631   2.865   6.723   4.002  0.4944 -0.2376 -0.2455
12739TIP3    H159632   2.913   6.688   3.927  0.6198 -3.0682  1.0274
12739TIP3    H259633   2.923   6.791   4.038  3.0030 -2.5183  0.3610
12740TIP3   OH259634   0.150   3.541   2.293 -0.2711 -0.0638 -0.3983
12740TIP3    H159635   0.115   3.630   2.285 -2.0451 -0.7010 -0.1281
12740TIP3    H259636   0.149   3.508   2.203  0.1132  0.0846 -0.4587
12741TIP3   OH259637   0.100   6.205  16.274 -0.5157  0.0133 -0.5003
12741TIP3    H159638   0.088   6.298  16.251  1.4896  0.6329  0.7156
12741TIP3    H259639   0.179   6.179  16.227 -1.5534 -1.4127 -1.5663
12742TIP3   OH259640   1.712   3.109  11.501  0.0681 -0.2681  0.6786
12742TIP3    H159641   1.655   3.064  11.563 -0.8475  1.2805  0.9964
12742TIP3    H259642   1.706   3.058  11.421 -2.0160  0.0000  0.6086
12743TIP3   OH259643   4.692   1.521   1.331 -0.3526  0.3656 -0.1460
12743TIP3    H159644   4.625   1.483   1.388  0.3413 -1.8593 -0.7172
12743TIP3    H259645   4.678   1.479   1.247  2.5310 -1.2158  0.0467
12744TIP3   OH259646   5.865   0.577   2.235  0.1516 -0.4666  0.1040
12744TIP3    H159647   5.843   0.499   2.184 -0.4024 -0.4450  0.3085
12744TIP3    H259648   5.840   0.650   2.180  1.0632 -0.4216 -0.2637
12745TIP3   OH259649   2.809   1.062   4.785  0.0728  0.2206  0.3789
12745TIP3    H159650   2.791   1.151   4.752  0.3079  0.1526  0.0595
12745TIP3    H259651   2.843   1.015   4.709  0.2388 -0.0589  0.6233
12746TIP3   OH259652   3.254   2.651  12.014 -0.6488 -0.3667  0.3452
12746TIP3    H159653   3.267   2.642  12.108  0.0667 -1.7529  0.1429
12746TIP3    H259654   3.336   2.618  11.975 -0.5465  1.0834 -0.7465
12747TIP3   OH259655   3.009   1.984   5.479 -0.3299 -0.0112  0.3637
12747TIP3    H159656   3.049   1.897   5.486  1.9666  0.9922  0.4638
12747TIP3    H259657   3.011   2.019   5.568  0.1067  0.6893  0.0872
12748TIP3   OH259658   6.764   0.337   4.020  0.0108  0.3409 -0.2720
12748TIP3    H159659   6.779   0.317   4.113  0.5229 -0.5079 -0.5241
12748TIP3    H259660   6.826   0.407   4.001  0.2437  0.1901 -0.0832
12749TIP3   OH259661   2.310   3.985  10.688  0.3410  0.2051  0.1699
12749TIP3    H159662   2.385   4.036  10.656 -0.0468 -0.8763 -2.8194
12749TIP3    H259663   2.256   4.048  10.735  1.9899  1.5256  0.3941
12750TIP3   OH259664   5.235   0.683   3.468 -0.6581 -0.0731 -0.3517
12750TIP3    H159665   5.196   0.770   3.470  0.3707  0.3992  1.5985
12750TIP3    H259666   5.286   0.677   3.549  2.0174 -1.2448 -1.9783
12751TIP3   OH259667   5.173   5.496   1.261  0.2786  0.3717  0.7112
12751TIP3    H159668   5.148   5.413   1.303  1.2376 -0.3284 -0.0518
12751TIP3    H259669   5.193   5.554   1.335  0.0642 -0.2313  1.2612
12752TIP3   OH259670   1.132   2.456   3.371 -0.2320  0.0532  0.0147
12752TIP3    H159671   1.216   2.454   3.326 -0.2843  1.6607 -0.2366
12752TIP3    H259672   1.086   2.378   3.341  0.3827  0.2296 -1.4651
12753TIP3   OH259673   4.415   0.851  16.875  0.0475  0.1193 -0.2010
12753TIP3    H159674   4.466   0.788  16.823 -0.5784 -0.2130 -0.4252
12753TIP3    H259675   4.459   0.854  16.960  1.5947  1.2995 -0.9935
12754TIP3   OH259676   3.820   5.918   0.178  0.1746 -0.3868 -0.0110
12754TIP3    H159677   3.814   5.957   0.091 -1.4046 -2.9271 -1.1814
12754TIP3    H259678   3.730   5.895   0.200  0.0127  2.8060  3.7494
12755TIP3   OH259679   6.424   2.700   6.724  0.1119  0.1443 -0.2040
12755TIP3    H159680   6.469   2.783   6.733 -0.9023  1.0155 -2.3914
12755TIP3    H259681   6.371   2.710   6.645 -0.5978 -2.3287 -0.1291
12756TIP3   OH259682   0.036   2.587   6.301  0.4365  0.3796 -0.2667
12756TIP3    H159683   0.114   2.636   6.327  0.3031 -0.2612  1.4361
12756TIP3    H259684  -0.035   2.652   6.303  0.5339  0.4696  0.4407
12757TIP3   OH259685   0.662   2.019   5.183 -0.7935  0.4185 -0.5153
12757TIP3    H159686   0.614   2.005   5.101  1.3054 -2.0022 -1.4644
12757TIP3    H259687   0.733   2.078   5.159 -0.2487 -0.1969 -0.4464
12758TIP3   OH259688   2.981   1.463   5.753  0.7623  0.5404 -0.2386
12758TIP3    H159689   2.990   1.550   5.792  0.0083 -0.0220  1.2598
12758TIP3    H259690   3.045   1.409   5.799  0.9050  0.1808 -0.8408
12759TIP3   OH259691   4.394   1.946  13.766 -0.2799  0.3985  0.2466
12759TIP3    H159692   4.433   1.975  13.684 -0.7401  0.3715  0.0125
12759TIP3    H259693   4.313   1.997  13.773 -0.8486 -0.4545  0.0792
12760TIP3   OH259694   1.439   4.659   5.149 -0.2788 -0.4801 -0.6165
12760TIP3    H159695   1.490   4.600   5.092  1.6681  1.1169 -0.6281
12760TIP3    H259696   1.418   4.734   5.093  1.4804  1.0183  0.6379
12761TIP3   OH259697   6.600   5.765  13.084  0.3797 -0.4764  0.1413
12761TIP3    H159698   6.624   5.748  12.993  0.5474  0.0801  0.0798
12761TIP3    H259699   6.683   5.789  13.127  0.2933 -0.6879  0.4329
12762TIP3   OH259700   1.733   3.701  11.609 -0.2859 -0.4561 -0.3174
12762TIP3    H159701   1.758   3.678  11.520  3.8777 -1.8796  0.9759
12762TIP3    H259702   1.696   3.620  11.645  0.0794 -0.5342 -0.1202
12763TIP3   OH259703   6.577   0.458   4.292  0.5851  0.3633 -0.3350
12763TIP3    H159704   6.614   0.374   4.318 -1.6152 -0.4635  0.3957
12763TIP3    H259705   6.652   0.511   4.265  2.0968 -1.5741 -0.1062
12764TIP3   OH259706   3.694   4.319  12.343  0.2671 -0.1897  0.0217
12764TIP3    H159707   3.608   4.357  12.363 -0.2207 -0.6390 -1.1232
12764TIP3    H259708   3.675   4.250  12.279  1.4633 -0.4432 -0.0836
12765TIP3   OH259709   3.253   3.175   3.701 -0.4995 -0.3490  0.5344
12765TIP3    H159710   3.175   3.175   3.756 -0.8324  1.7530  0.1270
12765TIP3    H259711   3.221   3.152   3.614 -0.5675 -0.0350  0.4775
12766TIP3   OH259712   6.723   0.563   0.858 -0.0877 -0.4209 -0.0252
12766TIP3    H159713   6.740   0.650   0.822  0.0726 -0.2415  0.4828
12766TIP3    H259714   6.794   0.509   0.823  1.1021  0.1406  1.4240
12767TIP3   OH259715   6.739   0.961   3.197  0.2533 -0.2320  0.1289
12767TIP3    H159716   6.691   1.004   3.127  0.4325  0.1812  0.2568
12767TIP3    H259717   6.681   0.967   3.273  0.5099  0.2867  0.2889
12768TIP3   OH259718   4.392   3.225   5.497 -0.0460 -0.3104  0.2730
12768TIP3    H159719   4.301   3.244   5.522  0.1349  3.1366 -1.1787
12768TIP3    H259720   4.387   3.204   5.403  0.5787 -1.1121  0.4071
12769TIP3   OH259721   6.549   4.798  13.807 -0.1781 -0.0045  0.7579
12769TIP3    H159722   6.567   4.883  13.849  0.3432  0.0637  0.4096
12769TIP3    H259723   6.456   4.801  13.787  0.0944  1.1058 -0.5617
12770TIP3   OH259724   4.688   0.916  11.995 -0.1986  0.3706 -0.4995
12770TIP3    H159725   4.699   1.002  12.036  3.1673 -0.1475 -0.0584
12770TIP3    H259726   4.746   0.918  11.919 -1.2796 -1.0183 -1.4209
12771TIP3   OH259727   4.711   0.149   2.899  0.2377 -0.3542  0.2602
12771TIP3    H159728   4.759   0.210   2.844  3.5263  0.1405  3.2934
12771TIP3    H259729   4.770   0.074   2.909 -1.6301 -1.8641  0.5338
12772TIP3   OH259730   1.205   5.436   5.706 -0.3812  0.3721  0.0331
12772TIP3    H159731   1.127   5.473   5.666 -1.7417  0.5486  2.6380
12772TIP3    H259732   1.255   5.511   5.738 -0.2951  0.1900  0.3391
12773TIP3   OH259733   2.410   6.351  12.168  0.8350 -0.1056  0.1726
12773TIP3    H159734   2.335   6.385  12.120  1.1669 -0.9176 -0.9475
12773TIP3    H259735   2.452   6.429  12.206  0.3123  0.4988 -0.4754
12774TIP3   OH259736   1.360   2.072  14.319  0.6495 -0.0731  0.2962
12774TIP3    H159737   1.406   1.991  14.296  1.9454  0.9644 -0.9661
12774TIP3    H259738   1.427   2.127  14.360  0.4201  1.2319 -0.9990
12775TIP3   OH259739   0.101   4.415  14.564  0.5067 -0.1943 -0.0708
12775TIP3    H159740   0.011   4.382  14.563  0.8143 -1.1247  1.1584
12775TIP3    H259741   0.122   4.429  14.471  0.7097 -4.5772 -0.9264
12776TIP3   OH259742   5.274   3.271   5.576 -0.5696  0.5968 -0.0306
12776TIP3    H159743   5.322   3.353   5.585 -1.5342  1.4204 -1.7865
12776TIP3    H259744   5.251   3.246   5.665  0.5140  1.7572  0.5968
12777TIP3   OH259745   4.981   6.471   2.651 -0.1297 -0.4039 -0.4470
12777TIP3    H159746   4.889   6.447   2.644  0.2184 -1.6045 -1.2191
12777TIP3    H259747   5.002   6.512   2.567 -0.0960  0.4134 -0.0508
12778TIP3   OH259748   1.440   3.643   0.586 -0.0034 -0.0564  0.1099
12778TIP3    H159749   1.528   3.605   0.588 -0.6967 -1.8280  2.1038
12778TIP3    H259750   1.426   3.674   0.676 -0.7969  1.8500 -0.6222
12779TIP3   OH259751   6.118   2.290  15.758 -0.1497  0.0967 -0.7079
12779TIP3    H159752   6.047   2.342  15.719 -2.4313  0.1682  3.0545
12779TIP3    H259753   6.074   2.214  15.796  1.8837 -0.2150  1.2061
12780TIP3   OH259754   3.408   6.764   0.602 -0.7906 -0.1410  0.1669
12780TIP3    H159755   3.352   6.798   0.672 -2.7927 -1.2313 -0.8196
12780TIP3    H259756   3.370   6.799   0.522  1.9694  1.7842 -0.4264
12781TIP3   OH259757   4.587   4.538   2.773 -0.2136  0.4057  0.6458
12781TIP3    H159758   4.631   4.454   2.759 -0.6662  0.3304 -0.3772
12781TIP3    H259759   4.533   4.551   2.695  0.6119  2.1320  0.3051
12782TIP3   OH259760   6.338   1.236  14.815  0.0659  0.5322  0.2753
12782TIP3    H159761   6.319   1.282  14.897 -5.6242  0.9932 -0.8792
12782TIP3    H259762   6.322   1.301  14.747  1.0649 -0.7752 -1.2686
12783TIP3   OH259763   1.079   3.741  17.050 -0.4255 -0.1672  0.4044
12783TIP3    H159764   1.044   3.826  17.076  0.2179 -0.0288  0.8503
12783TIP3    H259765   1.082   3.745  16.954  0.5601  0.7297  0.4449
12784TIP3   OH259766   6.132   0.022   1.570 -0.0406  0.6509  0.0799
12784TIP3    H159767   6.110   0.030   1.478  0.3955 -3.0584 -0.5073
12784TIP3    H259768   6.203  -0.042   1.572 -0.6369 -0.0727  3.0454
12785TIP3   OH259769   2.039   0.961   1.371  0.1961  0.0232  0.4525
12785TIP3    H159770   2.097   1.037   1.373  0.9369 -0.4936 -0.6084
12785TIP3    H259771   1.955   0.996   1.339  0.5731  0.3812 -0.1698
12786TIP3   OH259772   1.134   0.086  11.796  0.2873  0.5425 -0.1716
12786TIP3    H159773   1.088   0.118  11.873  1.3908  0.2767  0.6238
12786TIP3    H259774   1.125   0.156  11.731  0.6500  1.4383  0.7234
12787TIP3   OH259775   2.104   1.490   5.243  0.1107  0.4600  0.2376
12787TIP3    H159776   2.092   1.480   5.337  1.6689  1.1419  0.5515
12787TIP3    H259777   2.039   1.556   5.218 -1.2572 -0.7176  0.5449
12788TIP3   OH259778   3.778   4.965   0.592  0.4207  0.2160  0.0418
12788TIP3    H159779   3.719   4.986   0.665 -0.1688  2.7498 -1.0848
12788TIP3    H259780   3.728   4.903   0.538  0.4339 -0.8074  1.1450
12789TIP3   OH259781   1.699   0.833   6.156  0.0228 -0.0207 -0.0432
12789TIP3    H159782   1.714   0.738   6.158 -0.6460 -0.1267  1.0440
12789TIP3    H259783   1.773   0.868   6.106 -0.1060 -1.1704 -1.0894
12790TIP3   OH259784   4.317   5.658  17.150  0.3191 -0.1130  0.0983
12790TIP3    H159785   4.318   5.611  17.233  0.0613 -0.1125  0.1042
12790TIP3    H259786   4.343   5.593  17.085  0.1004 -0.2270  0.1244
12791TIP3   OH259787   3.213   4.332  15.773 -0.2936 -0.4693  0.0219
12791TIP3    H159788   3.119   4.350  15.776 -0.3811 -0.9908  0.8175
12791TIP3    H259789   3.221   4.258  15.713 -0.2525  0.3444 -0.9862
12792TIP3   OH259790   5.113   3.139  11.355 -0.1579 -0.0641  0.2603
12792TIP3    H159791   5.156   3.139  11.441 -0.1444 -3.6278  0.3774
12792TIP3    H259792   5.020   3.126  11.374 -1.0059  3.9272 -0.1953
12793TIP3   OH259793   2.222   2.850  16.723 -0.1939 -0.0951  0.7828
12793TIP3    H159794   2.205   2.790  16.650  0.4717  1.0357 -0.3535
12793TIP3    H259795   2.189   2.935  16.692  1.4129  0.7221  1.2002
12794TIP3   OH259796   1.388   6.536  17.129 -0.2566 -0.1234 -0.2622
12794TIP3    H159797   1.371   6.465  17.190 -1.1919  0.7704  0.5425
12794TIP3    H259798   1.303   6.558  17.093 -0.4098  2.2194  1.3593
12795TIP3   OH259799   2.039   6.497   5.746 -0.5907  0.7366  0.2023
12795TIP3    H159800   2.048   6.415   5.795 -0.7977 -0.4482 -1.6088
12795TIP3    H259801   2.071   6.475   5.658 -0.9676  2.5173 -0.4141
12796TIP3   OH259802   1.089   2.426  10.613  0.6720  0.3466 -0.1689
12796TIP3    H159803   1.177   2.389  10.620  0.6296 -0.2421 -2.0447
12796TIP3    H259804   1.031   2.349  10.608  0.1653  0.7194 -0.1001
12797TIP3   OH259805   2.124   3.137   6.223  0.2693 -0.1885  0.6455
12797TIP3    H159806   2.046   3.147   6.277 -0.5951 -0.9063 -0.4199
12797TIP3    H259807   2.102   3.180   6.140  1.1851  0.0263  0.4965
12798TIP3   OH259808   2.732   2.525  12.337 -0.5438  0.0500 -0.0292
12798TIP3    H159809   2.699   2.497  12.423  1.8278 -1.2315  0.5367
12798TIP3    H259810   2.787   2.601  12.356 -0.6066  0.2234 -0.5328
12799TIP3   OH259811   3.182   2.721  15.260 -0.1083 -0.2305  0.4228
12799TIP3    H159812   3.186   2.808  15.221  0.1773 -0.1840  0.5586
12799TIP3    H259813   3.243   2.668  15.209 -0.4337 -0.4050  0.2087
12800TIP3   OH259814   4.835   5.472   0.698  0.0630 -0.2813  0.0224
12800TIP3    H159815   4.868   5.562   0.693  0.0758 -0.1575  1.8531
12800TIP3    H259816   4.747   5.476   0.661 -0.1888  0.6224  0.7026
12801TIP3   OH259817   0.756   3.488  12.831 -0.0005  0.3456 -0.2358
12801TIP3    H159818   0.702   3.409  12.839  2.0014 -1.3016 -1.6870
12801TIP3    H259819   0.771   3.516  12.921 -1.5688 -0.3386  0.2663
12802TIP3   OH259820   2.997   0.728   4.125  0.0302  0.4939 -0.1082
12802TIP3    H159821   3.026   0.674   4.051  2.7667  1.1283  0.3951
12802TIP3    H259822   3.024   0.679   4.202 -1.0339  0.7592  0.4459
12803TIP3   OH259823   1.967   0.922   4.619  0.8118 -0.2057 -0.8786
12803TIP3    H159824   2.019   0.963   4.550  0.6979  1.2385 -0.1497
12803TIP3    H259825   1.989   0.973   4.698 -0.3612 -0.7159 -0.2085
12804TIP3   OH259826   6.456   2.753   5.850  0.3714  0.2687  0.1647
12804TIP3    H159827   6.456   2.810   5.773 -0.4905 -0.4755 -0.3946
12804TIP3    H259828   6.449   2.664   5.815 -0.7845 -0.0393  1.1166
12805TIP3   OH259829   1.033   3.099   0.082 -0.5138 -0.6051 -0.2436
12805TIP3    H159830   0.942   3.128   0.094 -1.5585 -3.0064 -1.6157
12805TIP3    H259831   1.063   3.144   0.004 -0.4262  0.3520  0.3271
12806TIP3   OH259832   0.259   0.551   1.689  0.2293 -0.1309  0.6818
12806TIP3    H159833   0.210   0.548   1.771  1.5343 -0.0555  1.5075
12806TIP3    H259834   0.300   0.638   1.689  0.5110 -0.2585  0.1220
12807TIP3   OH259835   6.102   2.647  11.256  0.0401 -0.0446  0.5859
12807TIP3    H159836   6.093   2.682  11.345  0.8859 -1.3973  1.2451
12807TIP3    H259837   6.125   2.555  11.269 -3.7068 -1.4266 -1.0230
12808TIP3   OH259838   6.166   5.783  13.005  0.1224  0.2378  0.1232
12808TIP3    H159839   6.098   5.850  13.011 -0.4602 -0.3828  0.5760
12808TIP3    H259840   6.226   5.803  13.077  1.9110  2.3559 -1.7861
12809TIP3   OH259841   2.004   6.492   2.516  0.0527  0.4635 -0.5271
12809TIP3    H159842   2.023   6.412   2.565  1.2406  0.5666 -0.7804
12809TIP3    H259843   1.911   6.486   2.496 -0.4220  0.2886  1.4867
12810TIP3   OH259844   0.793   5.898  16.338  0.2863  0.3981 -0.3045
12810TIP3    H159845   0.719   5.895  16.277  0.2831 -0.3423 -0.2790
12810TIP3    H259846   0.864   5.940  16.288 -0.0198  0.7165 -0.4718
12811TIP3   OH259847   1.736   2.761   2.226  0.1025 -0.3329 -0.0413
12811TIP3    H159848   1.805   2.822   2.253  1.1448 -2.1865  1.8492
12811TIP3    H259849   1.661   2.787   2.279  0.4056 -0.3980  0.4313
12812TIP3   OH259850   3.254   3.625  12.422  0.0113  0.3329  0.7472
12812TIP3    H159851   3.343   3.589  12.418 -0.2024 -0.0887 -1.0246
12812TIP3    H259852   3.218   3.590  12.504  0.8681 -0.9957  0.5887
12813TIP3   OH259853   4.179   2.288   5.251 -0.0790 -0.2239  0.0717
12813TIP3    H159854   4.140   2.373   5.231  0.7867 -0.0224 -0.8627
12813TIP3    H259855   4.237   2.304   5.325  2.6804  0.8317 -2.1264
12814TIP3   OH259856   2.153   1.052   5.187 -0.1286  0.2661 -0.1885
12814TIP3    H159857   2.217   1.047   5.258  2.4574  2.4211 -2.1576
12814TIP3    H259858   2.153   0.965   5.148 -1.7725 -1.0393  2.4113
12815TIP3   OH259859   0.193   4.862  11.957  0.2866  0.7338 -0.2993
12815TIP3    H159860   0.097   4.861  11.951  0.2992  0.1639 -0.5193
12815TIP3    H259861   0.211   4.869  12.050 -0.0034 -1.4526 -0.0185
12816TIP3   OH259862   4.885   4.104   4.944  0.0137  0.1948 -0.0239
12816TIP3    H159863   4.953   4.092   5.011  0.0816 -0.7413 -0.2620
12816TIP3    H259864   4.915   4.180   4.894  1.6359 -1.0722 -1.0400
12817TIP3   OH259865   3.408   4.452  11.839 -0.0371  0.0382 -0.1077
12817TIP3    H159866   3.472   4.446  11.910 -0.5149 -0.0853  0.3162
12817TIP3    H259867   3.447   4.401  11.768  0.5946  0.4369 -0.0559
12818TIP3   OH259868   6.618   0.637   1.699 -0.6349 -0.2256 -0.6582
12818TIP3    H159869   6.631   0.678   1.614  0.7055 -1.7256 -1.2355
12818TIP3    H259870   6.524   0.618   1.703 -0.5212 -1.3464 -2.4261
12819TIP3   OH259871   5.335   5.998   1.407  0.1932  0.3650  0.4938
12819TIP3    H159872   5.341   6.082   1.452 -0.8772  1.1019 -0.6571
12819TIP3    H259873   5.260   6.008   1.348  0.4688 -1.1601 -0.1659
12820TIP3   OH259874   5.676   4.493   2.392  0.4033  0.0274 -0.1220
12820TIP3    H159875   5.723   4.545   2.457  2.6095 -0.6696 -1.0531
12820TIP3    H259876   5.659   4.409   2.435 -0.3680  0.4095  0.3424
12821TIP3   OH259877   0.320   3.712  14.239 -0.5580 -0.6814  0.2441
12821TIP3    H159878   0.263   3.789  14.238 -1.3556 -1.2502  1.0079
12821TIP3    H259879   0.363   3.713  14.153 -0.3702  0.7404  0.3287
12822TIP3   OH259880   2.154   5.055   1.435  0.3176  0.0105 -0.0734
12822TIP3    H159881   2.249   5.044   1.437  0.3290  0.1871  0.5679
12822TIP3    H259882   2.131   5.089   1.522 -0.1307  1.5682 -0.7627
12823TIP3   OH259883   5.064   4.811  12.172 -0.0253 -0.1479  0.1038
12823TIP3    H159884   5.080   4.796  12.266  1.2588 -0.5326 -0.1632
12823TIP3    H259885   5.110   4.893  12.153 -1.7638  0.8843  0.1731
12824TIP3   OH259886   5.798   0.266   2.022  0.0826 -0.0355 -0.3949
12824TIP3    H159887   5.838   0.179   2.023  0.4707  0.1372 -0.5664
12824TIP3    H259888   5.770   0.281   2.112  0.2595 -0.2272 -0.3064
12825TIP3   OH259889   2.943   2.496   3.272  0.0307  0.0368 -1.0274
12825TIP3    H159890   3.032   2.509   3.238 -0.1881 -0.6283 -1.8827
12825TIP3    H259891   2.957   2.464   3.361  0.6903 -1.1188 -1.5169
12826TIP3   OH259892   3.804   3.960  17.091  0.9596 -0.1560 -0.4586
12826TIP3    H159893   3.746   3.971  17.016 -2.3552 -1.4178  1.6801
12826TIP3    H259894   3.795   4.041  17.141  1.3565 -0.1966 -0.3194
12827TIP3   OH259895   5.182   3.969  12.544 -0.2095  0.5628 -0.6015
12827TIP3    H159896   5.118   3.972  12.473 -0.0938 -0.4658 -0.7600
12827TIP3    H259897   5.238   4.046  12.529 -0.7705  0.8915 -1.0555
12828TIP3   OH259898   4.494   3.030   4.612  0.3094  0.1803  0.2076
12828TIP3    H159899   4.563   3.058   4.671  0.4085 -1.0939  0.7250
12828TIP3    H259900   4.538   3.015   4.528  0.4798  0.3519  0.2665
12829TIP3   OH259901   6.615   5.276  11.898 -0.2180  0.1266 -0.0905
12829TIP3    H159902   6.618   5.191  11.854 -1.3882 -0.2164  0.4558
12829TIP3    H259903   6.622   5.255  11.991  0.0588  0.6761  0.0153
12830TIP3   OH259904   4.497   3.402  17.172 -0.2484 -0.3905  0.7625
12830TIP3    H159905   4.459   3.457  17.241 -0.3621 -0.9035  1.1121
12830TIP3    H259906   4.583   3.377  17.206 -0.0251 -0.0912  0.4231
12831TIP3   OH259907   0.303   5.354   2.332  0.2850  0.5570  0.2116
12831TIP3    H159908   0.304   5.260   2.352  0.0643  0.8540  1.7740
12831TIP3    H259909   0.354   5.362   2.252  0.7302 -0.8470  0.3237
12832TIP3   OH259910   3.192   2.112   4.761 -0.4148  0.3571  0.2217
12832TIP3    H159911   3.156   2.106   4.673 -1.7123  0.0405  0.7429
12832TIP3    H259912   3.146   2.186   4.800  0.5297  0.8214  0.4695
12833TIP3   OH259913   3.569   3.597   5.305 -0.1621 -0.2528 -0.1533
12833TIP3    H159914   3.519   3.621   5.227 -3.6362 -3.0299  0.9260
12833TIP3    H259915   3.586   3.680   5.349 -2.7087  1.0265 -1.3543
12834TIP3   OH259916   3.704   0.523   0.779  0.0303  0.0813  0.0725
12834TIP3    H159917   3.640   0.508   0.848  0.1178 -0.4955  0.0370
12834TIP3    H259918   3.652   0.536   0.700 -0.0771  0.9634  0.2783
12835TIP3   OH259919   1.242   1.901  16.330  0.4600 -0.3190  0.2813
12835TIP3    H159920   1.308   1.832  16.340 -0.4588 -1.3094 -0.2911
12835TIP3    H259921   1.163   1.855  16.302 -1.1933  0.5170  3.2206
12836TIP3   OH259922   5.533   6.780   2.377 -0.5881 -0.3859  0.1994
12836TIP3    H159923   5.451   6.732   2.390  0.0520 -1.6006 -0.1067
12836TIP3    H259924   5.530   6.807   2.285 -0.9830  0.2161  0.3913
12837TIP3   OH259925   1.632   0.589   1.996  0.3523 -0.2116  0.0668
12837TIP3    H159926   1.585   0.635   2.065 -0.4348 -1.5494  0.4529
12837TIP3    H259927   1.685   0.524   2.042  1.5744  0.3661 -0.4554
12838TIP3   OH259928   3.304   3.155  10.800 -0.2899 -0.0088  0.0969
12838TIP3    H159929   3.231   3.196  10.753 -0.6214 -1.4084 -0.6645
12838TIP3    H259930   3.264   3.085  10.852  0.3050  0.3550  1.0704
12839TIP3   OH259931   4.003   0.431  12.581  0.5482  0.2631 -0.1002
12839TIP3    H159932   4.089   0.394  12.563  0.2690 -0.6992  0.4544
12839TIP3    H259933   3.961   0.435  12.495  1.0991  0.6232 -0.3572
12840TIP3   OH259934   1.981   0.265   0.230  0.1256 -0.0704 -0.3430
12840TIP3    H159935   2.058   0.208   0.235 -0.2299 -0.5230  0.1364
12840TIP3    H259936   1.914   0.218   0.279  0.3100  1.5378  1.6058
12841TIP3   OH259937   0.616   6.704  14.854 -0.2024  0.0245 -0.8072
12841TIP3    H159938   0.621   6.793  14.891  0.6246 -0.6009  0.6849
12841TIP3    H259939   0.583   6.717  14.765  1.4984  1.9908 -1.2310
12842TIP3   OH259940   5.159   5.725   1.046  0.2411 -0.1846  0.4375
12842TIP3    H159941   5.127   5.746   0.958  1.3674  0.5187  0.1720
12842TIP3    H259942   5.108   5.649   1.072 -0.4607 -0.1107 -0.6277
12843TIP3   OH259943   6.565   4.104  12.258 -0.3499 -0.2799 -0.5445
12843TIP3    H159944   6.513   4.096  12.338 -0.1885  1.1632 -0.2697
12843TIP3    H259945   6.619   4.024  12.256  1.0181  0.5001  1.8027
12844TIP3   OH259946   4.664   6.537   6.226 -0.3658  0.1928 -0.4852
12844TIP3    H159947   4.655   6.630   6.247 -0.4782 -0.2242  1.4965
12844TIP3    H259948   4.621   6.491   6.297  1.3408 -1.4284 -0.3933
12845TIP3   OH259949   4.913   2.565   4.755 -0.0516  0.2121 -0.0238
12845TIP3    H159950   4.933   2.646   4.801 -0.5705  0.8678 -0.9078
12845TIP3    H259951   4.883   2.505   4.824 -1.2319  1.3011  0.4646
12846TIP3   OH259952   4.455   4.445  10.954  0.2056  0.1205  0.2204
12846TIP3    H159953   4.506   4.434  10.874  0.5417  0.1840  0.4263
12846TIP3    H259954   4.519   4.441  11.024 -0.0302  0.5610  0.4608
12847TIP3   OH259955   2.079   0.782   5.304  0.3127 -0.2582 -0.5848
12847TIP3    H159956   2.012   0.828   5.252  1.7193  0.6945 -1.6351
12847TIP3    H259957   2.059   0.689   5.290 -2.4940 -0.1042  1.4520
12848TIP3   OH259958   3.573   1.881  14.880 -0.1683 -0.4732  0.2770
12848TIP3    H159959   3.667   1.863  14.886  0.4180  1.4295 -1.8200
12848TIP3    H259960   3.568   1.973  14.854 -2.6600 -0.2556  1.3023
12849TIP3   OH259961   0.576   4.586   2.965 -0.1267 -0.5578 -0.6105
12849TIP3    H159962   0.520   4.624   2.897  0.9721  0.3011 -1.0695
12849TIP3    H259963   0.577   4.492   2.945 -0.0362 -0.3533 -1.6222
12850TIP3   OH259964   1.773   4.788   0.389 -0.2626 -0.7552  0.5966
12850TIP3    H159965   1.731   4.793   0.303  2.3992  1.2147 -0.7174
12850TIP3    H259966   1.780   4.694   0.407  1.7191 -1.3942 -2.7885
12851TIP3   OH259967   6.517   5.503  11.400 -1.1142 -0.1935  0.4430
12851TIP3    H159968   6.428   5.535  11.416 -0.6442  0.6950  1.4019
12851TIP3    H259969   6.561   5.510  11.485  0.2910  0.7175 -0.3216
12852TIP3   OH259970   5.907   5.801  13.985 -0.2393  1.0611  0.4138
12852TIP3    H159971   5.849   5.876  13.970  0.3604  1.7000  1.1912
12852TIP3    H259972   5.906   5.789  14.080 -0.5340 -0.0921  0.2733
12853TIP3   OH259973   3.651   2.310   4.344 -0.1273  0.2968 -0.1763
12853TIP3    H159974   3.595   2.301   4.422 -1.3244  1.3162 -0.8784
12853TIP3    H259975   3.596   2.356   4.280  0.7906 -0.5884 -1.6690
12854TIP3   OH259976   2.307   3.675   5.807 -0.1593  0.0778  0.3686
12854TIP3    H159977   2.342   3.749   5.857  0.5446  0.8487 -1.1883
12854TIP3    H259978   2.232   3.710   5.760 -1.0914 -0.7540  1.1785
12855TIP3   OH259979   2.525   4.729  16.428 -0.2859  0.0111  0.2658
12855TIP3    H159980   2.464   4.798  16.402  2.6634  1.9747 -2.0647
12855TIP3    H259981   2.563   4.699  16.345  2.5881 -0.3940  1.6391
12856TIP3   OH259982   5.449   0.148   4.610  0.4615 -0.3202  0.2392
12856TIP3    H159983   5.476   0.239   4.601 -0.0600 -0.1491  0.3714
12856TIP3    H259984   5.380   0.150   4.676  0.6783 -0.8564  0.4836
12857TIP3   OH259985   3.508   3.205  15.138  0.3188 -0.0971 -0.2907
12857TIP3    H159986   3.437   3.205  15.202  0.8176  0.3340  0.2744
12857TIP3    H259987   3.484   3.274  15.076  0.0227 -0.2549 -0.3532
12858TIP3   OH259988   1.682   2.681  15.668  0.0304  0.1185  0.0153
12858TIP3    H159989   1.611   2.627  15.700  0.7515  0.1335  1.7321
12858TIP3    H259990   1.760   2.626  15.676  0.6619  1.1211  1.0518
12859TIP3   OH259991   3.820   4.333  11.517 -0.4813  0.0724  0.0467
12859TIP3    H159992   3.868   4.401  11.565  0.6648 -0.7111  0.0773
12859TIP3    H259993   3.824   4.361  11.426 -0.7187  0.4500  0.1505
12860TIP3   OH259994   3.390   4.583  13.578 -0.2563 -0.2823 -0.7002
12860TIP3    H159995   3.432   4.667  13.593 -1.1524  0.4859 -2.2052
12860TIP3    H259996   3.459   4.527  13.543  0.2256 -0.0034 -0.1947
12861TIP3   OH259997   1.436   4.640  16.672  0.1189  0.0523  0.6305
12861TIP3    H159998   1.378   4.640  16.748 -0.4442  0.9474  0.2091
12861TIP3    H259999   1.462   4.548  16.661 -1.4618 -0.4139  0.6333
12862TIP3   OH260000   3.164   2.006  10.908  0.2181  1.0256  0.1465
12862TIP3    H160001   3.166   2.010  10.813 -0.6828 -0.8628 -0.0068
12862TIP3    H260002   3.080   2.043  10.933  0.2050  0.9914  0.1545
12863TIP3   OH260003   3.358   5.454  15.785 -0.1061 -0.2149  0.4295
12863TIP3    H160004   3.451   5.470  15.805 -0.0528 -0.9385  0.7798
12863TIP3    H260005   3.347   5.360  15.795 -0.3885 -0.4590 -1.7473
12864TIP3   OH260006   0.810   5.230   5.765  0.4655  0.3044 -0.0371
12864TIP3    H160007   0.888   5.179   5.785  1.4488  0.8222 -2.2355
12864TIP3    H260008   0.802   5.291   5.838  0.6175 -1.4013  1.4658
12865TIP3   OH260009   1.149   5.296  16.587 -0.2161 -0.2263  0.5135
12865TIP3    H160010   1.153   5.229  16.518 -0.7176  0.1994  0.0681
12865TIP3    H260011   1.182   5.375  16.546  2.5201 -0.6544  1.6621
12866TIP3   OH260012   3.235   1.993  15.116 -0.2911  0.0092  0.5299
12866TIP3    H160013   3.188   1.935  15.057 -0.7906  0.7346  0.2009
12866TIP3    H260014   3.325   1.960  15.116 -0.4113 -0.3328 -0.2024
12867TIP3   OH260015   3.579   4.594  13.854 -0.0826 -0.0554 -0.4578
12867TIP3    H160016   3.498   4.573  13.900  0.9356 -1.6845  0.7310
12867TIP3    H260017   3.553   4.657  13.786 -1.7264  2.2229  2.0837
12868TIP3   OH260018   3.240   5.322   6.770  0.0417  0.1289 -0.1323
12868TIP3    H160019   3.299   5.247   6.782 -1.1837 -0.8845 -0.2806
12868TIP3    H260020   3.196   5.304   6.687 -1.5282  0.1227  0.6641
12869TIP3   OH260021   0.028   6.230   1.882 -0.5833 -0.1286  0.4985
12869TIP3    H160022   0.073   6.168   1.939 -0.8268  1.9440  3.1667
12869TIP3    H260023  -0.046   6.261   1.935 -0.1193  2.8214 -0.4244
12870TIP3   OH260024   2.182   5.595  16.874  0.2272  0.2598  0.3308
12870TIP3    H160025   2.204   5.539  16.949  2.2449  0.9196  0.3012
12870TIP3    H260026   2.187   5.536  16.798 -1.5379 -0.3446  0.6259
12871TIP3   OH260027   2.782   5.251  15.738  0.2828  0.4618 -0.0694
12871TIP3    H160028   2.731   5.183  15.782  0.3364  0.7060  0.3770
12871TIP3    H260029   2.723   5.285  15.670  0.0684  0.3345  0.0499
12872TIP3   OH260030   1.222   2.580  16.280 -0.6530 -0.2635  0.2455
12872TIP3    H160031   1.156   2.614  16.340 -2.2945 -0.4106 -1.3749
12872TIP3    H260032   1.172   2.528  16.217  0.8550  0.6418 -1.7913
12873TIP3   OH260033   3.466   5.970   0.790 -0.3118  0.4405 -0.2256
12873TIP3    H160034   3.430   5.961   0.878 -1.0212  0.1286 -0.5359
12873TIP3    H260035   3.454   5.884   0.750  0.0383  0.5662 -0.6143
12874TIP3   OH260036   2.798   4.951   5.783  0.3727 -0.1727 -0.7187
12874TIP3    H160037   2.879   4.920   5.824  0.2344 -2.3868 -1.9614
12874TIP3    H260038   2.728   4.917   5.839  0.1571  3.1200  1.3139
12875TIP3   OH260039   5.575   5.161   5.334  0.5907  0.1353  0.2294
12875TIP3    H160040   5.496   5.149   5.282 -0.9639  0.0780  2.4791
12875TIP3    H260041   5.594   5.255   5.328  0.3882  0.1439 -0.3399
12876TIP3   OH260042   5.992   0.225   2.884 -0.6077 -0.0684 -0.0329
12876TIP3    H160043   5.902   0.194   2.877 -0.7939  0.2797  0.7732
12876TIP3    H260044   6.038   0.180   2.813 -1.6101  0.4782 -1.0589
12877TIP3   OH260045   5.049   0.505  13.962 -0.4310 -0.1872 -0.7066
12877TIP3    H160046   4.982   0.438  13.973  0.2134 -1.6340 -4.2208
12877TIP3    H260047   5.132   0.457  13.961  0.2230  0.9066 -1.3247
12878TIP3   OH260048   5.391   4.900  12.404  0.3787 -0.4228  0.0449
12878TIP3    H160049   5.408   4.969  12.469 -1.2558  0.2658 -0.1888
12878TIP3    H260050   5.464   4.905  12.343  1.2080 -0.1224  1.0266
12879TIP3   OH260051   3.924   4.722  10.728  0.3872  0.6058 -0.8594
12879TIP3    H160052   3.910   4.815  10.711 -1.2913  1.0924  2.3535
12879TIP3    H260053   3.839   4.681  10.711  0.2288  0.2376  0.6669
12880TIP3   OH260054   4.829   3.669   3.113  0.6594 -0.7957 -0.7307
12880TIP3    H160055   4.758   3.663   3.177  2.2164 -0.7820  1.0926
12880TIP3    H260056   4.890   3.600   3.138  2.6470  0.9700 -0.4511
12881TIP3   OH260057   0.022   5.528  15.655 -0.0478 -0.0026  0.0129
12881TIP3    H160058   0.027   5.433  15.661 -1.1656 -0.0090  1.8112
12881TIP3    H260059   0.112   5.557  15.646  0.2260 -1.2604 -1.6597
12882TIP3   OH260060   6.234   6.767   5.867  0.0476 -0.2704 -0.8435
12882TIP3    H160061   6.187   6.767   5.784  0.4029 -0.4949 -1.0509
12882TIP3    H260062   6.202   6.691   5.914 -0.1721 -0.1289 -0.7647
12883TIP3   OH260063   1.045   4.940  12.590  0.2998 -0.2784  0.4383
12883TIP3    H160064   1.084   5.007  12.646  0.7835  0.3173 -0.5658
12883TIP3    H260065   1.118   4.882  12.568  0.0707 -0.6277  0.6001
12884TIP3   OH260066   0.150   0.871  11.624  0.8118  0.5235  0.4674
12884TIP3    H160067   0.229   0.823  11.600  0.3488 -1.3876  2.4942
12884TIP3    H260068   0.180   0.938  11.686  0.8018 -0.5636  1.6717
12885TIP3   OH260069   6.282   4.189  13.821 -0.2796  0.1024  0.3372
12885TIP3    H160070   6.231   4.270  13.824 -0.5997 -0.1121  0.6843
12885TIP3    H260071   6.241   4.132  13.886 -0.2824 -0.4760 -0.1593
12886TIP3   OH260072   3.142   0.321  14.867  0.2130 -0.0760  0.1183
12886TIP3    H160073   3.059   0.291  14.831  0.7278 -3.4114  1.3547
12886TIP3    H260074   3.189   0.358  14.793 -1.2381 -0.8251 -1.2334
12887TIP3   OH260075   0.356   0.424   3.989 -0.2097 -0.2828 -0.2532
12887TIP3    H160076   0.363   0.360   4.060  0.1086 -0.3320 -0.3271
12887TIP3    H260077   0.270   0.464   4.001 -0.8167 -1.3823 -0.7547
12888TIP3   OH260078   0.525   4.509   4.991 -0.3517 -0.1034  0.3110
12888TIP3    H160079   0.549   4.602   4.989 -1.9067  0.3367  0.9935
12888TIP3    H260080   0.465   4.501   5.065  0.7063 -1.9187  1.0626
12889TIP3   OH260081   1.889   3.492   0.992 -0.3761 -0.1990  0.3977
12889TIP3    H160082   1.838   3.416   0.964  0.6622  0.0762 -2.4856
12889TIP3    H260083   1.979   3.462   0.991  0.0172  0.9559 -0.3906
12890TIP3   OH260084   5.215   5.247  16.298 -0.3642  0.5518 -0.4089
12890TIP3    H160085   5.138   5.219  16.248 -0.6883 -0.3224  0.5472
12890TIP3    H260086   5.179   5.291  16.375  0.0168 -1.0008  0.7141
12891TIP3   OH260087   0.386   2.894  16.143 -0.3166  0.2344  0.4781
12891TIP3    H160088   0.468   2.869  16.186 -0.6099 -0.5006  0.6394
12891TIP3    H260089   0.319   2.878  16.210 -0.8580 -1.5045 -0.4007
12892TIP3   OH260090   4.915   6.478   2.047  0.8841 -0.2090  0.2162
12892TIP3    H160091   5.006   6.450   2.050  1.0337  0.2533  0.1526
12892TIP3    H260092   4.891   6.471   1.955  0.8946 -0.2181  0.2139
12893TIP3   OH260093   0.527   4.332   0.299 -0.8333 -0.0256  0.5147
12893TIP3    H160094   0.593   4.284   0.348 -0.6149  0.4460  0.6862
12893TIP3    H260095   0.474   4.264   0.258  0.5057 -0.4232 -0.6509
12894TIP3   OH260096   0.013   1.711  10.720 -0.0949 -0.3003 -0.1392
12894TIP3    H160097  -0.066   1.705  10.667 -0.0617  3.0810 -0.7920
12894TIP3    H260098   0.070   1.771  10.672  1.0592  0.7416  2.3441
12895TIP3   OH260099   4.868   2.095   5.299 -0.2088  0.4516 -0.0437
12895TIP3    H160100   4.849   2.013   5.345 -1.6399 -0.0082 -1.3598
12895TIP3    H260101   4.890   2.156   5.369  0.2489 -0.8721  1.0280
12896TIP3   OH260102   4.579   4.891   0.606 -0.0377  0.2501 -0.9123
12896TIP3    H160103   4.566   4.905   0.512  0.0471 -0.4212 -1.0287
12896TIP3    H260104   4.609   4.976   0.639  0.2713  0.3975 -1.5564
12897TIP3   OH260105   1.282   4.484   0.693  0.2268  0.3273  0.2770
12897TIP3    H160106   1.332   4.541   0.750  0.2834  0.7670 -0.2032
12897TIP3    H260107   1.344   4.454   0.627 -0.0260  0.4777 -0.0325
12898TIP3   OH260108   2.101   2.483   6.302 -0.2226 -0.7056  0.1032
12898TIP3    H160109   2.063   2.439   6.225 -1.1041 -1.0071  0.6906
12898TIP3    H260110   2.028   2.532   6.340  0.9109  1.9721 -0.9692
12899TIP3   OH260111   2.469   4.397  11.232  0.1720 -0.4730 -0.2205
12899TIP3    H160112   2.541   4.461  11.227 -0.6181  0.3776 -1.2705
12899TIP3    H260113   2.442   4.384  11.141 -0.6640 -1.1752  0.1153
12900TIP3   OH260114   1.327   2.121  16.174  0.3248 -0.2171  0.0810
12900TIP3    H160115   1.356   2.175  16.247  0.2764 -1.9186  1.4093
12900TIP3    H260116   1.302   2.038  16.214  0.5794 -1.3102 -1.9093
12901TIP3   OH260117   5.707   2.367   4.890  0.3349  0.1164 -0.3904
12901TIP3    H160118   5.682   2.391   4.979  2.4977  0.0212  0.2997
12901TIP3    H260119   5.715   2.271   4.892  1.1150  0.1758 -0.4744
12902TIP3   OH260120   1.756   5.070  10.907  0.3659  0.0302 -0.3077
12902TIP3    H160121   1.669   5.070  10.867  0.6796 -2.5703 -1.1718
12902TIP3    H260122   1.788   5.160  10.896 -1.6229  0.6787 -1.2368
12903TIP3   OH260123   5.248   6.625  13.787 -0.0627  0.4061  0.1170
12903TIP3    H160124   5.234   6.707  13.835 -0.1517  0.5141 -0.0914
12903TIP3    H260125   5.223   6.556  13.849 -1.4236  0.5889 -0.1989
12904TIP3   OH260126   5.067   1.183   0.961  0.3471  0.5596  0.3503
12904TIP3    H160127   5.049   1.177   0.867 -1.1190  1.2249  0.5453
12904TIP3    H260128   5.129   1.113   0.979 -1.9276 -1.8798 -0.5374
12905TIP3   OH260129   0.710   0.807  15.611  0.0726 -0.0142  0.2352
12905TIP3    H160130   0.692   0.729  15.559 -2.7500  1.9608 -2.0237
12905TIP3    H260131   0.761   0.863  15.553 -0.3083  0.9418  0.8021
12906TIP3   OH260132   1.750   5.765  13.060  0.1110 -0.7968 -0.1575
12906TIP3    H160133   1.829   5.811  13.033  0.6021 -0.5644  1.5368
12906TIP3    H260134   1.688   5.834  13.083  0.2976 -0.9608  0.8769
12907TIP3   OH260135   1.852   5.407  14.638 -0.2543  0.4627 -0.0765
12907TIP3    H160136   1.900   5.415  14.721 -0.9151 -0.2418  0.3897
12907TIP3    H260137   1.775   5.462  14.649 -1.9566 -1.9533  1.0223
12908TIP3   OH260138   0.261   1.144   5.580 -0.0993 -0.3058 -0.2732
12908TIP3    H160139   0.224   1.134   5.493 -1.6916 -2.3000  0.5616
12908TIP3    H260140   0.215   1.220   5.617 -0.6283 -0.4781 -0.5737
12909TIP3   OH260141   4.870   0.315  15.806  0.4475  0.2221  0.0762
12909TIP3    H160142   4.813   0.337  15.880 -0.3664  1.6475 -0.9276
12909TIP3    H260143   4.881   0.397  15.759 -1.4602 -1.1060 -3.0081
12910TIP3   OH260144   4.708   5.079  15.071 -0.0642 -0.3036  0.3389
12910TIP3    H160145   4.646   5.006  15.075 -0.6237  0.0790 -0.9178
12910TIP3    H260146   4.654   5.157  15.085  0.3096 -0.0392  0.3150
12911TIP3   OH260147   6.587   5.630  12.640  0.3547 -0.0107 -0.2712
12911TIP3    H160148   6.562   5.567  12.708  0.9932 -1.1921 -1.0981
12911TIP3    H260149   6.511   5.633  12.581  0.4050 -0.1462 -0.3414
12912TIP3   OH260150   5.476   3.717  14.700  0.2788 -0.3860  0.4710
12912TIP3    H160151   5.407   3.678  14.753 -0.9722  0.1119 -0.7362
12912TIP3    H260152   5.436   3.729  14.614  2.3367 -1.5170 -0.7312
12913TIP3   OH260153   6.500   0.458   3.665  0.0558 -0.7731 -0.7258
12913TIP3    H160154   6.552   0.443   3.585 -0.7843 -2.6008 -0.9863
12913TIP3    H260155   6.484   0.370   3.699 -0.4688 -0.0676  0.9166
12914TIP3   OH260156   0.808   0.003   6.233  0.2566 -0.4310  0.6352
12914TIP3    H160157   0.777  -0.073   6.282 -1.2666  1.9821  3.7765
12914TIP3    H260158   0.731   0.036   6.189  0.5160  0.2533  0.6918
12915TIP3   OH260159   4.458   4.056   4.166  0.1741  0.3829 -0.0384
12915TIP3    H160160   4.452   4.051   4.071  2.0048 -0.1450 -0.1675
12915TIP3    H260161   4.439   4.148   4.186  0.2456  0.6116 -0.9536
12916TIP3   OH260162   3.972   2.171   2.268  0.4802 -0.2752  0.2784
12916TIP3    H160163   3.913   2.241   2.240 -0.5572 -0.9371  0.7349
12916TIP3    H260164   3.959   2.166   2.363 -2.1069 -3.3220 -0.0670
12917TIP3   OH260165   6.122   6.777   0.708  0.5527 -0.7039 -0.5685
12917TIP3    H160166   6.157   6.740   0.789  1.3292  0.2218 -0.4658
12917TIP3    H260167   6.065   6.848   0.736  2.0911  0.6867 -0.8562
12918TIP3   OH260168   5.067   4.353   0.298  0.2604  0.3206 -0.6763
12918TIP3    H160169   5.051   4.431   0.245 -0.4800  1.4473  1.0750
12918TIP3    H260170   5.157   4.363   0.330 -0.5029  1.6544  1.2679
12919TIP3   OH260171   3.213   5.677   6.370  0.2787  0.5654 -0.5611
12919TIP3    H160172   3.118   5.691   6.372  0.5973  3.1405  0.3321
12919TIP3    H260173   3.224   5.584   6.387 -2.1131  0.0242 -1.5922
12920TIP3   OH260174   1.627   3.650  14.240 -0.0484 -0.3332 -0.2551
12920TIP3    H160175   1.697   3.588  14.263 -1.0245 -1.5972 -0.5709
12920TIP3    H260176   1.560   3.596  14.198 -2.3645  0.3307  2.3023
12921TIP3   OH260177   1.615   3.113   2.433 -0.1124 -0.5399  0.4509
12921TIP3    H160178   1.560   3.040   2.405 -0.4431  0.1791 -0.8386
12921TIP3    H260179   1.621   3.103   2.528 -2.1658 -0.8784  0.5942
12922TIP3   OH260180   5.974   1.892  13.860 -0.1010 -0.2233 -0.3886
12922TIP3    H160181   5.922   1.885  13.939  0.4231  0.9189  0.0735
12922TIP3    H260182   6.052   1.941  13.886  1.3670 -2.0910 -0.9803
12923TIP3   OH260183   3.946   0.181  13.712  0.0417 -0.3591  0.4151
12923TIP3    H160184   4.016   0.116  13.708 -0.5748 -1.1064  1.2258
12923TIP3    H260185   3.957   0.223  13.798  1.2621  1.6045 -0.6387
12924TIP3   OH260186   3.266   2.199   2.980 -0.4998 -0.7358  0.1478
12924TIP3    H160187   3.289   2.279   2.933  1.4930 -0.2278  1.8316
12924TIP3    H260188   3.333   2.135   2.954 -1.1635 -1.3867  0.0000
12925TIP3   OH260189   1.327   4.445  12.823 -0.3026  0.0127 -0.6067
12925TIP3    H160190   1.333   4.464  12.729  1.2546 -1.1894 -0.8055
12925TIP3    H260191   1.335   4.349  12.828 -0.0940  0.0852  0.7721
12926TIP3   OH260192   0.661   5.426  15.932 -0.0905  0.0055 -0.0391
12926TIP3    H160193   0.699   5.514  15.942 -1.0903  0.5613 -0.9324
12926TIP3    H260194   0.735   5.367  15.945  0.1889  0.8559  2.8945
12927TIP3   OH260195   6.197   5.985  14.413  0.1918 -0.0270 -0.3860
12927TIP3    H160196   6.149   6.066  14.430 -0.6378 -0.8448  1.4923
12927TIP3    H260197   6.256   5.977  14.488 -2.2564 -2.8832  1.4909
12928TIP3   OH260198   2.832   4.028   5.044 -0.1414  0.0790  0.2337
12928TIP3    H160199   2.846   4.111   5.000 -0.3776  0.2323  0.4400
12928TIP3    H260200   2.919   4.001   5.074  0.3158 -0.8922 -1.8061
12929TIP3   OH260201   0.548   1.077  14.513  0.2001  0.2574 -0.4345
12929TIP3    H160202   0.546   1.004  14.450  0.0096  0.2266 -0.3916
12929TIP3    H260203   0.522   1.037  14.596 -1.9824  0.7828 -0.8044
12930TIP3   OH260204   0.588   5.897   2.712  0.1683 -0.0234  0.1177
12930TIP3    H160205   0.527   5.966   2.738  0.9907  0.3734  1.0888
12930TIP3    H260206   0.533   5.831   2.670 -0.6074  1.3144 -1.0518
12931TIP3   OH260207   3.596   3.519  15.584 -0.5767  0.4036 -0.1056
12931TIP3    H160208   3.557   3.437  15.612  0.2510 -0.3304 -1.0423
12931TIP3    H260209   3.582   3.522  15.490  1.4179  0.1991 -0.4522
12932TIP3   OH260210   0.179   4.510   4.575  0.5447  0.4568 -0.1023
12932TIP3    H160211   0.265   4.552   4.581  0.1305  1.3293 -0.0678
12932TIP3    H260212   0.122   4.565   4.628  0.6341 -1.9759  2.7897
12933TIP3   OH260213   1.375   2.388  14.881  0.0319 -0.3676 -0.1859
12933TIP3    H160214   1.310   2.401  14.950  0.4272 -0.9307  0.2991
12933TIP3    H260215   1.339   2.316  14.828 -1.7099  1.9062 -2.3310
12934TIP3   OH260216   6.387   2.673   1.979  0.0301  0.5053  1.0736
12934TIP3    H160217   6.404   2.590   2.024  2.5631  0.3220 -0.0678
12934TIP3    H260218   6.350   2.730   2.046  1.7355 -0.3841  2.8617
12935TIP3   OH260219   1.864   5.909  14.230  0.1069 -0.0236  0.0613
12935TIP3    H160220   1.922   5.900  14.306 -0.4737 -0.2625  0.4844
12935TIP3    H260221   1.905   5.855  14.162  0.6448  0.2150  0.1914
12936TIP3   OH260222   1.210   5.347  10.966 -0.1516  0.3172  0.1053
12936TIP3    H160223   1.158   5.385  11.037 -1.1838 -1.7140  0.5313
12936TIP3    H260224   1.173   5.384  10.887 -1.8068 -0.4978  0.4504
12937TIP3   OH260225   1.335   5.715  16.220  0.0818  0.5948 -0.0130
12937TIP3    H160226   1.342   5.620  16.232 -0.6244  0.4522 -0.6057
12937TIP3    H260227   1.423   5.742  16.194  0.0331 -0.0892 -0.9813
12938TIP3   OH260228   1.961   3.260  14.942  0.5826  0.1379  0.2850
12938TIP3    H160229   1.920   3.323  15.001  1.2658 -0.1237  1.0711
12938TIP3    H260230   1.931   3.175  14.974  1.7539 -0.0620  0.9215
12939TIP3   OH260231   4.911   2.978  10.943 -0.0887  0.5263 -0.2831
12939TIP3    H160232   4.989   2.951  10.894  0.5593  1.0636  0.4351
12939TIP3    H260233   4.874   3.049  10.892 -0.1352  0.2481 -0.6444
12940TIP3   OH260234   0.110   2.397  15.342  0.3179  0.1514  0.5203
12940TIP3    H160235   0.086   2.392  15.249 -0.0816  4.6552  0.1398
12940TIP3    H260236   0.033   2.365  15.388 -0.7065  0.6645 -0.7548
12941TIP3   OH260237   3.214   2.835   4.621  0.3690 -0.8263  0.2307
12941TIP3    H160238   3.267   2.802   4.548  0.7675 -1.3752  0.7523
12941TIP3    H260239   3.134   2.783   4.617 -0.3407  0.3204 -0.8363
12942TIP3   OH260240   2.022   0.047   4.611  0.4746  0.4464  0.3609
12942TIP3    H160241   2.051  -0.017   4.676  0.0129 -1.3440 -1.1095
12942TIP3    H260242   1.996   0.123   4.662 -0.7367 -1.2096  2.3659
12943TIP3   OH260243   3.371   5.336  15.180  0.1475 -0.8057  0.1973
12943TIP3    H160244   3.319   5.258  15.199 -0.1267 -0.3638  1.3426
12943TIP3    H260245   3.352   5.396  15.252  3.7180 -1.3492  1.8362
12944TIP3   OH260246   3.520   0.768   0.922 -0.0999  0.2780 -0.2198
12944TIP3    H160247   3.542   0.861   0.915 -0.0117  0.2535 -0.2832
12944TIP3    H260248   3.498   0.756   1.014  2.3599 -0.1480  0.4004
12945TIP3   OH260249   0.179   5.550   1.781 -0.5710  0.5484 -0.3619
12945TIP3    H160250   0.144   5.565   1.869 -0.6067  0.9059 -0.4386
12945TIP3    H260251   0.196   5.456   1.778  2.0270  0.8752  1.0148
12946TIP3   OH260252   2.930   6.756   4.469 -0.2403  0.5693  0.0257
12946TIP3    H160253   3.006   6.707   4.437 -1.1462 -1.6077  0.9911
12946TIP3    H260254   2.907   6.814   4.397 -0.0100 -1.5216 -1.8715
12947TIP3   OH260255   4.708   5.331  14.122  0.1900  0.7517  0.4627
12947TIP3    H160256   4.754   5.260  14.166  0.0212  0.7668  0.6636
12947TIP3    H260257   4.659   5.375  14.191  1.2543  1.8323  0.5790
12948TIP3   OH260258   1.700   2.648  16.075  0.0447 -0.2659 -0.4143
12948TIP3    H160259   1.611   2.635  16.042  0.2859 -0.4721 -1.0043
12948TIP3    H260260   1.723   2.737  16.046 -0.0709 -0.1062 -0.0186
12949TIP3   OH260261   2.924   1.771  12.166  0.3954  0.3340 -0.2895
12949TIP3    H160262   2.857   1.840  12.165  0.7820  0.7305  0.1471
12949TIP3    H260263   2.922   1.738  12.256 -0.1242 -0.5700 -0.6256
12950TIP3   OH260264   5.554   1.062   3.968  0.6614  0.1056  0.1961
12950TIP3    H160265   5.468   1.076   3.929  1.0769  0.0414 -0.7753
12950TIP3    H260266   5.536   1.036   4.058 -0.3665 -0.7238 -0.2265
12951TIP3   OH260267   3.304   0.575   1.089 -0.8108 -0.5808 -0.1546
12951TIP3    H160268   3.356   0.641   1.135  1.4222  0.0458 -3.2626
12951TIP3    H260269   3.256   0.530   1.158  1.1472  1.2018  2.5658
12952TIP3   OH260270   5.889   2.256   3.909 -0.7048 -0.1228 -0.7750
12952TIP3    H160271   5.800   2.222   3.920  0.4014 -2.7651  1.0468
12952TIP3    H260272   5.917   2.280   3.997  0.5296  0.2787 -1.2535
12953TIP3   OH260273   6.204   1.302  16.580  0.1122  0.3807 -0.4827
12953TIP3    H160274   6.193   1.393  16.605  0.5087  0.1867  0.4252
12953TIP3    H260275   6.117   1.264  16.589  0.2719  0.2815  0.7789
12954TIP3   OH260276   4.833   0.293  13.448  0.1900  0.4474  0.1979
12954TIP3    H160277   4.853   0.339  13.530  0.5016  0.4572  0.1187
12954TIP3    H260278   4.918   0.260  13.418 -0.2500 -1.7122  1.1699
12955TIP3   OH260279   4.577   4.537   3.458  0.7502 -0.2628 -0.2889
12955TIP3    H160280   4.555   4.630   3.460  1.1295 -0.1828  0.1836
12955TIP3    H260281   4.668   4.532   3.488  0.2598 -0.9292  1.1951
12956TIP3   OH260282   0.603   5.656  16.602  0.0067  0.0935 -0.0921
12956TIP3    H160283   0.605   5.604  16.682  1.1800  2.1385  1.3083
12956TIP3    H260284   0.689   5.698  16.599 -0.4278  0.9472 -1.8413
12957TIP3   OH260285   5.775   5.968  11.365 -0.3177  0.7165  0.1421
12957TIP3    H160286   5.749   5.981  11.274  0.2362 -1.7427 -0.4280
12957TIP3    H260287   5.732   5.887  11.391  0.6293  0.6562  1.6541
12958TIP3   OH260288   4.854   0.584   1.485  0.0412  0.0608  0.4506
12958TIP3    H160289   4.787   0.627   1.431 -0.4992 -0.8891  0.3346
12958TIP3    H260290   4.896   0.655   1.533 -2.3141  0.5653  1.9471
12959TIP3   OH260291   2.651   6.756  14.170 -0.2069 -0.9481 -0.4039
12959TIP3    H160292   2.665   6.736  14.262  2.4053 -0.7112 -0.6837
12959TIP3    H260293   2.663   6.851  14.164 -0.3293 -0.9668 -0.9930
12960TIP3   OH260294   0.979   2.235  15.514 -0.1944  0.5036 -0.4028
12960TIP3    H160295   0.910   2.281  15.467 -0.3358  0.1287 -0.5684
12960TIP3    H260296   0.950   2.144  15.514 -0.1097  0.4727  0.2568
12961TIP3   OH260297   2.276   5.293  14.385  0.3388 -0.0135  0.0842
12961TIP3    H160298   2.313   5.214  14.423 -0.3622 -0.1377  0.5278
12961TIP3    H260299   2.350   5.353  14.378  1.0873 -1.0320 -1.1797
12962TIP3   OH260300   0.403   0.810   5.335 -0.2496  0.1517  0.2771
12962TIP3    H160301   0.458   0.873   5.287 -1.3645  1.5479  0.7531
12962TIP3    H260302   0.327   0.797   5.278 -0.6805  0.3414  0.7999
12963TIP3   OH260303   2.134   4.725   3.493 -0.2259  0.3748 -0.2813
12963TIP3    H160304   2.174   4.647   3.531 -1.4812  0.1890  0.7303
12963TIP3    H260305   2.070   4.754   3.559 -1.2526  1.0522 -1.5193
12964TIP3   OH260306   4.689   4.402  12.452 -0.0754  0.2528 -0.3766
12964TIP3    H160307   4.711   4.398  12.359 -1.2858 -0.8159 -0.6551
12964TIP3    H260308   4.704   4.314  12.485  2.1355  1.0365  0.9339
12965TIP3   OH260309   2.553   1.558  11.742 -0.2352  0.4842  0.0771
12965TIP3    H160310   2.567   1.505  11.820  0.1343 -0.1969 -0.4425
12965TIP3    H260311   2.601   1.639  11.759  2.1809 -0.7266 -0.5302
12966TIP3   OH260312   1.236   2.851   2.645  0.0307 -0.2204 -0.7671
12966TIP3    H160313   1.236   2.935   2.599  0.2839 -0.7785 -1.8392
12966TIP3    H260314   1.145   2.838   2.671  0.2825  1.1653  0.9521
12967TIP3   OH260315   3.146   0.410  13.408 -0.5388 -0.7008 -0.9092
12967TIP3    H160316   3.223   0.366  13.445  0.2350  0.1047 -1.5157
12967TIP3    H260317   3.182   0.475  13.349 -1.7207 -0.8914 -1.8744
12968TIP3   OH260318   5.559   6.142   3.935  0.3147 -0.5711  0.6359
12968TIP3    H160319   5.559   6.232   3.967 -1.2698 -0.9140  1.7069
12968TIP3    H260320   5.570   6.089   4.014 -0.5719 -1.3693  0.2337
12969TIP3   OH260321   0.155   6.716   1.723 -0.3497  0.7173  0.7957
12969TIP3    H160322   0.191   6.762   1.798  2.1037  0.7347 -0.2933
12969TIP3    H260323   0.163   6.778   1.651  0.3552 -0.3690 -0.1004
12970TIP3   OH260324   2.249   0.079  13.085  0.2353  0.1508  0.4059
12970TIP3    H160325   2.185   0.146  13.109 -1.0947 -0.8819 -0.1559
12970TIP3    H260326   2.304   0.069  13.163 -1.2533 -0.0354  1.4526
12971TIP3   OH260327   2.614   4.379  14.972  0.2272  0.5735 -0.4176
12971TIP3    H160328   2.669   4.444  14.929  1.8279  0.1491  0.8727
12971TIP3    H260329   2.629   4.299  14.922 -0.0529  0.6935 -0.6987
12972TIP3   OH260330   4.325   3.335   1.897  0.6661 -0.6249 -0.5882
12972TIP3    H160331   4.249   3.391   1.884  0.5748 -0.6170 -0.0596
12972TIP3    H260332   4.288   3.249   1.919  0.8028 -0.9396 -1.5288
12973TIP3   OH260333   6.361   2.727  15.206  0.2642 -0.1409  0.0099
12973TIP3    H160334   6.450   2.726  15.243  0.5955  0.9278 -0.7015
12973TIP3    H260335   6.375   2.728  15.111 -0.4678  1.0508 -0.1061
12974TIP3   OH260336   4.741   5.589  15.375  0.0779 -0.5524 -0.1665
12974TIP3    H160337   4.661   5.559  15.417  0.3478 -1.1971 -0.1054
12974TIP3    H260338   4.788   5.509  15.351  0.9856 -0.1923  0.3359
12975TIP3   OH260339   1.956   1.036   0.871  0.4520 -0.2579 -0.2383
12975TIP3    H160340   2.027   1.100   0.870  0.7444 -0.5766 -0.9046
12975TIP3    H260341   1.880   1.083   0.904  0.4316  0.6806 -1.5588
12976TIP3   OH260342   0.063   3.146   0.032  0.4262 -0.1841  0.3324
12976TIP3    H160343   0.053   3.076   0.097  0.0292 -0.4558 -0.0084
12976TIP3    H260344  -0.023   3.151  -0.011 -0.6737  2.7123  2.5207
12977TIP3   OH260345   0.498   1.417  15.942 -0.4158  0.3131  0.3402
12977TIP3    H160346   0.498   1.427  15.847  0.4809  0.2297  0.3205
12977TIP3    H260347   0.414   1.376  15.962 -1.0025  1.1386 -0.3230
12978TIP3   OH260348   1.865   3.135  14.319 -0.2386 -0.1359  0.4216
12978TIP3    H160349   1.951   3.171  14.298 -1.5146  2.2529 -1.0485
12978TIP3    H260350   1.872   3.043  14.293  1.1209  0.5764 -2.1401
12979TIP3   OH260351   0.424   2.441  17.101 -0.3487 -0.5571 -0.2415
12979TIP3    H160352   0.482   2.451  17.177 -1.3927 -0.7359  0.6019
12979TIP3    H260353   0.343   2.485  17.126 -0.8328 -0.9033 -1.1288
12980TIP3   OH260354   0.419   0.417  13.193  0.3474 -0.4489 -0.0798
12980TIP3    H160355   0.396   0.488  13.253 -2.0324 -3.6498  3.3021
12980TIP3    H260356   0.472   0.358  13.246 -0.7000 -2.8087 -1.5046
12981TIP3   OH260357   3.644   0.715  15.240 -0.0859  0.1568 -0.0778
12981TIP3    H160358   3.558   0.685  15.269 -1.1998  2.3090 -0.9985
12981TIP3    H260359   3.672   0.777  15.307  0.9184 -0.7175  0.3530
12982TIP3   OH260360   4.211   3.637   4.249 -0.7432  0.2524  0.2198
12982TIP3    H160361   4.213   3.557   4.301  2.2018  0.7989  1.1188
12982TIP3    H260362   4.122   3.641   4.215 -1.7751 -1.9900  2.3384
12983TIP3   OH260363   2.555   4.845  16.686 -0.5378 -0.0277 -0.0196
12983TIP3    H160364   2.518   4.767  16.728  1.8958 -0.5305  1.4015
12983TIP3    H260365   2.551   4.826  16.592  0.2703 -2.0340  0.2973
12984TIP3   OH260366   5.107   0.332  12.300 -0.5005  0.4966  0.7850
12984TIP3    H160367   5.093   0.397  12.231  0.2324 -1.4881 -1.3729
12984TIP3    H260368   5.021   0.320  12.339 -0.8003  2.1620  0.6871
12985TIP3   OH260369   0.802   6.071   1.515 -0.1309 -0.0837  0.5970
12985TIP3    H160370   0.895   6.051   1.506  0.0527  1.5188 -1.6193
12985TIP3    H260371   0.758   6.003   1.464 -0.1098 -0.0350  0.5157
12986TIP3   OH260372   3.151   2.907  11.894 -0.0161  0.2041 -0.4586
12986TIP3    H160373   3.190   2.835  11.943 -2.0156  0.0948  1.1035
12986TIP3    H260374   3.215   2.927  11.826  1.5984 -1.5361  0.4520
12987TIP3   OH260375   6.023   2.034   1.037 -0.3025  0.0185 -0.4147
12987TIP3    H160376   6.031   1.980   0.958  1.2143 -1.3439  0.5946
12987TIP3    H260377   5.962   1.985   1.092  1.4586 -1.0341  0.7116
12988TIP3   OH260378   1.228   1.100  14.172  0.0973  0.1909 -0.1737
12988TIP3    H160379   1.211   1.062  14.085 -1.6690 -2.7495  1.2758
12988TIP3    H260380   1.201   1.191  14.164 -2.4348 -0.6070 -2.1334
12989TIP3   OH260381   3.017   5.314  11.996  0.0942 -0.0750  0.0676
12989TIP3    H160382   3.055   5.332  12.082 -0.2742  1.0415  0.0162
12989TIP3    H260383   3.071   5.364  11.935  0.2717 -0.7558 -0.3385
12990TIP3   OH260384   5.452   5.757  12.382 -0.0966  0.0508 -0.0499
12990TIP3    H160385   5.493   5.778  12.467 -1.7981 -1.6182  1.2514
12990TIP3    H260386   5.414   5.670  12.395 -0.1501 -0.3750 -2.6622
12991TIP3   OH260387   1.310   0.336   1.424 -0.0196  0.5587  0.0956
12991TIP3    H160388   1.360   0.413   1.451  0.0271  0.1878  1.1416
12991TIP3    H260389   1.237   0.332   1.485 -0.8628  0.6073 -0.8880
12992TIP3   OH260390   3.978   0.241   4.604  0.2165  0.2997 -0.0774
12992TIP3    H160391   3.885   0.252   4.584  0.0528  0.6123  0.8066
12992TIP3    H260392   3.991   0.147   4.611 -0.0149  0.2530 -0.2730
12993TIP3   OH260393   6.205   3.515  15.837  0.3425  0.1848 -0.0864
12993TIP3    H160394   6.151   3.594  15.837  1.2956  0.8552 -0.4009
12993TIP3    H260395   6.165   3.459  15.770 -1.4071 -0.3868  1.3645
12994TIP3   OH260396   1.615   2.550  11.242  0.6230 -0.1675  0.6552
12994TIP3    H160397   1.583   2.601  11.168 -1.6481  0.2146  1.8331
12994TIP3    H260398   1.589   2.460  11.222  0.8734 -0.2243  0.5700
12995TIP3   OH260399   0.614   1.353   3.576 -0.5089  0.3066  0.0447
12995TIP3    H160400   0.677   1.306   3.631 -0.3895 -1.0214 -1.1644
12995TIP3    H260401   0.667   1.411   3.522 -0.5154  0.7089  0.4690
12996TIP3   OH260402   5.767   2.097   5.288 -0.3865 -0.5006 -0.1518
12996TIP3    H160403   5.856   2.095   5.324 -1.1131  0.9387  1.9053
12996TIP3    H260404   5.755   2.188   5.260 -1.7329 -0.2460  1.1209
12997TIP3   OH260405   1.100   3.619  15.571  0.2957  0.1333  0.3210
12997TIP3    H160406   1.093   3.713  15.555  1.1868 -0.1970 -2.8197
12997TIP3    H260407   1.028   3.599  15.629 -1.2618  2.4518 -0.6583
12998TIP3   OH260408   2.382   2.646   0.584  0.3093 -0.1405  0.7117
12998TIP3    H160409   2.447   2.654   0.513  0.1007  0.0438  0.5421
12998TIP3    H260410   2.309   2.700   0.555  0.8701  1.2772  1.8268
12999TIP3   OH260411   0.457   2.793  15.666  0.0336 -0.0382  0.0219
12999TIP3    H160412   0.414   2.852  15.728 -0.6952 -0.1966 -0.3178
12999TIP3    H260413   0.550   2.801  15.685  0.0820  2.1258 -0.7785
13000TIP3   OH260414   0.049   6.141   4.767  0.2739 -0.1073  0.1298
13000TIP3    H160415  -0.006   6.071   4.803  1.5129 -0.6630  1.0339
13000TIP3    H260416   0.018   6.153   4.678 -1.5928 -0.0940  0.7533
13001TIP3   OH260417   0.435   5.827  13.627  0.4544 -0.1745 -0.4669
13001TIP3    H160418   0.503   5.868  13.573  1.0143  0.1718  0.4816
13001TIP3    H260419   0.428   5.738  13.594  0.9003 -0.0198 -0.9982
13002TIP3   OH260420   4.087   0.225   5.559 -0.0090 -0.4757  0.1153
13002TIP3    H160421   4.074   0.310   5.518  1.6955 -0.0047  0.4599
13002TIP3    H260422   4.007   0.176   5.541 -1.2924  1.4198  0.4621
13003TIP3   OH260423   1.136   5.004   2.027 -0.1148  0.0421  0.3957
13003TIP3    H160424   1.220   5.039   1.997 -0.7768  0.5101 -1.0273
13003TIP3    H260425   1.149   4.909   2.028 -0.4219 -0.1788 -2.9570
13004TIP3   OH260426   2.114   4.224   5.198  0.3380 -0.1708  0.2871
13004TIP3    H160427   2.058   4.203   5.124 -2.1588 -0.3935  2.1212
13004TIP3    H260428   2.170   4.147   5.208 -1.5803 -1.5846  0.6053
13005TIP3   OH260429   3.019   1.052  16.560 -0.4484  0.1514  0.2614
13005TIP3    H160430   2.958   1.035  16.631  1.6560  0.1291  2.1972
13005TIP3    H260431   2.974   1.023  16.481 -2.4401 -0.9343  1.7263
13006TIP3   OH260432   1.100   5.162  16.339  0.3662  0.0527 -0.3726
13006TIP3    H160433   1.113   5.073  16.307 -1.1292 -0.1712 -0.4274
13006TIP3    H260434   1.010   5.184  16.315  0.3406  1.1671  0.6150
13007TIP3   OH260435   5.809   4.321   4.190  0.2320  0.3241 -0.0588
13007TIP3    H160436   5.778   4.251   4.247  1.1066  0.4288  0.5707
13007TIP3    H260437   5.847   4.385   4.250  0.3806  0.8488 -0.7032
13008TIP3   OH260438   1.564   3.351   5.851 -0.3199  0.4789 -0.8613
13008TIP3    H160439   1.607   3.267   5.863  0.8366  1.1364 -0.1986
13008TIP3    H260440   1.496   3.353   5.919 -1.4610 -0.5566 -1.9087
13009TIP3   OH260441   5.834   3.139   1.759 -0.1604  0.6610  1.2162
13009TIP3    H160442   5.913   3.145   1.812 -0.5921  3.3821  1.6955
13009TIP3    H260443   5.769   3.190   1.808 -1.0867  1.7278 -1.0212
13010TIP3   OH260444   2.418   6.185   0.849  0.1034 -0.7357 -0.3780
13010TIP3    H160445   2.493   6.159   0.901  1.1073  1.2958 -0.6909
13010TIP3    H260446   2.379   6.257   0.898 -0.9098 -0.9693 -0.8212
13011TIP3   OH260447   6.390   4.190   2.213 -0.1674  0.3734  0.1076
13011TIP3    H160448   6.381   4.133   2.137  0.7826  0.7408 -0.2912
13011TIP3    H260449   6.475   4.233   2.202 -0.8435  1.8559  0.4052
13012TIP3   OH260450   0.486   2.425  13.257 -0.1192 -0.4881 -0.5219
13012TIP3    H160451   0.581   2.421  13.263 -0.1179  0.1127 -0.0104
13012TIP3    H260452   0.468   2.490  13.190 -0.1768 -1.4582 -1.4794
13013TIP3   OH260453   1.547   1.229   3.928 -0.2695 -0.5116  0.1494
13013TIP3    H160454   1.479   1.294   3.912 -0.4037 -0.3191  1.4146
13013TIP3    H260455   1.571   1.198   3.840 -0.0604  1.3706 -0.5069
13014TIP3   OH260456   3.603   6.668  16.710  0.1996  0.1531 -0.2462
13014TIP3    H160457   3.660   6.694  16.637  1.3529 -0.1895  0.5132
13014TIP3    H260458   3.514   6.677  16.674  0.6374  2.0697 -1.0263
13015TIP3   OH260459   3.282   0.337  14.154 -0.2767  0.0972  0.6821
13015TIP3    H160460   3.329   0.386  14.221 -1.4556 -0.7087  2.1597
13015TIP3    H260461   3.193   0.328  14.188 -0.8035 -0.7306 -0.7909
13016TIP3   OH260462   4.670   6.063  16.614 -0.0329 -0.2133  0.5809
13016TIP3    H160463   4.726   6.013  16.673  0.1611  2.0187  2.4556
13016TIP3    H260464   4.603   6.102  16.672  0.6624  2.7452 -0.4402
13017TIP3   OH260465   5.786   1.565   2.027 -0.1072  0.2090 -0.2557
13017TIP3    H160466   5.787   1.522   2.113 -0.0906  1.4029  0.3548
13017TIP3    H260467   5.749   1.652   2.043  1.8110  1.2367 -1.0612
13018TIP3   OH260468   0.347   5.662   0.240  0.1693  0.0563 -0.2859
13018TIP3    H160469   0.367   5.709   0.159 -0.1258  1.8147  0.5978
13018TIP3    H260470   0.255   5.637   0.231 -0.2490  1.3989 -0.0011
13019TIP3   OH260471   4.408   3.610   6.930 -0.4747  0.6339 -0.3277
13019TIP3    H160472   4.486   3.659   6.904 -0.0673 -0.2203 -0.7647
13019TIP3    H260473   4.385   3.559   6.852 -0.9957  0.2682  0.0595
13020TIP3   OH260474   0.933   2.047   1.482  0.3922 -0.7741  0.4193
13020TIP3    H160475   0.965   2.040   1.572  0.0843  0.1913  0.6184
13020TIP3    H260476   0.971   1.972   1.437  0.6723 -1.1872  1.3182
13021TIP3   OH260477   5.250   3.757   5.451  0.1494  0.0784 -0.3366
13021TIP3    H160478   5.208   3.699   5.388  1.3878 -0.3753 -0.7801
13021TIP3    H260479   5.213   3.732   5.536 -0.2736 -0.4769 -0.6814
13022TIP3   OH260480   2.774   2.954   6.407 -0.4672  0.3187  0.0317
13022TIP3    H160481   2.818   2.882   6.362 -0.2143  0.6949 -0.3337
13022TIP3    H260482   2.681   2.939   6.391 -0.4159  0.0787 -0.0463
13023TIP3   OH260483   4.242   0.097  15.498 -0.2148  0.0296 -0.4687
13023TIP3    H160484   4.190   0.174  15.523  1.7941  1.1187  0.6356
13023TIP3    H260485   4.273   0.062  15.581  1.0318 -0.4108 -1.1029
13024TIP3   OH260486   0.419   3.259   3.185  0.2719  0.8040 -0.7443
13024TIP3    H160487   0.375   3.181   3.217 -2.3901  1.5316 -2.3217
13024TIP3    H260488   0.493   3.226   3.135 -1.3120 -0.8246 -2.1436
13025TIP3   OH260489   6.618   4.572  15.142 -0.7556  0.1843  0.0181
13025TIP3    H160490   6.631   4.576  15.236  0.4251  0.7052 -0.1469
13025TIP3    H260491   6.523   4.576  15.130 -0.8778  2.6313  1.0956
13026TIP3   OH260492   4.205   2.486   1.090  0.2151 -0.3842 -0.1037
13026TIP3    H160493   4.144   2.543   1.135  0.2354 -0.4992  0.0709
13026TIP3    H260494   4.156   2.405   1.075  0.3787 -0.5435  0.1999
13027TIP3   OH260495   2.420   3.352  11.374  0.1449  0.0707  0.0487
13027TIP3    H160496   2.506   3.394  11.368 -0.4298  1.2113 -0.5229
13027TIP3    H260497   2.366   3.416  11.421  0.0261 -1.3727  1.9931
13028TIP3   OH260498   1.394   2.499   4.471  0.1844  0.1007  0.0026
13028TIP3    H160499   1.384   2.493   4.376 -0.4448 -2.9283  0.1416
13028TIP3    H260500   1.398   2.407   4.500 -0.2413  0.9175  2.9658
13029TIP3   OH260501   0.367   3.278   5.512 -0.2619 -0.8686  0.7958
13029TIP3    H160502   0.286   3.231   5.494  0.8953 -2.7413  0.0755
13029TIP3    H260503   0.381   3.266   5.606 -2.4140  2.3284  1.6785
13030TIP3   OH260504   5.308   3.027   4.742 -0.1394 -0.0609  0.3027
13030TIP3    H160505   5.283   3.080   4.818  0.7187 -0.2666  0.7496
13030TIP3    H260506   5.299   2.936   4.772  2.1990 -0.1577  0.8953
13031TIP3   OH260507   4.674   2.595   1.074  0.4302  0.0573 -0.1053
13031TIP3    H160508   4.749   2.535   1.071  2.0726  1.9460  1.1939
13031TIP3    H260509   4.701   2.671   1.023 -1.0148  0.3934 -0.4222
13032TIP3   OH260510   5.657   5.764  12.219  0.2480  0.7940 -0.4632
13032TIP3    H160511   5.568   5.755  12.254 -0.6547 -2.2874 -3.0507
13032TIP3    H260512   5.709   5.701  12.268 -0.0061 -0.3184 -1.5614
13033TIP3   OH260513   1.048   6.324  13.237 -0.6022  0.0167  0.7221
13033TIP3    H160514   1.029   6.243  13.284  1.2810 -0.0790  1.3956
13033TIP3    H260515   0.972   6.337  13.181 -1.3054 -1.7984  1.1746
13034TIP3   OH260516   0.404   3.456  16.355 -0.1731  0.1252 -0.4231
13034TIP3    H160517   0.346   3.514  16.305 -1.3365  1.7139  2.5063
13034TIP3    H260518   0.462   3.516  16.402  0.8774 -1.2708  0.1324
13035TIP3   OH260519   3.023   2.802  10.726  0.0606 -0.3670 -0.0002
13035TIP3    H160520   3.057   2.725  10.680 -0.9959 -0.8350 -0.0257
13035TIP3    H260521   2.955   2.836  10.669 -1.2878 -0.9617  1.2027
13036TIP3   OH260522   1.150   3.965   0.770 -0.2002  0.8587  0.1293
13036TIP3    H160523   1.176   4.040   0.822  0.3588  0.2550  0.7425
13036TIP3    H260524   1.192   3.979   0.685 -3.3353  3.2704 -1.2414
13037TIP3   OH260525   1.969   1.601  12.266  0.1479 -0.1128  0.1855
13037TIP3    H160526   1.994   1.510  12.283 -0.2818 -0.6054 -1.6277
13037TIP3    H260527   1.875   1.597  12.248  0.3941  0.4368 -1.3621
13038TIP3   OH260528   1.936   0.021   2.765 -0.1603 -0.2355 -0.3121
13038TIP3    H160529   1.877   0.097   2.767 -0.5726 -0.5469 -0.4124
13038TIP3    H260530   1.939  -0.009   2.855  0.5374  0.2988 -0.1496
13039TIP3   OH260531   4.772   1.620   6.206  0.0632  0.0808  0.3620
13039TIP3    H160532   4.845   1.660   6.253  0.5746 -0.5771  0.1563
13039TIP3    H260533   4.707   1.602   6.274 -0.2405  1.3667  0.4334
13040TIP3   OH260534   0.588   1.617   4.090 -0.0410  0.7075  0.1452
13040TIP3    H160535   0.607   1.587   4.179 -0.6855  1.5037  0.5680
13040TIP3    H260536   0.577   1.711   4.098  1.3633  1.0171 -1.0481
13041TIP3   OH260537   6.403   0.616  11.216 -0.2356  0.1462  0.1108
13041TIP3    H160538   6.398   0.708  11.192  0.8702  0.5316  1.2155
13041TIP3    H260539   6.326   0.600  11.269 -0.9292  0.1649 -0.8654
13042TIP3   OH260540   4.704   6.499   4.627 -0.2949  0.1661  0.4685
13042TIP3    H160541   4.733   6.412   4.656 -1.2618 -0.3288  0.0064
13042TIP3    H260542   4.773   6.558   4.656  1.7148 -1.0651 -1.5380
13043TIP3   OH260543   4.662   6.115   2.440 -0.4865 -0.8131  0.4477
13043TIP3    H160544   4.667   6.152   2.352 -0.7989  0.6435  1.0206
13043TIP3    H260545   4.586   6.057   2.438 -1.0275 -0.0951  0.0035
13044TIP3   OH260546   1.550   3.225   0.645  0.5142  0.4158 -0.7249
13044TIP3    H160547   1.511   3.138   0.650 -0.2256  0.8005  0.8475
13044TIP3    H260548   1.536   3.252   0.554  0.4419 -0.9460 -1.1493
13045TIP3   OH260549   0.680   0.484   3.829  0.1276  0.2117  0.0931
13045TIP3    H160550   0.717   0.552   3.885  1.5995 -0.2171 -0.3214
13045TIP3    H260551   0.678   0.406   3.884 -0.3462  0.2731  0.1672
13046TIP3   OH260552   6.272   3.556   3.772 -0.0547 -0.3418 -0.2444
13046TIP3    H160553   6.296   3.623   3.837 -1.3160 -1.1879  1.1554
13046TIP3    H260554   6.344   3.557   3.709  1.6761 -0.0695  1.6310
13047TIP3   OH260555   4.298   3.885  13.534  0.1434 -0.0603 -0.1856
13047TIP3    H160556   4.276   3.976  13.516 -0.5029 -0.5577 -2.2536
13047TIP3    H260557   4.388   3.875  13.503  0.0230 -0.2488 -0.4777
13048TIP3   OH260558   3.616   4.349   0.197  0.6887 -0.0421  0.5807
13048TIP3    H160559   3.546   4.396   0.152  0.1862  0.8646  2.2171
13048TIP3    H260560   3.590   4.350   0.290  1.3370 -2.3862  0.8656
13049TIP3   OH260561   5.663   6.658  10.761  0.0246 -0.4003  0.3778
13049TIP3    H160562   5.707   6.630  10.681  0.4031 -1.4253  0.9184
13049TIP3    H260563   5.612   6.735  10.736 -0.2658 -1.0046 -0.9627
13050TIP3   OH260564   1.077   1.468  14.724 -0.1121 -0.0616 -0.3113
13050TIP3    H160565   1.169   1.489  14.736  0.1820 -1.2633 -0.3289
13050TIP3    H260566   1.061   1.484  14.631 -0.2153  1.1914 -0.0891
13051TIP3   OH260567   1.352   4.498   3.260  0.1995 -0.3451 -0.2573
13051TIP3    H160568   1.362   4.584   3.220 -0.9179  0.1565  0.4913
13051TIP3    H260569   1.267   4.501   3.303  0.4448 -1.5941  0.3744
13052TIP3   OH260570   0.967   5.330  12.970  0.2292 -0.0814 -0.2505
13052TIP3    H160571   0.953   5.241  12.937 -1.9302 -0.3130  1.0514
13052TIP3    H260572   0.892   5.380  12.937  1.1103  1.1161 -0.4896
13053TIP3   OH260573   3.941   5.565  14.380 -0.4950  0.5341 -0.5035
13053TIP3    H160574   3.873   5.600  14.438  0.7511 -0.0785  1.4267
13053TIP3    H260575   4.010   5.630  14.381  0.2396 -0.2379  0.0620
13054TIP3   OH260576   4.712   5.569  11.804  0.1432  0.1917 -0.1438
13054TIP3    H160577   4.669   5.542  11.723  1.3373  0.2139 -0.8088
13054TIP3    H260578   4.668   5.650  11.829 -0.9941 -0.4122 -0.1365
13055TIP3   OH260579   3.438   0.007  14.575  0.8948 -0.3773  0.5176
13055TIP3    H160580   3.519  -0.041  14.556  2.8136  0.6512  4.9168
13055TIP3    H260581   3.381  -0.057  14.618 -0.1588 -0.7058 -1.2410
13056TIP3   OH260582   1.624   0.596   0.817  0.1631 -0.2448  0.0196
13056TIP3    H160583   1.581   0.677   0.843 -3.3590 -1.1936 -2.1582
13056TIP3    H260584   1.667   0.617   0.735  0.6056 -0.2460  0.2463
13057TIP3   OH260585   2.614   3.284  14.320  0.4956  0.1299  0.2857
13057TIP3    H160586   2.591   3.291  14.412  1.6639 -0.1972  0.6212
13057TIP3    H260587   2.650   3.370  14.298  0.4589  0.1234  0.1997
13058TIP3   OH260588   6.399   4.330   4.259 -0.6440  0.2689  0.2150
13058TIP3    H160589   6.332   4.268   4.286 -1.2538  0.2697 -1.2350
13058TIP3    H260590   6.440   4.290   4.182  0.1095  0.8826  0.2800
13059TIP3   OH260591   6.402   6.051   4.218 -0.2421  0.0808  0.2346
13059TIP3    H160592   6.391   5.960   4.189 -3.3089  0.7473 -1.1636
13059TIP3    H260593   6.337   6.061   4.288 -0.0191  1.2299  0.2930
13060TIP3   OH260594   0.827   1.206   3.670 -0.3553  0.2987 -0.0608
13060TIP3    H160595   0.868   1.286   3.703  0.8625 -0.6815  0.8910
13060TIP3    H260596   0.899   1.145   3.657 -1.2612 -0.6634 -0.7759
13061TIP3   OH260597   6.089   0.645  12.961 -0.0810  0.2741 -0.2702
13061TIP3    H160598   6.117   0.727  13.003 -1.7665  0.4649  0.5693
13061TIP3    H260599   6.147   0.578  12.997 -0.8590  0.5866  1.6987
13062TIP3   OH260600   2.909   0.467  14.436 -0.7487  0.1790 -0.1224
13062TIP3    H160601   2.847   0.465  14.509  0.7970 -3.7701  1.3570
13062TIP3    H260602   2.979   0.526  14.465 -1.3721  0.6654  0.4121
13063TIP3   OH260603   0.773   6.158   0.322  0.0601  0.5953 -0.0352
13063TIP3    H160604   0.736   6.201   0.244 -0.1788  2.5305  1.0750
13063TIP3    H260605   0.816   6.079   0.288 -1.7584  0.3032 -1.8564
13064TIP3   OH260606   3.204   1.054   2.721 -0.7365 -0.0581  0.2349
13064TIP3    H160607   3.146   1.106   2.776 -2.6784 -1.5758 -0.2796
13064TIP3    H260608   3.234   0.983   2.777  0.9160  0.8238  0.5650
13065TIP3   OH260609   1.742   1.646   1.165  0.0089 -0.2682 -0.5875
13065TIP3    H160610   1.739   1.615   1.256 -1.0125  0.7741 -0.2390
13065TIP3    H260611   1.744   1.742   1.173  0.9088 -0.1735 -1.6610
13066TIP3   OH260612   4.394   5.812  11.559 -0.1076  0.2949 -0.0116
13066TIP3    H160613   4.379   5.718  11.548  2.2146 -0.2111  0.7628
13066TIP3    H260614   4.354   5.833  11.643  0.1078 -0.1930  0.2164
13067TIP3   OH260615   0.784   4.034   0.089 -0.2467 -0.4274 -0.2610
13067TIP3    H160616   0.765   3.952   0.135  1.2160 -0.0432  1.1277
13067TIP3    H260617   0.868   4.019   0.047  0.9347  0.8729  1.4833
13068TIP3   OH260618   4.630   5.809  14.737 -0.3637  0.1412  0.8184
13068TIP3    H160619   4.629   5.849  14.824 -2.0163  1.1836  0.3693
13068TIP3    H260620   4.604   5.718  14.753  1.0241 -0.1536  1.5776
13069TIP3   OH260621   4.385   5.166   4.783  0.7247 -0.2540 -0.1171
13069TIP3    H160622   4.465   5.129   4.746  0.6377 -1.9133  1.2115
13069TIP3    H260623   4.414   5.210   4.863  0.3584 -0.5203  0.1646
13070TIP3   OH260624   4.027   0.471  16.912 -0.3860  0.6736  0.1948
13070TIP3    H160625   4.093   0.516  16.964 -0.4837  0.3354  0.6230
13070TIP3    H260626   4.067   0.458  16.826  0.4637 -0.3591  0.7264
13071TIP3   OH260627   1.193   2.828   2.341  0.8055 -0.1443 -0.2613
13071TIP3    H160628   1.165   2.775   2.416  0.1711  1.1194  0.4402
13071TIP3    H260629   1.150   2.788   2.266 -1.0852  0.3428  0.4814
13072TIP3   OH260630   4.439   2.976   5.034 -0.5153 -0.0877  0.3403
13072TIP3    H160631   4.527   3.015   5.033 -1.1309  1.4450 -2.2094
13072TIP3    H260632   4.455   2.885   5.057  2.0111 -0.3085 -1.7564
13073TIP3   OH260633   5.326   2.820  11.949 -0.1389  0.1922  0.5055
13073TIP3    H160634   5.389   2.793  11.883  1.3645  1.1725  1.4750
13073TIP3    H260635   5.240   2.809  11.907  0.6609 -1.0858 -0.8711
13074TIP3   OH260636   3.662   4.090  14.441 -0.6089  0.3076 -0.2502
13074TIP3    H160637   3.663   4.169  14.386 -1.4107  0.3681 -0.1900
13074TIP3    H260638   3.718   4.112  14.515  2.5458 -0.6442 -2.1736
13075TIP3   OH260639   0.277   6.699  16.580 -0.6399  0.1051  0.3253
13075TIP3    H160640   0.349   6.684  16.518 -0.5647 -1.3452  0.7363
13075TIP3    H260641   0.273   6.794  16.588  1.8438  0.2194  1.0070
13076TIP3   OH260642   5.147   3.232  16.366 -0.0058  0.1365 -0.0947
13076TIP3    H160643   5.067   3.183  16.384 -0.2130  0.4351 -0.2069
13076TIP3    H260644   5.152   3.235  16.270  0.1790  0.0604 -0.0895
13077TIP3   OH260645   6.669   5.842  13.930 -0.2420 -0.5147 -0.6259
13077TIP3    H160646   6.720   5.763  13.946  0.1693 -0.0054  0.6837
13077TIP3    H260647   6.726   5.896  13.875  0.5591 -0.0752  0.5867
13078TIP3   OH260648   6.135   1.802   3.719 -0.7565  0.0041 -0.7342
13078TIP3    H160649   6.078   1.848   3.780  0.6899  2.3567 -0.9946
13078TIP3    H260650   6.219   1.794   3.766 -0.1637  0.2041 -1.7250
13079TIP3   OH260651   3.951   1.816  12.312 -0.6356  0.2412  0.1035
13079TIP3    H160652   4.037   1.854  12.333 -0.2647 -0.3919 -0.2155
13079TIP3    H260653   3.972   1.730  12.274 -1.4336 -0.1089  0.4358
13080TIP3   OH260654   5.488   3.993   5.869  0.1125 -0.1245 -0.1913
13080TIP3    H160655   5.528   3.906   5.866  1.3889  0.3776  0.8857
13080TIP3    H260656   5.493   4.018   5.961 -1.7973  0.4149 -0.2051
13081TIP3   OH260657   2.559   1.564   6.686  0.0725  0.4653  0.0697
13081TIP3    H160658   2.527   1.654   6.681 -0.2396  0.3302 -0.4214
13081TIP3    H260659   2.589   1.544   6.597 -0.6040 -0.1838 -0.0149
13082TIP3   OH260660   2.644   0.025  13.777  0.2538 -0.0303 -0.5082
13082TIP3    H160661   2.715  -0.031  13.807  0.5719  1.0449  0.8472
13082TIP3    H260662   2.668   0.113  13.808 -1.9808  0.2534  0.6164
13083TIP3   OH260663   0.151   5.335   0.193  0.3551 -0.2166 -0.3988
13083TIP3    H160664   0.139   5.386   0.112  1.2495  1.0493  0.2302
13083TIP3    H260665   0.108   5.252   0.175 -0.7215  0.5711 -1.6589
13084TIP3   OH260666   5.225   6.264   4.231  0.0121  0.2870 -0.2107
13084TIP3    H160667   5.208   6.267   4.136  1.7910  1.8040 -0.5357
13084TIP3    H260668   5.244   6.172   4.248  1.4460  0.2476 -1.7099
13085TIP3   OH260669   1.821   5.682   4.632 -0.2112  0.5399 -0.1850
13085TIP3    H160670   1.751   5.744   4.652  1.3882  2.7222 -0.9176
13085TIP3    H260671   1.898   5.718   4.678  0.5761 -1.4884  0.1800
13086TIP3   OH260672   6.730   5.312  15.970 -0.4435 -0.7345  0.0547
13086TIP3    H160673   6.791   5.278  15.905 -1.1724  0.2163 -1.1501
13086TIP3    H260674   6.661   5.246  15.975 -1.4976  0.1433 -1.7716
13087TIP3   OH260675   6.248   0.518  11.395 -0.7605 -0.3044 -0.4702
13087TIP3    H160676   6.336   0.526  11.431 -0.6070  2.5905 -1.2701
13087TIP3    H260677   6.216   0.434  11.428  1.1532 -0.0491  2.3168
13088TIP3   OH260678   4.763   2.200   4.541 -0.1869 -0.2900 -0.5491
13088TIP3    H160679   4.813   2.239   4.613 -0.6893 -0.1448 -0.2736
13088TIP3    H260680   4.766   2.106   4.558  2.2045 -0.5297 -1.9760
13089TIP3   OH260681   4.824   2.403  16.737  0.6841 -1.0771 -0.5440
13089TIP3    H160682   4.826   2.428  16.829  2.0289  1.4075 -1.1260
13089TIP3    H260683   4.861   2.315  16.735  0.2842 -1.3292  1.3118
13090TIP3   OH260684   2.990   4.859   3.635  0.0755 -0.4778 -0.0914
13090TIP3    H160685   3.022   4.949   3.630 -0.1806 -0.2791  1.4061
13090TIP3    H260686   3.031   4.815   3.561  0.7996  0.6829 -0.4064
13091TIP3   OH260687   4.739   5.721   2.609  0.2234  0.1819 -0.2866
13091TIP3    H160688   4.831   5.709   2.584 -0.1449  0.7912 -2.0733
13091TIP3    H260689   4.726   5.660   2.681  2.3594  0.9853  0.8679
13092TIP3   OH260690   1.729   0.230  11.640  0.1831 -0.6934 -0.4377
13092TIP3    H160691   1.653   0.285  11.656  0.2199 -0.9267  0.6060
13092TIP3    H260692   1.802   0.292  11.628  0.0346 -0.4980 -0.3345
13093TIP3   OH260693   0.295   2.526   1.780  0.5240 -0.4112  0.3470
13093TIP3    H160694   0.295   2.567   1.867  1.2452  1.4890 -0.5150
13093TIP3    H260695   0.205   2.536   1.749  0.9572  1.6915 -0.3496
13094TIP3   OH260696   0.918   0.365  16.409 -0.2616  0.1693 -0.7342
13094TIP3    H160697   0.885   0.442  16.361 -0.7580  0.1691 -0.4031
13094TIP3    H260698   0.956   0.402  16.489 -0.9149  0.0322 -0.3601
13095TIP3   OH260699   0.498   6.385   4.912  0.4693  0.2381 -0.2365
13095TIP3    H160700   0.441   6.311   4.894  2.7367 -1.2980 -1.6591
13095TIP3    H260701   0.573   6.347   4.958  0.8332  2.0013  0.7265
13096TIP3   OH260702   6.548   4.699   1.289  0.0413 -0.8053  0.8317
13096TIP3    H160703   6.594   4.741   1.215 -0.8219 -0.1364  0.6595
13096TIP3    H260704   6.546   4.766   1.357 -3.1099  0.2702 -0.1368
13097TIP3   OH260705   0.809   2.271   3.015 -0.2587  0.0725  0.1863
13097TIP3    H160706   0.780   2.280   2.924 -1.9144  2.0079  0.8306
13097TIP3    H260707   0.889   2.323   3.020  0.2062 -0.5693 -0.2705
13098TIP3   OH260708   1.611   1.416  16.517 -0.0814  0.4692  0.1714
13098TIP3    H160709   1.579   1.327  16.532 -0.2804  0.4998 -0.0644
13098TIP3    H260710   1.609   1.426  16.422 -0.0946  0.7406  0.2012
13099TIP3   OH260711   5.965   2.436  11.109 -0.1199 -0.0722  0.4016
13099TIP3    H160712   5.886   2.415  11.059  0.8754  1.0880 -1.8024
13099TIP3    H260713   5.943   2.517  11.155 -0.5456 -0.3125  0.6280
13100TIP3   OH260714   6.777   1.364  11.640 -0.1639  0.0854  0.0188
13100TIP3    H160715   6.845   1.303  11.613  0.1271  1.2909 -2.2022
13100TIP3    H260716   6.823   1.429  11.693  0.1449  0.0782 -0.2361
13101TIP3   OH260717   2.962   5.418  14.489 -0.3476  0.1098 -0.0806
13101TIP3    H160718   3.030   5.353  14.508  0.5811  1.1093  0.1841
13101TIP3    H260719   2.882   5.367  14.476  0.2272 -1.0326  0.6649
13102TIP3   OH260720   2.667   3.691  15.669  0.3030  0.1823  0.1176
13102TIP3    H160721   2.656   3.597  15.655 -0.2473  0.2187  0.2868
13102TIP3    H260722   2.748   3.698  15.720 -0.0515 -0.2568  0.7544
13103TIP3   OH260723   4.582   5.824   1.553  0.6971 -0.1584  0.3241
13103TIP3    H160724   4.633   5.821   1.634  1.5483 -3.0895 -0.2249
13103TIP3    H260725   4.494   5.795   1.578  0.4154  0.7978  0.4981
13104TIP3   OH260726   6.696   1.971   4.978  0.0979  1.4026 -0.0551
13104TIP3    H160727   6.658   2.053   4.946 -1.2222  0.4973 -0.8967
13104TIP3    H260728   6.675   1.907   4.910 -0.5066 -0.0364  1.4312
13105TIP3   OH260729   5.722   4.464  11.278 -0.0980  0.0450  0.1523
13105TIP3    H160730   5.697   4.412  11.202  0.6256 -0.2522  0.1106
13105TIP3    H260731   5.642   4.509  11.304 -0.5114 -0.3863 -0.3650
13106TIP3   OH260732   1.459   3.382  14.881 -0.2985 -0.5299  0.3179
13106TIP3    H160733   1.488   3.300  14.921 -1.1768 -0.2412  1.6300
13106TIP3    H260734   1.378   3.358  14.836  0.2589 -0.6864 -0.6132
13107TIP3   OH260735   2.822   5.764  14.968  0.1387 -0.3560 -0.9884
13107TIP3    H160736   2.765   5.834  14.938 -0.1305  0.1848  0.7113
13107TIP3    H260737   2.886   5.807  15.025  1.5392 -1.1253 -1.9108
13108TIP3   OH260738   5.965   5.982   4.777 -0.0035  0.3302 -0.0305
13108TIP3    H160739   5.920   6.013   4.856 -0.1444  0.2332 -0.0715
13108TIP3    H260740   6.007   5.900   4.804 -0.8754 -0.2262 -0.3106
13109TIP3   OH260741   1.513   1.307   2.526 -0.2666 -0.0059 -0.5694
13109TIP3    H160742   1.439   1.295   2.585 -0.8447  1.9746 -0.8074
13109TIP3    H260743   1.579   1.351   2.579  0.4615 -1.0746 -0.5688
13110TIP3   OH260744   1.856   5.554  16.797 -0.2110 -0.2922 -0.2724
13110TIP3    H160745   1.934   5.548  16.853  0.6058  1.1563 -1.1978
13110TIP3    H260746   1.798   5.486  16.831  0.2051  0.5357  2.3831
13111TIP3   OH260747   4.787   3.153   1.076 -0.6186 -0.2209 -0.1697
13111TIP3    H160748   4.729   3.138   1.150 -0.0964  0.7335  0.4509
13111TIP3    H260749   4.729   3.148   0.999 -1.6226  1.1315  0.4567
13112TIP3   OH260750   2.322   1.039  14.668 -0.0107  0.3302 -0.2051
13112TIP3    H160751   2.355   0.954  14.696  0.1837  0.6612  0.5840
13112TIP3    H260752   2.275   1.020  14.586  0.9206 -0.3642 -0.6018
13113TIP3   OH260753   4.271   0.112  14.331  0.8520  0.3895 -0.1322
13113TIP3    H160754   4.308   0.157  14.254  2.0077  0.1073  0.2416
13113TIP3    H260755   4.239   0.029  14.296  0.3518  0.7246 -0.4988
13114TIP3   OH260756   3.328   5.040   5.979 -0.4635  0.0932  0.2838
13114TIP3    H160757   3.347   4.946   5.973  0.1883  0.1999  0.5570
13114TIP3    H260758   3.406   5.077   6.020 -1.5363  0.4709  2.0900
13115TIP3   OH260759   5.384   5.549  13.375  0.1953 -0.1526 -0.1959
13115TIP3    H160760   5.319   5.545  13.445  2.3996 -0.3899  1.9594
13115TIP3    H260761   5.334   5.531  13.295 -2.2971 -0.6508  1.3620
13116TIP3   OH260762   5.460   3.638   3.573 -0.0173 -0.1130 -0.0795
13116TIP3    H160763   5.478   3.678   3.487  0.1277 -0.4883 -0.2257
13116TIP3    H260764   5.404   3.702   3.617  0.5309  0.4312 -0.1606
13117TIP3   OH260765   1.726   2.894   1.909  0.4600 -1.0302 -0.0752
13117TIP3    H160766   1.635   2.872   1.928  0.2031 -0.6058 -0.7746
13117TIP3    H260767   1.753   2.953   1.980 -0.1808 -0.2303 -0.4807
13118TIP3   OH260768   6.541   0.206  11.814  0.5749  0.6155 -0.1584
13118TIP3    H160769   6.551   0.192  11.908  0.9726 -0.4598 -0.3422
13118TIP3    H260770   6.450   0.180  11.796  0.6637  0.2968 -0.1538
13119TIP3   OH260771   2.553   4.135  11.220 -0.0576  0.3130  0.6649
13119TIP3    H160772   2.596   4.140  11.135 -0.2711  1.2252  0.5962
13119TIP3    H260773   2.505   4.218  11.228 -0.6827 -0.0903  1.3292
13120TIP3   OH260774   6.649   6.202   3.188  0.3735 -0.2773  0.1450
13120TIP3    H160775   6.559   6.220   3.215  0.4763  2.2821 -0.9501
13120TIP3    H260776   6.648   6.213   3.092  1.6758 -1.0680  0.0175
13121TIP3   OH260777   0.417   4.373  13.533  0.8794  0.4610 -0.0746
13121TIP3    H160778   0.455   4.433  13.597  0.6370 -0.5310  1.0234
13121TIP3    H260779   0.428   4.286  13.571 -1.8737  0.0475  0.0132
13122TIP3   OH260780   4.333   0.081   1.089  0.5757 -0.2033 -0.0547
13122TIP3    H160781   4.332   0.077   1.185 -0.4482 -2.0539 -0.0959
13122TIP3    H260782   4.385   0.004   1.063  0.1973 -0.1445 -0.9921
13123TIP3   OH260783   4.551   4.971   1.905 -0.0992  0.8585 -0.2696
13123TIP3    H160784   4.595   4.928   1.831  1.0121 -1.1815  1.4296
13123TIP3    H260785   4.467   4.926   1.912  0.0062  0.6995 -0.0098
13124TIP3   OH260786   5.167   0.040   2.179 -0.3168  0.4661 -0.3943
13124TIP3    H160787   5.246   0.067   2.225  0.2341 -0.4454 -0.7778
13124TIP3    H260788   5.162   0.098   2.103 -0.7521  1.3979  0.3313
13125TIP3   OH260789   2.673   0.180  15.861  0.5826  0.2312 -0.4833
13125TIP3    H160790   2.654   0.143  15.947  1.4629  0.3941 -0.2077
13125TIP3    H260791   2.674   0.105  15.802 -0.4277  0.1667 -0.4263
13126TIP3   OH260792   0.732   4.636  16.164  0.1073  0.0280  0.1954
13126TIP3    H160793   0.789   4.694  16.112  0.0007  0.6683  0.7870
13126TIP3    H260794   0.785   4.611  16.239 -0.7223  1.5091  1.3333
13127TIP3   OH260795   3.994   5.407   1.931  0.2152  0.2939  0.0542
13127TIP3    H160796   4.015   5.365   2.015  2.9818  1.9102  0.2988
13127TIP3    H260797   3.973   5.498   1.954 -1.0539  0.2737 -0.8764
13128TIP3   OH260798   0.811   3.145   4.735 -0.0058 -0.4218  0.2647
13128TIP3    H160799   0.849   3.127   4.649  1.2874  0.1245  0.6925
13128TIP3    H260800   0.741   3.207   4.718 -0.0423 -0.6371 -0.4335
13129TIP3   OH260801   6.712   3.969   1.003  0.5021  0.6713  0.1262
13129TIP3    H160802   6.747   3.940   1.087  0.0973 -0.2891 -0.0186
13129TIP3    H260803   6.789   3.986   0.949  0.7688 -0.2858  0.1795
13130TIP3   OH260804   4.620   1.372  15.944 -0.5806  0.2685 -0.5759
13130TIP3    H160805   4.530   1.380  15.975 -0.2180  1.7579  0.1383
13130TIP3    H260806   4.639   1.456  15.903  0.5822  0.0745 -0.4517
13131TIP3   OH260807   3.877   5.454  13.663  0.2182  0.0608  0.4057
13131TIP3    H160808   3.949   5.458  13.727  2.0468 -0.3101 -1.5274
13131TIP3    H260809   3.871   5.362  13.639  1.1169  0.4842 -1.5917
13132TIP3   OH260810   0.965   6.134  15.776  0.0057  0.0611  0.2420
13132TIP3    H160811   1.043   6.182  15.804 -0.3783  0.0898  1.2938
13132TIP3    H260812   0.899   6.201  15.759  0.1031  0.0173 -0.3352
13133TIP3   OH260813   1.711   0.324  16.263  0.1972 -1.0134  0.0793
13133TIP3    H160814   1.792   0.334  16.313  0.5347  0.5935 -0.7254
13133TIP3    H260815   1.692   0.412  16.231  0.1482 -1.9931 -2.8446
13134TIP3   OH260816   1.907   3.909  12.244  0.1518  0.3427 -0.4150
13134TIP3    H160817   1.999   3.911  12.272  0.2365 -0.6914 -0.5825
13134TIP3    H260818   1.886   3.816  12.237 -1.2359  0.5381  0.6597
13135TIP3   OH260819   4.785   3.023   5.894 -0.0596  0.0786  0.6367
13135TIP3    H160820   4.857   3.013   5.831 -1.2254 -1.5718 -0.4968
13135TIP3    H260821   4.776   3.118   5.905  0.8398  0.3734 -0.8949
13136TIP3   OH260822   2.532   0.452   5.092 -0.5173  0.5342  0.8067
13136TIP3    H160823   2.585   0.372   5.083  0.3343  1.2179 -0.7058
13136TIP3    H260824   2.596   0.520   5.115 -0.3861  1.6645 -2.4463
13137TIP3   OH260825   5.407   5.218   6.005  0.0735 -0.0191  0.1473
13137TIP3    H160826   5.481   5.157   6.008 -1.7281 -2.5800 -1.9581
13137TIP3    H260827   5.344   5.181   6.067 -0.3477  0.8409  0.2470
13138TIP3   OH260828   1.540   2.245   1.593  0.3276  0.0763 -0.6741
13138TIP3    H160829   1.494   2.278   1.516  1.8035  1.6849 -0.9352
13138TIP3    H260830   1.572   2.159   1.566 -0.4233 -0.0050 -1.3361
13139TIP3   OH260831   2.955   4.458   2.650 -0.2323  0.3157 -0.2519
13139TIP3    H160832   3.010   4.479   2.725  0.2937  0.9455 -0.7970
13139TIP3    H260833   2.888   4.399   2.684  0.7522 -0.4352  0.4350
13140TIP3   OH260834   3.417   5.527   0.518  0.9069 -0.6285 -0.0349
13140TIP3    H160835   3.325   5.517   0.494  0.5111  1.5262  0.4507
13140TIP3    H260836   3.463   5.532   0.435  0.7980 -2.9153 -0.3064
13141TIP3   OH260837   5.640   0.801  11.563  0.3006  0.3644 -0.2742
13141TIP3    H160838   5.716   0.823  11.509  0.0237 -0.2213 -0.9194
13141TIP3    H260839   5.604   0.885  11.591  1.5957  0.6545  0.6383
13142TIP3   OH260840   5.947   4.417   1.066 -0.8355  0.3819 -0.2634
13142TIP3    H160841   6.015   4.484   1.065 -0.9185  0.4865  0.4326
13142TIP3    H260842   5.995   4.334   1.061 -0.3281  0.2580  3.5436
13143TIP3   OH260843   4.112   3.595  12.256  0.9346  0.5764 -0.2730
13143TIP3    H160844   4.115   3.530  12.186 -0.1876 -0.2855  0.4313
13143TIP3    H260845   4.178   3.565  12.319  1.5038  0.9957 -0.6715
13144TIP3   OH260846   6.793   1.746  16.527  0.2060  0.1718  0.1710
13144TIP3    H160847   6.864   1.795  16.485  0.2970  0.0165  0.1439
13144TIP3    H260848   6.801   1.657  16.492 -0.3291  0.2820 -0.2303
13145TIP3   OH260849   1.825   6.335   3.327  0.0007  0.0791  0.3360
13145TIP3    H160850   1.791   6.246   3.331 -0.4035  0.2461  0.7162
13145TIP3    H260851   1.781   6.381   3.399  0.7819  0.3874  0.6296
13146TIP3   OH260852   0.452   2.049   5.669 -0.3386 -0.4536  0.4020
13146TIP3    H160853   0.371   2.074   5.626  0.5564  1.4974 -0.2647
13146TIP3    H260854   0.481   1.971   5.623 -0.4878  0.3850 -1.1817
13147TIP3   OH260855   1.655   2.579   4.519 -0.0741  0.2077 -0.3263
13147TIP3    H160856   1.559   2.572   4.515 -0.0466 -0.4253  0.0420
13147TIP3    H260857   1.680   2.610   4.432 -0.5607 -0.2965 -0.6499
13148TIP3   OH260858   4.962   3.602   4.901 -0.0428  0.3838  0.3920
13148TIP3    H160859   4.870   3.577   4.893 -0.2466  1.4168 -0.7876
13148TIP3    H260860   5.009   3.519   4.911 -0.9140 -0.3079 -0.9854
13149TIP3   OH260861   6.765   4.603   0.205  0.1303  0.0007 -0.4422
13149TIP3    H160862   6.673   4.631   0.208  0.2794  0.4242  0.6816
13149TIP3    H260863   6.788   4.587   0.296  0.3212 -3.0207 -0.9300
13150TIP3   OH260864   2.959   2.880   5.570 -0.5709  0.2727  0.4571
13150TIP3    H160865   2.990   2.909   5.484 -0.0049  0.3977  0.6919
13150TIP3    H260866   3.033   2.898   5.629 -1.0815  0.5249  1.0330
13151TIP3   OH260867   3.791   6.179   3.334 -0.2117  0.2190  0.2324
13151TIP3    H160868   3.738   6.112   3.376 -0.1469 -0.7175 -1.0963
13151TIP3    H260869   3.743   6.260   3.348 -1.3039 -0.4019  0.2188
13152TIP3   OH260870   5.229   0.905  11.885  0.4955 -0.0064  0.2224
13152TIP3    H160871   5.214   0.929  11.976 -1.7035 -1.1901  0.2410
13152TIP3    H260872   5.227   0.809  11.885 -0.7444 -0.0193 -1.2011
13153TIP3   OH260873   3.934   2.358  16.513  0.0030  0.7036  0.1520
13153TIP3    H160874   3.969   2.269  16.514  0.8967  1.0528  0.3598
13153TIP3    H260875   3.870   2.360  16.585 -1.7272 -0.4271 -1.2785
13154TIP3   OH260876   1.785   5.697  11.813  0.0813 -0.2610 -0.2090
13154TIP3    H160877   1.862   5.723  11.762  0.4194 -1.4523 -0.3314
13154TIP3    H260878   1.730   5.649  11.751  0.7649 -2.2411  0.6247
13155TIP3   OH260879   0.308   6.467   5.662 -0.3676 -0.4447 -0.2322
13155TIP3    H160880   0.227   6.460   5.611 -1.2202  0.0822  1.0201
13155TIP3    H260881   0.280   6.480   5.752  1.1100  0.8037  0.0947
13156TIP3   OH260882   5.109   4.608   0.965 -0.5220 -0.6129  0.1161
13156TIP3    H160883   5.061   4.586   0.885 -0.8061 -2.5800  0.7699
13156TIP3    H260884   5.186   4.552   0.963 -1.0134 -1.4153  1.6418
13157TIP3   OH260885   2.665   2.052   0.517  0.2777 -0.3456  0.3008
13157TIP3    H160886   2.712   2.075   0.437  0.1799  0.0111  0.3442
13157TIP3    H260887   2.679   2.127   0.575 -2.3838  0.9566 -0.5492
13158TIP3   OH260888   4.701   5.985   4.433  0.4497  0.9627 -0.2670
13158TIP3    H160889   4.654   5.938   4.502  0.3735  1.3512 -0.0514
13158TIP3    H260890   4.764   5.921   4.399  0.2789  0.6742 -0.0461
13159TIP3   OH260891   6.595   2.879   3.710 -0.1055 -0.3669 -0.3232
13159TIP3    H160892   6.619   2.863   3.619  2.7897 -0.4599  0.3718
13159TIP3    H260893   6.536   2.807   3.732  0.9647 -1.6589 -1.4985
13160TIP3   OH260894   0.137   4.738  16.232  0.2238 -0.7288  0.2380
13160TIP3    H160895   0.100   4.823  16.259  1.0689  0.1679 -1.2994
13160TIP3    H260896   0.178   4.704  16.312  0.8630  0.8591  0.6312
13161TIP3   OH260897   6.472   4.550  10.742 -0.5937 -0.3937 -0.2163
13161TIP3    H160898   6.509   4.472  10.701 -1.3038  0.0766 -1.8266
13161TIP3    H260899   6.494   4.621  10.682  1.6346  1.0213  2.0857
13162TIP3   OH260900   0.625   0.699   2.964  0.4622  0.1271 -0.3336
13162TIP3    H160901   0.556   0.705   2.898  0.5363  2.9169 -0.2516
13162TIP3    H260902   0.610   0.614   3.007 -1.5480 -0.3058 -1.7661
13163TIP3   OH260903   0.129   5.123   1.211  0.1222  0.2326  0.4666
13163TIP3    H160904   0.131   5.033   1.246  0.0231 -0.2595 -0.7503
13163TIP3    H260905   0.065   5.119   1.140 -0.2662  1.4079  0.7355
13164TIP3   OH260906   3.581   2.879  16.769 -0.1999 -0.4308  0.2104
13164TIP3    H160907   3.510   2.866  16.706 -2.1487 -0.0771  2.1671
13164TIP3    H260908   3.564   2.814  16.837  2.0163 -1.0210  0.2681
13165TIP3   OH260909   0.691   6.769  16.089 -0.1023 -0.0136 -0.3154
13165TIP3    H160910   0.706   6.848  16.141 -0.5566  0.4403 -0.8467
13165TIP3    H260911   0.736   6.787  16.006 -1.5929  0.4162 -1.0782
13166TIP3   OH260912   4.034   5.327   3.366 -0.2096 -0.5339  0.1451
13166TIP3    H160913   3.962   5.357   3.311  0.0834 -0.1866 -0.0577
13166TIP3    H260914   4.112   5.365   3.325  0.1392 -1.3020  0.0776
13167TIP3   OH260915   2.876   5.503   3.357  0.7793  0.5420  0.6492
13167TIP3    H160916   2.940   5.552   3.306  0.2949  2.4254  1.7682
13167TIP3    H260917   2.792   5.545   3.337 -0.0703 -1.3963 -0.2102
13168TIP3   OH260918   3.551   3.681   3.715  0.0243 -0.0473  0.3622
13168TIP3    H160919   3.486   3.611   3.705  0.7399 -0.7381  0.4860
13168TIP3    H260920   3.511   3.741   3.779 -0.6256 -0.2911  0.1979
13169TIP3   OH260921   5.340   2.589  14.007 -0.6094 -0.1591  0.1570
13169TIP3    H160922   5.284   2.570  13.931  0.2763 -1.8836 -0.1148
13169TIP3    H260923   5.279   2.598  14.080 -1.4271  0.8450 -0.6289
13170TIP3   OH260924   5.636   1.580   2.537  0.1216  0.0302  0.2259
13170TIP3    H160925   5.603   1.578   2.447 -0.4616  2.3525  0.3285
13170TIP3    H260926   5.668   1.491   2.553 -1.1837 -0.8524 -1.7323
13171TIP3   OH260927   0.917   1.178  12.544 -0.1500  0.1706 -0.0531
13171TIP3    H160928   1.003   1.204  12.510  1.7718 -4.1397  0.7776
13171TIP3    H260929   0.914   1.214  12.633  0.5730  0.7771 -0.2682
13172TIP3   OH260930   6.463   2.995  11.903  0.0249  0.1406 -1.0069
13172TIP3    H160931   6.424   2.910  11.926  0.3835  0.4958  1.1206
13172TIP3    H260932   6.409   3.059  11.949  1.6405  0.8156  0.0419
13173TIP3   OH260933   2.954   5.379  13.752  0.1750  0.8431  0.5697
13173TIP3    H160934   2.999   5.307  13.797 -0.3210  0.2647  0.1531
13173TIP3    H260935   2.879   5.399  13.808 -1.1032 -0.6531 -0.5226
13174TIP3   OH260936   5.281   6.642   2.386  0.4248 -0.2471  0.3488
13174TIP3    H160937   5.242   6.703   2.448  1.3921 -1.4406  2.2258
13174TIP3    H260938   5.210   6.581   2.363  0.5373 -1.0322  1.9499
13175TIP3   OH260939   6.601   0.157   4.820  0.4912 -0.5982 -0.4562
13175TIP3    H160940   6.608   0.128   4.729  1.6263 -0.5395 -0.3967
13175TIP3    H260941   6.646   0.089   4.871 -0.9618 -1.1349  0.1888
13176TIP3   OH260942   1.166   1.428   0.102 -0.1958 -0.2048 -0.3298
13176TIP3    H160943   1.217   1.357   0.064 -1.6821 -0.7724 -1.3644
13176TIP3    H260944   1.110   1.458   0.030 -0.5564  1.1099  0.4669
13177TIP3   OH260945   3.807   2.266  15.291 -0.6744  0.2030 -0.1284
13177TIP3    H160946   3.853   2.349  15.308 -0.7369  0.7400 -2.2849
13177TIP3    H260947   3.770   2.242  15.375  1.5912  0.9637  1.1931
13178TIP3   OH260948   3.426   2.515  11.675  0.0051  0.4369 -0.5586
13178TIP3    H160949   3.456   2.436  11.630 -0.9878 -0.9333  1.0316
13178TIP3    H260950   3.456   2.587  11.620  1.3933 -1.0167 -1.8198
13179TIP3   OH260951   1.588   2.303  15.605 -0.0096 -0.3203  0.0103
13179TIP3    H160952   1.606   2.283  15.513 -0.3699 -0.5066 -0.0223
13179TIP3    H260953   1.666   2.275  15.651  0.0388 -0.5459 -0.2023
13180TIP3   OH260954   4.403   4.069   2.803 -0.8579 -0.0188 -0.3376
13180TIP3    H160955   4.368   4.043   2.888 -3.0084 -0.0959 -1.1718
13180TIP3    H260956   4.379   4.162   2.795  2.9045  1.2089  0.7757
13181TIP3   OH260957   3.656   1.724  11.917 -0.0517 -0.3127  0.2207
13181TIP3    H160958   3.656   1.765  11.830 -1.0845  2.4503  1.3863
13181TIP3    H260959   3.577   1.670  11.918 -0.6637  0.5457 -0.1991
13182TIP3   OH260960   1.512   3.709  13.573 -0.3215 -0.9596 -0.1839
13182TIP3    H160961   1.419   3.730  13.580 -0.7012 -2.7242  0.4747
13182TIP3    H260962   1.550   3.741  13.655 -0.3281 -0.2646 -0.4404
13183TIP3   OH260963   3.055   1.892   3.775 -0.1450  0.2749 -0.4864
13183TIP3    H160964   3.027   1.890   3.867  2.6317  0.5777  0.4650
13183TIP3    H260965   3.115   1.819   3.767  0.9156  1.2301 -1.5981
13184TIP3   OH260966   1.625   4.565   4.937 -0.5560  0.2143 -0.1186
13184TIP3    H160967   1.711   4.589   4.903 -0.7416 -0.3636 -1.0323
13184TIP3    H260968   1.639   4.482   4.982 -0.7249 -0.1519 -0.7291
13185TIP3   OH260969   5.657   3.889   1.854 -0.0518 -0.4190  0.0054
13185TIP3    H160970   5.590   3.880   1.786  0.6817 -0.6558 -0.7005
13185TIP3    H260971   5.687   3.979   1.847 -0.0480 -0.4143  0.0823
13186TIP3   OH260972   0.040   3.799   2.296  0.4144  0.1042 -0.1908
13186TIP3    H160973  -0.019   3.781   2.369 -0.0555 -0.9286 -0.7981
13186TIP3    H260974  -0.017   3.832   2.227  0.6470 -0.2652 -0.5623
13187TIP3   OH260975   4.478   6.637   5.655  0.0189  0.6132 -0.1002
13187TIP3    H160976   4.402   6.663   5.707  1.1930  1.6000  1.1995
13187TIP3    H260977   4.459   6.668   5.567 -2.0985 -1.2427 -0.3781
13188TIP3   OH260978   1.864   2.435   0.743 -0.1539  0.2456  0.0744
13188TIP3    H160979   1.895   2.495   0.675  0.3118  0.0088  0.0800
13188TIP3    H260980   1.929   2.365   0.746 -0.9170 -0.4930 -0.2317
13189TIP3   OH260981   5.995   2.097  10.234  0.1907  0.5174  0.7396
13189TIP3    H160982   5.901   2.087  10.252  0.4938  2.4651  4.2542
13189TIP3    H260983   6.023   2.010  10.206 -2.6523 -0.0310 -0.8936
13190TIP3   OH260984   0.294   6.009   5.315  0.3275 -0.0840 -0.0242
13190TIP3    H160985   0.371   5.979   5.267  1.5115  1.5612  0.7574
13190TIP3    H260986   0.247   6.064   5.253 -0.0485 -0.8025 -0.3882
13191TIP3   OH260987   0.068   4.447   1.773  0.3189 -0.1661 -0.2290
13191TIP3    H160988   0.078   4.497   1.854 -1.5203 -0.9245  0.5332
13191TIP3    H260989   0.008   4.499   1.720 -1.3239 -1.3089  0.4219
13192TIP3   OH260990   5.250   3.494   2.317  0.4665  0.2729  0.4616
13192TIP3    H160991   5.205   3.578   2.326 -1.3946 -0.8274  2.2769
13192TIP3    H260992   5.213   3.456   2.237 -0.1036  0.3707  0.6736
13193TIP3   OH260993   1.971   3.306  14.634 -0.8577 -0.8971  0.7929
13193TIP3    H160994   1.966   3.310  14.729 -2.6295 -0.2450  0.7011
13193TIP3    H260995   2.064   3.321  14.614 -1.0256  2.9736  2.2605
13194TIP3   OH260996   4.736   5.236  16.933  0.2356 -0.0283  0.1771
13194TIP3    H160997   4.736   5.145  16.962 -0.3190 -0.6299 -1.5890
13194TIP3    H260998   4.822   5.248  16.892 -0.5614 -0.5312 -1.7422
13195TIP3   OH260999   0.062   3.406   0.132 -0.2563 -0.2847 -0.0657
13195TIP3    H161000   0.105   3.321   0.143  0.9641  0.5132  1.8469
13195TIP3    H261001  -0.024   3.394   0.173  0.6445 -0.1028  2.0054
13196TIP3   OH261002   6.794   0.708  13.950 -0.5197  0.4500 -0.1645
13196TIP3    H161003   6.720   0.745  13.999 -0.8082  0.7305 -0.8050
13196TIP3    H261004   6.871   0.735  14.000 -0.6201  3.0310 -1.2738
13197TIP3   OH261005   1.933   3.676  13.704  0.6761 -0.4443  0.2185
13197TIP3    H161006   1.867   3.724  13.755  2.3157  1.0225  1.0554
13197TIP3    H261007   1.944   3.727  13.624  0.0423 -1.2977 -0.4380
13198TIP3   OH261008   3.479   5.646  12.510 -0.9381 -0.3473  0.1293
13198TIP3    H161009   3.457   5.553  12.518  0.5686 -0.5877  2.1000
13198TIP3    H261010   3.485   5.677  12.600 -0.1477  1.3653 -0.4812
13199TIP3   OH261011   6.175   4.150   0.086 -0.4239  0.0548  0.2772
13199TIP3    H161012   6.173   4.074   0.028  2.1255 -1.8274  2.4287
13199TIP3    H261013   6.096   4.141   0.140 -0.3557 -0.8164  0.2424
13200TIP3   OH261014   3.099   2.109   5.187 -0.4840 -0.3502 -0.0596
13200TIP3    H161015   3.172   2.170   5.192 -1.5248  0.9313 -0.0575
13200TIP3    H261016   3.080   2.087   5.278  0.2091 -1.1181 -0.0784
13201TIP3   OH261017   2.997   0.038  11.691 -0.0331 -0.0720 -0.1878
13201TIP3    H161018   2.985   0.092  11.770 -2.5934  0.7072 -1.0110
13201TIP3    H261019   3.047   0.094  11.631  0.8114 -0.1885  0.3852
13202TIP3   OH261020   5.805   1.742  16.795 -1.0382  0.0942 -0.3303
13202TIP3    H161021   5.851   1.811  16.747 -0.9859 -0.6405 -1.3709
13202TIP3    H261022   5.725   1.784  16.828  0.4969  1.5167  1.8932
13203TIP3   OH261023   0.850   4.598   0.624  0.3043  0.1520 -0.7272
13203TIP3    H161024   0.785   4.642   0.570  0.1961 -0.2495 -0.9324
13203TIP3    H261025   0.934   4.627   0.590  0.2352 -0.0585 -1.0797
13204TIP3   OH261026   1.097   5.832  16.698  0.4305 -0.4826 -0.3813
13204TIP3    H161027   1.122   5.819  16.606  0.5335 -0.7015 -0.3222
13204TIP3    H261028   1.117   5.923  16.715  0.9002 -0.5731 -0.4281
13205TIP3   OH261029   6.028   5.469   5.175  0.3131 -0.3126  0.4271
13205TIP3    H161030   6.025   5.433   5.087  2.1016 -2.4915  1.1483
13205TIP3    H261031   5.988   5.401   5.230 -1.9162  1.5245  1.2311
13206TIP3   OH261032   4.116   2.898  14.814 -0.5469 -0.1406  0.0073
13206TIP3    H161033   4.166   2.911  14.895 -1.9434 -2.4791  1.3428
13206TIP3    H261034   4.041   2.956  14.823 -0.6228 -0.2864  0.3245
13207TIP3   OH261035   1.889   0.336  10.581 -0.1000 -0.0885  0.0855
13207TIP3    H161036   1.963   0.388  10.551 -0.1479 -0.6110 -0.9759
13207TIP3    H261037   1.882   0.265  10.517 -2.2165  0.5709 -0.4745
13208TIP3   OH261038   4.958   2.891   3.206 -0.1066  0.8285  0.5155
13208TIP3    H161039   4.866   2.861   3.210 -0.0320  0.6311  0.8382
13208TIP3    H261040   5.004   2.833   3.267  0.4377  0.2039 -0.4589
13209TIP3   OH261041   1.881   1.509   1.780 -0.3425  0.0638 -0.0601
13209TIP3    H161042   1.929   1.591   1.786 -0.4827  0.0550  1.3312
13209TIP3    H261043   1.949   1.444   1.760 -0.1664  0.4261 -0.6872
13210TIP3   OH261044   1.475   5.620  16.716  0.4703 -0.0864 -0.4119
13210TIP3    H161045   1.479   5.700  16.768  0.2352 -0.9240  0.9574
13210TIP3    H261046   1.521   5.641  16.635  2.4039  0.7813  0.8437
13211TIP3   OH261047   0.473   6.133   6.051  0.4765  0.0024  0.4274
13211TIP3    H161048   0.408   6.082   6.098  1.2245 -0.9876  0.4172
13211TIP3    H261049   0.425   6.209   6.017 -0.7768 -0.9914 -0.0729
13212TIP3   OH261050   4.016   5.396   1.436 -0.2696 -0.3381  0.4261
13212TIP3    H161051   3.971   5.311   1.438  0.0433 -0.5090  0.1269
13212TIP3    H261052   4.039   5.412   1.528 -2.2309  0.4446  0.8329
13213TIP3   OH261053   2.752   0.631  11.441  0.2990 -0.2652 -0.0619
13213TIP3    H161054   2.752   0.568  11.514  0.6367  0.8762  0.9558
13213TIP3    H261055   2.726   0.579  11.365 -0.6559 -1.3618  0.9740
13214TIP3   OH261056   5.662   3.219   3.797  0.2903 -0.0693 -0.0732
13214TIP3    H161057   5.675   3.165   3.719  1.0086 -0.8315  0.5568
13214TIP3    H261058   5.640   3.305   3.763 -1.1317 -0.7939 -1.1048
13215TIP3   OH261059   4.811   0.310  16.351 -0.5615  0.7593 -0.2310
13215TIP3    H161060   4.831   0.259  16.273  0.4639 -0.7017  0.9363
13215TIP3    H261061   4.884   0.371  16.360 -1.1606  1.5922 -0.9294
13216TIP3   OH261062   1.111   2.440   1.457  0.0853  0.1104  0.3496
13216TIP3    H161063   1.190   2.489   1.436  0.1956  0.8097  2.2262
13216TIP3    H261064   1.142   2.351   1.475  0.2927  0.1263  0.0810
13217TIP3   OH261065   3.452   5.848   6.079  0.0582  0.1932  0.3717
13217TIP3    H161066   3.500   5.797   6.144  0.0256 -0.0003  0.2460
13217TIP3    H261067   3.360   5.834   6.100  0.0009  2.5336  2.1626
13218TIP3   OH261068   1.875   3.252  12.078 -0.0945  0.0354 -0.3759
13218TIP3    H161069   1.811   3.323  12.070  0.8819  0.9342 -0.4677
13218TIP3    H261070   1.937   3.283  12.144  0.5609 -0.5590 -0.6980
13219TIP3   OH261071   1.092   0.322  11.619 -0.0341  0.4000  0.7643
13219TIP3    H161072   1.006   0.281  11.626  0.5667 -0.9749  0.4803
13219TIP3    H261073   1.082   0.388  11.551 -0.6966 -0.2571  0.2032
13220TIP3   OH261074   2.163   6.514  14.171 -0.4088  0.3962 -0.2240
13220TIP3    H161075   2.132   6.446  14.230  0.6599  0.1053  0.0303
13220TIP3    H261076   2.188   6.466  14.091  2.7371  0.0413  0.8217
13221TIP3   OH261077   2.092   1.197   0.134  0.0027 -0.1919 -0.3808
13221TIP3    H161078   2.166   1.157   0.179  0.5921  0.6553 -0.5793
13221TIP3    H261079   2.033   1.225   0.204  0.2861 -0.0730 -0.1897
13222TIP3   OH261080   4.888   4.234   2.253 -0.0921  0.0484 -0.3605
13222TIP3    H161081   4.947   4.295   2.211  1.1489  0.2043  1.5196
13222TIP3    H261082   4.865   4.275   2.336 -1.7411 -0.6475 -0.4300
13223TIP3   OH261083   0.255   1.970   2.180 -0.2046  0.1022  0.0292
13223TIP3    H161084   0.330   1.915   2.203 -0.2153 -0.2370 -0.6960
13223TIP3    H261085   0.229   2.012   2.262  0.4090 -0.2347  0.4014
13224TIP3   OH261086   1.170   1.590   0.539  0.3426  0.0727  0.0537
13224TIP3    H161087   1.265   1.594   0.534  0.3573 -0.8938 -0.8843
13224TIP3    H261088   1.140   1.606   0.449 -0.3524  0.0110  0.2652
13225TIP3   OH261089   6.590   6.308  13.635  0.0106  0.0097  0.5563
13225TIP3    H161090   6.651   6.378  13.613 -1.0704  0.6351 -0.6232
13225TIP3    H261091   6.535   6.346  13.704  0.1196 -0.0868  0.6979
13226TIP3   OH261092   4.001   3.134   0.850 -0.2609  0.1072 -0.2294
13226TIP3    H161093   4.012   3.070   0.781  1.5135 -0.1841  0.2898
13226TIP3    H261094   4.087   3.176   0.859 -0.5712  0.4621  1.4683
13227TIP3   OH261095   3.010   4.785   1.660  0.3912  0.4183  0.5188
13227TIP3    H161096   3.053   4.869   1.673  1.7467 -0.3865  1.4344
13227TIP3    H261097   3.082   4.722   1.651 -0.5927 -0.8554  1.2709
13228TIP3   OH261098   0.075   0.711   5.411  0.3188 -0.3144 -0.7735
13228TIP3    H161099  -0.003   0.654   5.408 -0.3460  0.6343 -2.3842
13228TIP3    H261100   0.131   0.670   5.478 -1.3315 -1.3005  0.0886
13229TIP3   OH261101   6.663   6.489   0.404 -0.2310 -0.0560  0.6520
13229TIP3    H161102   6.683   6.451   0.489  0.5185 -0.7032  0.1952
13229TIP3    H261103   6.686   6.582   0.413  0.2721 -0.2135  1.0119
13230TIP3   OH261104   2.710   5.957  11.686 -0.3200  0.1633 -0.0434
13230TIP3    H161105   2.802   5.931  11.680  0.1358  2.0540 -3.5740
13230TIP3    H261106   2.662   5.888  11.640 -0.1963  0.8824 -1.2922
13231TIP3   OH261107   6.086   1.419   3.138  0.0067  0.2575 -0.1995
13231TIP3    H161108   6.164   1.422   3.194 -0.4799  1.3022  0.4491
13231TIP3    H261109   6.077   1.326   3.116 -0.5166 -0.4251  2.5054
13232TIP3   OH261110   2.031   3.033  16.615  0.2489 -0.3724  0.1754
13232TIP3    H161111   1.983   3.105  16.572  0.2569  0.2619  1.2017
13232TIP3    H261112   1.998   2.954  16.572  2.7765  0.3434 -3.5160
13233TIP3   OH261113   2.271   0.695   4.741 -0.1542  0.8479 -0.5851
13233TIP3    H161114   2.351   0.666   4.697 -0.6211  1.0132 -1.5813
13233TIP3    H261115   2.283   0.670   4.832 -0.1029 -1.5837 -1.2059
13234TIP3   OH261116   0.427   5.433  13.845 -0.1229  1.1246  0.1344
13234TIP3    H161117   0.441   5.346  13.883 -0.7535  2.1002  2.8100
13234TIP3    H261118   0.451   5.423  13.753  0.9381 -1.5782  0.6116
13235TIP3   OH261119   1.465   4.219   4.928  0.4546 -0.0621 -0.1071
13235TIP3    H161120   1.503   4.205   4.841  0.2004 -2.5806  0.1130
13235TIP3    H261121   1.390   4.277   4.913  1.2706  0.7247 -1.3205
13236TIP3   OH261122   2.745   3.684   0.919 -0.0397 -0.4378 -0.0721
13236TIP3    H161123   2.727   3.770   0.880 -0.5940 -0.7236 -0.4578
13236TIP3    H261124   2.821   3.652   0.870 -1.2732 -1.1879 -1.6043
13237TIP3   OH261125   1.916   4.999   2.433 -0.7272  0.5181  0.7305
13237TIP3    H161126   1.912   4.976   2.340 -1.3471  3.4823 -0.1000
13237TIP3    H261127   1.922   4.915   2.479  2.0905 -1.0408 -2.0516
13238TIP3   OH261128   1.898   0.429   4.503  0.6696 -0.1270  0.0355
13238TIP3    H161129   1.906   0.377   4.583 -0.5034  1.1045  0.9957
13238TIP3    H261130   1.939   0.513   4.523 -1.4784  0.9767  0.1457
13239TIP3   OH261131   0.406   4.411   4.774 -0.0777  0.3093  0.1523
13239TIP3    H161132   0.431   4.456   4.855  1.6166  0.1368 -0.2305
13239TIP3    H261133   0.339   4.348   4.802  1.6952 -0.9772  1.7969
13240TIP3   OH261134   0.001   1.151   1.216  0.1767  0.6153  0.0330
13240TIP3    H161135   0.000   1.055   1.215 -0.7764  0.4362  3.4465
13240TIP3    H261136   0.085   1.175   1.178 -0.9578 -1.2795 -4.2984
13241TIP3   OH261137   0.244   4.807   1.026  0.2485  0.0439  0.9150
13241TIP3    H161138   0.293   4.783   0.946 -0.8624 -0.0835  0.2513
13241TIP3    H261139   0.278   4.894   1.049 -1.4059  1.4213 -1.4037
13242TIP3   OH261140   5.943   5.598  13.793  0.2732  0.1005 -0.1091
13242TIP3    H161141   5.860   5.593  13.746  0.7790  1.4251 -1.1988
13242TIP3    H261142   5.927   5.660  13.864  0.3651  0.5004 -0.4313
13243TIP3   OH261143   6.632   5.182   2.642  0.3672  0.4494  0.3403
13243TIP3    H161144   6.592   5.187   2.556 -0.5104 -0.6663  0.6558
13243TIP3    H261145   6.663   5.271   2.660  1.2985  0.5368 -1.4450
13244TIP3   OH261146   5.230   2.143   3.418 -0.6881  0.3526 -0.2912
13244TIP3    H161147   5.284   2.161   3.341 -0.2587  1.1488  0.1853
13244TIP3    H261148   5.208   2.050   3.410  3.2873 -0.9266  1.0488
13245TIP3   OH261149   6.017   6.421   2.774  0.4196  0.3640  0.5516
13245TIP3    H161150   6.017   6.487   2.843 -0.0994  1.0665 -0.1148
13245TIP3    H261151   5.939   6.368   2.791 -0.1757  1.0560  0.0250
13246TIP3   OH261152   5.891   2.695  10.930 -0.3489 -0.0130 -0.2413
13246TIP3    H161153   5.850   2.694  11.017  2.2780  0.0573  1.1116
13246TIP3    H261154   5.873   2.608  10.894 -0.6683 -0.3883  0.7800
13247TIP3   OH261155   3.932   3.827  14.566  0.4961 -0.0166 -0.0438
13247TIP3    H161156   3.996   3.789  14.506  1.0108  0.7283  0.0268
13247TIP3    H261157   3.938   3.773  14.645  1.2868  0.2508  0.0905
13248TIP3   OH261158   1.064   2.995  11.714 -0.1463  0.0678 -0.2340
13248TIP3    H161159   1.101   3.079  11.741 -1.6217  1.1217 -1.3644
13248TIP3    H261160   1.019   2.962  11.791 -0.9835  1.1455 -0.2457
13249TIP3   OH261161   3.063   4.190   5.210  0.0226 -0.4466  0.5614
13249TIP3    H161162   3.067   4.096   5.194 -1.3732 -0.1656 -2.0753
13249TIP3    H261163   3.151   4.215   5.236  0.8811 -2.2194 -0.5193
13250TIP3   OH261164   4.903   1.793  16.755  0.5403  0.3544 -0.3770
13250TIP3    H161165   4.889   1.698  16.762  2.3472  0.1248  0.8514
13250TIP3    H261166   4.936   1.806  16.666 -0.0315 -0.1067 -0.6672
13251TIP3   OH261167   1.983   5.736   1.793 -0.1396  0.6122 -0.1159
13251TIP3    H161168   2.075   5.741   1.767  0.4355 -1.1435  1.3226
13251TIP3    H261169   1.958   5.645   1.774 -0.6206  0.1819  2.1871
13252TIP3   OH261170   4.216   0.760  14.578  0.2555 -0.9773  0.0282
13252TIP3    H161171   4.261   0.820  14.519  0.8268 -1.8035 -0.3972
13252TIP3    H261172   4.262   0.767  14.661 -0.1898 -0.2339  0.2156
13253TIP3   OH261173   2.967   5.143   3.639 -0.4561  0.4091  0.7936
13253TIP3    H161174   2.980   5.185   3.553  1.6087 -1.1973  0.2500
13253TIP3    H261175   2.879   5.170   3.665 -1.2731  0.7417 -1.9599
13254TIP3   OH261176   0.271   1.931  14.751  0.1642  0.2891  0.1318
13254TIP3    H161177   0.318   2.009  14.721  1.9190 -1.3735 -1.7207
13254TIP3    H261178   0.335   1.882  14.802 -0.1620 -1.0491 -0.7036
13255TIP3   OH261179   2.892   6.145   2.981  0.3146 -0.1127 -0.0352
13255TIP3    H161180   2.844   6.170   3.061  1.8984  0.2116  0.8513
13255TIP3    H261181   2.906   6.228   2.935 -1.9229 -0.4564 -1.4937
13256TIP3   OH261182   1.220   5.888  13.348 -0.0614 -0.2785  0.1784
13256TIP3    H161183   1.246   5.973  13.382 -1.7552  0.3045  0.1121
13256TIP3    H261184   1.134   5.903  13.308  0.3485 -1.6584 -1.3417
13257TIP3   OH261185   1.387   3.999  16.415  0.4737  0.2134  0.1112
13257TIP3    H161186   1.308   4.007  16.362  0.4226 -1.0114 -0.0297
13257TIP3    H261187   1.459   4.011  16.354  0.4099 -0.7956 -0.1812
13258TIP3   OH261188   6.371   1.007  12.949 -0.5444 -0.1323  0.0905
13258TIP3    H161189   6.380   0.947  13.023 -1.5363 -1.7376 -1.0123
13258TIP3    H261190   6.290   0.978  12.905  0.7099 -0.1614 -2.3880
13259TIP3   OH261191   1.641   3.739  16.484 -0.0480 -0.1683 -0.0714
13259TIP3    H161192   1.635   3.643  16.487  2.4340 -0.3916  0.0753
13259TIP3    H261193   1.643   3.760  16.390  1.4477 -0.5005 -0.1471
13260TIP3   OH261194   3.200   0.328  15.619  1.3136 -0.3954 -0.1258
13260TIP3    H161195   3.174   0.236  15.612  3.0720 -1.1427  1.7235
13260TIP3    H261196   3.197   0.346  15.713  2.1070  1.0810 -0.3508
13261TIP3   OH261197   4.753   0.745  13.513  0.1004  0.2694  0.2421
13261TIP3    H161198   4.778   0.831  13.549 -0.4701  0.5940 -0.1174
13261TIP3    H261199   4.709   0.700  13.585  0.1909  0.3721  0.3617
13262TIP3   OH261200   0.157   2.966  13.053 -0.2191  0.0443  0.0183
13262TIP3    H161201   0.098   3.036  13.025 -0.3932 -0.1032  0.0134
13262TIP3    H261202   0.243   2.992  13.019  0.2285  1.4558  1.9824
13263TIP3   OH261203   5.158   2.648   5.690  0.8888 -0.3523 -0.4439
13263TIP3    H161204   5.230   2.706   5.668  0.8842  0.1230  0.7109
13263TIP3    H261205   5.190   2.560   5.669  1.1970 -0.0182 -1.4286
13264TIP3   OH261206   4.723   3.651   6.052  0.3561 -0.2172  0.5317
13264TIP3    H161207   4.641   3.607   6.033 -0.7634  2.4389 -1.4184
13264TIP3    H261208   4.701   3.744   6.054  3.4277  0.7147 -1.2578
13265TIP3   OH261209   2.215   2.836  14.067 -0.9550 -0.1664 -0.5761
13265TIP3    H161210   2.151   2.800  14.004 -0.4427 -1.4470 -0.4008
13265TIP3    H261211   2.239   2.921  14.031 -1.4198 -0.4512 -1.5939
13266TIP3   OH261212   0.962   6.486   3.376 -0.3656 -0.0199 -0.2246
13266TIP3    H161213   0.886   6.432   3.356 -0.5987  0.6395 -1.1634
13266TIP3    H261214   1.031   6.424   3.398 -1.1190 -0.6308  0.4676
13267TIP3   OH261215   0.880   3.756  10.735 -0.2854 -0.2799  0.3361
13267TIP3    H161216   0.879   3.664  10.709 -0.4565 -0.3668  0.6514
13267TIP3    H261217   0.845   3.757  10.824  0.9886 -0.0792  0.8683
13268TIP3   OH261218   3.114   2.994  14.201  0.2026  0.2425  0.6036
13268TIP3    H161219   3.036   3.047  14.214  0.0514 -0.0164  0.7461
13268TIP3    H261220   3.086   2.922  14.145  0.5255  0.5843 -0.0161
13269TIP3   OH261221   1.156   6.143   0.299 -0.2342 -0.2986 -0.4582
13269TIP3    H161222   1.138   6.083   0.371  0.2001  0.9704  0.7556
13269TIP3    H261223   1.075   6.146   0.248  0.0152 -2.5647 -1.0932
13270TIP3   OH261224   0.060   3.285  14.251 -0.0783 -0.0816 -0.3238
13270TIP3    H161225   0.110   3.277  14.333  0.6977  1.7033 -0.5566
13270TIP3    H261226   0.112   3.238  14.186  1.5504  1.9196 -0.6062
13271TIP3   OH261227   4.689   2.818   6.367 -0.0258  0.3599  0.1887
13271TIP3    H161228   4.717   2.738   6.413  1.7764  0.3978 -0.7476
13271TIP3    H261229   4.597   2.802   6.345  0.7207 -2.2267 -1.4699
13272TIP3   OH261230   3.380   5.992   3.167  0.5846  0.1658 -0.1778
13272TIP3    H161231   3.348   6.027   3.250 -2.7476 -1.2613 -0.7108
13272TIP3    H261232   3.469   5.961   3.188  0.6045  1.5989  2.2943
13273TIP3   OH261233   2.784   5.631   3.020 -0.4711  0.3518  0.3374
13273TIP3    H161234   2.738   5.620   3.102  0.6474  0.8078  1.0503
13273TIP3    H261235   2.833   5.713   3.030  1.4219 -0.6864  0.1118
13274TIP3   OH261236   3.593   3.834   5.615 -0.4127  0.7922 -0.7289
13274TIP3    H161237   3.616   3.877   5.533 -0.1480  1.1390 -0.4752
13274TIP3    H261238   3.500   3.851   5.626 -0.3673  1.0659 -0.7680
13275TIP3   OH261239   5.509   4.191  16.445 -0.0161  0.0501  0.0086
13275TIP3    H161240   5.516   4.110  16.395  0.6828 -0.5369  1.0115
13275TIP3    H261241   5.451   4.247  16.394 -2.0815 -1.7982  0.2321
13276TIP3   OH261242   2.942   0.375  14.049  0.3794  0.0758 -0.3237
13276TIP3    H161243   2.984   0.459  14.028  2.2947 -0.3554  1.4580
13276TIP3    H261244   2.977   0.351  14.135 -0.9436 -2.0467 -0.3009
13277TIP3   OH261245   3.083   1.042  13.655  0.1539  0.1223 -0.1354
13277TIP3    H161246   3.133   1.123  13.642  0.6973  0.0552  1.3934
13277TIP3    H261247   3.114   0.985  13.585  0.9329  0.6956 -0.2829
13278TIP3   OH261248   1.821   1.144   2.554  0.6360 -0.3357 -0.4404
13278TIP3    H161249   1.845   1.219   2.501 -0.9278 -0.0155 -0.7525
13278TIP3    H261250   1.903   1.115   2.595  1.2500  1.5821 -0.2375
13279TIP3   OH261251   2.225   1.117  13.660 -0.0787 -0.0015  0.1723
13279TIP3    H161252   2.305   1.122  13.607 -0.4364  0.5090 -0.3226
13279TIP3    H261253   2.156   1.099  13.597 -0.5458  0.8689  0.4193
13280TIP3   OH261254   5.796   4.481  11.530  0.2461 -0.3243 -0.3363
13280TIP3    H161255   5.759   4.457  11.445  0.1099 -1.0205 -0.0883
13280TIP3    H261256   5.817   4.574  11.522 -1.2984  0.0209 -0.5774
13281TIP3   OH261257   2.451   5.756  16.790  0.0402 -0.4207 -0.3438
13281TIP3    H161258   2.387   5.803  16.737 -0.0411 -0.9762 -0.7503
13281TIP3    H261259   2.401   5.684  16.829  0.2459 -0.3992 -0.0302
13282TIP3   OH261260   3.196   0.718  10.949  0.5837 -0.1811 -0.2796
13282TIP3    H161261   3.280   0.697  10.991  0.2777 -0.8945  0.0058
13282TIP3    H261262   3.130   0.697  11.015  0.2285  2.2110  0.2214
13283TIP3   OH261263   4.321   0.171  12.826 -0.3007  0.2977  0.4934
13283TIP3    H161264   4.385   0.197  12.760 -1.0492 -0.9174 -0.7605
13283TIP3    H261265   4.349   0.217  12.905 -0.4250  3.2670 -1.0592
13284TIP3   OH261266   0.597   1.844   1.618  0.0486  0.9491  0.1083
13284TIP3    H161267   0.545   1.924   1.617 -0.9734  0.3200  0.4988
13284TIP3    H261268   0.600   1.820   1.711  0.6177  0.7067  0.0270
13285TIP3   OH261269   2.191   6.741   1.872 -0.4347 -0.0150  0.0903
13285TIP3    H161270   2.251   6.757   1.800 -0.7492 -0.9817 -0.4048
13285TIP3    H261271   2.146   6.825   1.886  0.6023  0.5540  0.0860
13286TIP3   OH261272   3.671   2.685   3.427 -0.1269 -0.1234 -0.0637
13286TIP3    H161273   3.608   2.679   3.355  1.4658 -0.6045 -1.4755
13286TIP3    H261274   3.738   2.746   3.394 -0.0696  0.7595  1.5911
13287TIP3   OH261275   5.756   1.231  14.623 -0.0003 -0.2939 -0.0760
13287TIP3    H161276   5.770   1.285  14.546 -1.0399  0.4210  0.2143
13287TIP3    H261277   5.687   1.276  14.672 -0.1397 -1.3233  0.7133
13288TIP3   OH261278   5.051   1.895   3.792 -0.3272 -0.6717  0.0119
13288TIP3    H161279   5.130   1.921   3.839  1.1335 -2.2554 -1.4701
13288TIP3    H261280   5.040   1.962   3.724  0.1010 -0.7973 -0.1796
13289TIP3   OH261281   1.507   6.016   0.611 -0.3805 -0.4386  0.0332
13289TIP3    H161282   1.550   6.096   0.641 -0.8997  0.7035 -2.0461
13289TIP3    H261283   1.542   6.002   0.523 -1.8281 -1.3255 -0.4324
13290TIP3   OH261284   4.263   6.369   3.516 -0.2242 -0.2920 -0.1104
13290TIP3    H161285   4.171   6.345   3.528 -0.7601  1.8999  0.6437
13290TIP3    H261286   4.286   6.416   3.597  1.1342  0.4194 -0.8766
13291TIP3   OH261287   2.302   2.297  14.938 -0.2699 -0.5802 -0.0043
13291TIP3    H161288   2.286   2.391  14.933 -0.4358 -0.6560 -3.3887
13291TIP3    H261289   2.398   2.289  14.936 -0.2716 -0.4750 -0.8507
13292TIP3   OH261290   4.267   4.670   3.309  0.2161 -0.1466  0.5055
13292TIP3    H161291   4.283   4.725   3.386 -0.7460 -1.5702  1.7859
13292TIP3    H261292   4.183   4.700   3.275  1.6616  1.9947 -1.4214
13293TIP3   OH261293   3.337   6.027  16.353  0.0098  0.0739  0.1017
13293TIP3    H161294   3.265   5.971  16.323 -0.7255  0.4227  1.1573
13293TIP3    H261295   3.311   6.115  16.328  0.1924  0.1768  0.2732
13294TIP3   OH261296   6.377   1.684  12.153  0.4335 -0.3169  0.0511
13294TIP3    H161297   6.448   1.636  12.111  0.4267  0.1023 -0.4548
13294TIP3    H261298   6.419   1.763  12.188  0.5192 -0.8764  1.2261
13295TIP3   OH261299   2.926   1.170  13.271  0.1441  0.1167 -0.5458
13295TIP3    H161300   2.914   1.090  13.324 -1.7142 -0.5664 -1.8951
13295TIP3    H261301   2.980   1.142  13.198  0.5256  0.4171 -0.3813
13296TIP3   OH261302   0.922   3.094  12.312 -0.2727 -0.1784 -0.0481
13296TIP3    H161303   0.850   3.111  12.251 -0.6487 -0.0498  0.4223
13296TIP3    H261304   0.892   3.019  12.363 -0.3215  0.2370  0.5380
13297TIP3   OH261305   3.372   3.195   0.904 -0.3206  0.0083  0.0390
13297TIP3    H161306   3.459   3.210   0.867 -0.0279 -0.1131  0.6560
13297TIP3    H261307   3.342   3.114   0.862 -1.2769  1.4480 -2.1723
13298TIP3   OH261308   1.411   5.384  15.943 -0.4293  0.3358  0.6104
13298TIP3    H161309   1.480   5.444  15.969 -0.7087  0.0072  2.2443
13298TIP3    H261310   1.455   5.300  15.931 -0.3650  0.3972  0.4074
13299TIP3   OH261311   2.773   4.296  12.368 -0.4473  0.3412  0.1342
13299TIP3    H161312   2.711   4.364  12.394 -0.1597  0.7238 -0.1683
13299TIP3    H261313   2.787   4.245  12.448 -0.9907  0.3741  0.2555
13300TIP3   OH261314   1.821   3.171  12.690  0.4678 -0.0013  0.3299
13300TIP3    H161315   1.850   3.097  12.637  0.2662  0.5503 -0.5850
13300TIP3    H261316   1.780   3.132  12.767 -1.1900 -0.8738 -0.9570
13301TIP3   OH261317   3.469   0.485   3.488  0.4227  0.2737  0.5504
13301TIP3    H161318   3.538   0.503   3.424  0.8895 -0.5200  0.8166
13301TIP3    H261319   3.435   0.571   3.512  0.5137  0.6064 -0.4627
13302TIP3   OH261320   1.835   0.632  12.874 -0.2498 -0.6596  0.4889
13302TIP3    H161321   1.749   0.673  12.870 -0.1303 -0.5186 -3.0492
13302TIP3    H261322   1.838   0.573  12.799  2.4937 -1.1801  0.8792
13303TIP3   OH261323   0.812   4.260   0.335  0.4024  0.4582 -0.2104
13303TIP3    H161324   0.881   4.301   0.386  0.8087 -1.2650  0.7155
13303TIP3    H261325   0.804   4.172   0.372 -2.0741  0.4868 -0.4988
13304TIP3   OH261326   6.129   2.686  10.365 -0.1210  0.1499 -0.7688
13304TIP3    H161327   6.169   2.726  10.287  1.1811 -0.2381 -0.3270
13304TIP3    H261328   6.143   2.592  10.353  1.1193  0.1503  0.4574
13305TIP3   OH261329   5.289   5.138   6.247  0.1012  0.6708  0.1567
13305TIP3    H161330   5.313   5.168   6.335  0.7726 -1.1562  0.6304
13305TIP3    H261331   5.213   5.080   6.261 -0.2456  0.9387 -0.5633
13306TIP3   OH261332   4.718   4.936  12.227 -0.0018 -0.4224  0.2925
13306TIP3    H161333   4.794   4.995  12.229 -1.1877  1.1426  1.5257
13306TIP3    H261334   4.746   4.860  12.278  1.5986 -1.0712 -1.4352
13307TIP3   OH261335   0.728   1.763  13.733 -0.5394  0.8317  0.6144
13307TIP3    H161336   0.688   1.704  13.797 -1.1677  1.5878  0.9408
13307TIP3    H261337   0.676   1.751  13.654 -1.5156  1.8828  1.0667
13308TIP3   OH261338   5.363   1.462   4.519  0.1697 -0.4908  0.2800
13308TIP3    H161339   5.427   1.492   4.455  0.8925 -1.0961  0.7143
13308TIP3    H261340   5.355   1.535   4.580  0.6929 -0.5357  0.4068
13309TIP3   OH261341   2.938   2.741   6.326  0.0374  0.3645 -0.2299
13309TIP3    H161342   2.936   2.658   6.374 -1.2281  0.0872 -0.7297
13309TIP3    H261343   3.001   2.726   6.255 -1.1695 -0.6375 -1.1159
13310TIP3   OH261344   0.371   5.840  10.556 -0.3375  0.6253 -0.2112
13310TIP3    H161345   0.432   5.769  10.535 -0.9089 -0.1582  0.7504
13310TIP3    H261346   0.367   5.891  10.475 -1.5652 -1.6419 -1.7009
13311TIP3   OH261347   0.087   4.707   0.471 -0.0485 -0.2978 -0.0987
13311TIP3    H161348   0.038   4.627   0.487  0.1809 -0.4341 -0.0763
13311TIP3    H261349   0.168   4.696   0.520 -0.0983  0.0281  0.0582
13312TIP3   OH261350   4.386   0.541  16.045  0.1537 -0.6024  0.1366
13312TIP3    H161351   4.469   0.493  16.042  0.3960 -0.4334  2.2469
13312TIP3    H261352   4.408   0.624  16.087 -0.6465  0.5388 -1.6015
13313TIP3   OH261353   6.440   4.024  13.308  0.8727  0.7898  0.0447
13313TIP3    H161354   6.379   4.039  13.236  0.7855  0.2928  0.0135
13313TIP3    H261355   6.465   3.932  13.299  2.0235  1.1107 -0.2568
13314TIP3   OH261356   4.894   4.198   3.736 -0.1053  0.1130 -0.5000
13314TIP3    H161357   4.835   4.242   3.674 -0.4002 -1.2084 -1.1827
13314TIP3    H261358   4.866   4.230   3.822 -2.5488 -1.2607 -0.7097
13315TIP3   OH261359   0.565   0.674   4.088 -0.3385 -0.0877 -0.1129
13315TIP3    H161360   0.492   0.615   4.106  0.0853 -1.5175 -2.5940
13315TIP3    H261361   0.528   0.762   4.098 -1.8291 -0.7638  0.6369
13316TIP3   OH261362   3.603   2.578   5.259  0.5092 -0.0392 -0.2278
13316TIP3    H161363   3.640   2.662   5.286 -0.6440  0.2938  0.3851
13316TIP3    H261364   3.538   2.600   5.192  0.7085 -0.5229 -0.5946
13317TIP3   OH261365   4.604   1.703   5.426 -0.2398 -0.2515  0.0877
13317TIP3    H161366   4.511   1.722   5.437 -0.4031 -0.6382 -0.6215
13317TIP3    H261367   4.616   1.619   5.471 -0.2255 -0.1924  0.1953
13318TIP3   OH261368   2.864   1.631  14.364  0.3397 -0.6751  0.2888
13318TIP3    H161369   2.794   1.639  14.299  0.8630 -2.4880 -0.5675
13318TIP3    H261370   2.944   1.652  14.315  0.5206  0.3003  0.9813
13319TIP3   OH261371   4.373   6.699   4.416  0.3289  0.3799  0.6518
13319TIP3    H161372   4.402   6.657   4.335 -2.0007 -0.1674  0.0132
13319TIP3    H261373   4.413   6.786   4.414  0.2609  0.4168 -1.1468
13320TIP3   OH261374   4.815   1.092  14.018 -0.1890 -0.0498  0.1842
13320TIP3    H161375   4.801   0.999  13.999 -1.9795 -0.1545  1.7304
13320TIP3    H261376   4.886   1.093  14.083 -0.4334 -0.3543  0.4526
13321TIP3   OH261377   2.936   5.102  14.142  0.1242 -0.1808  0.3158
13321TIP3    H161378   2.990   5.128  14.217  1.8559 -0.1796 -0.8720
13321TIP3    H261379   2.847   5.095  14.178  0.9610 -0.6931  2.4806
13322TIP3   OH261380   2.649   1.549  11.336  0.0453 -0.5440 -0.0105
13322TIP3    H161381   2.708   1.570  11.264  0.3820 -1.7905 -0.1266
13322TIP3    H261382   2.625   1.458  11.321 -0.4086 -0.6180  1.0887
13323TIP3   OH261383   5.302   1.792  12.949 -0.4217  0.2869 -0.0994
13323TIP3    H161384   5.238   1.815  13.016 -0.3388 -1.6273  0.7145
13323TIP3    H261385   5.383   1.775  12.998  0.4676  1.6700 -1.0088
13324TIP3   OH261386   3.019   4.849   5.964  0.3885 -0.4980 -0.5590
13324TIP3    H161387   2.995   4.773   5.911 -0.3796 -0.1786 -0.6807
13324TIP3    H261388   3.065   4.812   6.039  1.7745 -0.9321 -1.5787
13325TIP3   OH261389   6.180   5.046  16.092  0.5705  0.3897 -0.1353
13325TIP3    H161390   6.222   5.119  16.138 -0.0757 -0.4253  1.8315
13325TIP3    H261391   6.088   5.051  16.116  0.4242 -0.7673 -0.3720
13326TIP3   OH261392   1.923   3.387   0.606  0.0661 -0.2251 -0.5899
13326TIP3    H161393   1.982   3.352   0.674  1.1305  2.5683  0.0622
13326TIP3    H261394   1.979   3.444   0.554 -1.4075 -0.0421 -2.0409
13327TIP3   OH261395   5.046   4.813  13.673 -0.9033  0.2585 -0.4239
13327TIP3    H161396   4.957   4.812  13.638 -1.0122  1.0783 -0.1819
13327TIP3    H261397   5.062   4.722  13.699 -2.4612  0.4566  1.4916
13328TIP3   OH261398   0.389   0.258  11.525 -0.4104 -0.4154  0.3824
13328TIP3    H161399   0.420   0.255  11.616  0.0037  1.0039  0.3173
13328TIP3    H261400   0.376   0.352  11.507  1.3080 -0.4918 -1.6020
13329TIP3   OH261401   6.711   4.668   4.901 -0.2177  0.1681 -0.0162
13329TIP3    H161402   6.669   4.595   4.856  0.9054  0.8944 -2.3713
13329TIP3    H261403   6.639   4.710   4.949 -1.7115 -0.1313 -1.8580
13330TIP3   OH261404   5.506   3.581   2.024  0.2656  0.6774  0.7697
13330TIP3    H161405   5.450   3.511   2.056  1.2048 -0.1800  0.6149
13330TIP3    H261406   5.453   3.625   1.957 -1.0689  1.4068  2.2541
13331TIP3   OH261407   5.095   1.346  11.314 -0.3758  0.0828 -0.1121
13331TIP3    H161408   5.178   1.392  11.306 -1.6309  2.7884  1.2366
13331TIP3    H261409   5.116   1.267  11.365  1.7469 -0.7604 -2.0959
13332TIP3   OH261410   6.551   0.148  17.139 -0.1496 -0.0346  0.5298
13332TIP3    H161411   6.512   0.182  17.059  1.5038 -0.0578 -0.3258
13332TIP3    H261412   6.642   0.132  17.116 -0.2759 -2.8156  1.5618
13333TIP3   OH261413   5.599   3.569   2.633 -0.0661 -0.3952  0.3162
13333TIP3    H161414   5.626   3.649   2.588  1.4367 -0.0082  1.7877
13333TIP3    H261415   5.663   3.503   2.606 -0.3286 -0.6665  0.3567
13334TIP3   OH261416   2.041   3.888  14.578 -0.2408 -0.3430 -0.0131
13334TIP3    H161417   2.046   3.804  14.623  0.9843  1.1308  2.8626
13334TIP3    H261418   2.048   3.953  14.648  1.5180  2.1636 -2.3348
13335TIP3   OH261419   4.285   4.626  13.056 -0.6030  0.2951  0.5378
13335TIP3    H161420   4.349   4.697  13.062 -0.9846  0.9596 -2.1270
13335TIP3    H261421   4.338   4.547  13.052  0.0018  0.7158 -0.0021
13336TIP3   OH261422   1.278   2.725   4.113 -0.6605  0.2595 -0.1070
13336TIP3    H161423   1.193   2.682   4.120 -0.7423  0.3523 -0.4834
13336TIP3    H261424   1.290   2.738   4.019  0.2864 -0.7850 -0.1428
13337TIP3   OH261425   0.536   3.729  12.896  0.3784  0.8157 -0.3759
13337TIP3    H161426   0.521   3.819  12.868  0.8034  1.0392  0.0842
13337TIP3    H261427   0.631   3.719  12.895  0.4984  1.1168  1.7293
13338TIP3   OH261428   0.233   4.292   5.831 -0.2111  0.1082  0.2517
13338TIP3    H161429   0.313   4.286   5.778  0.1054 -2.2627  0.8607
13338TIP3    H261430   0.252   4.360   5.896  1.7783 -1.0556  1.0082
13339TIP3   OH261431   2.605   1.378  13.658  0.1190  0.2865  0.8270
13339TIP3    H161432   2.530   1.328  13.689  0.3546 -0.4345  0.2477
13339TIP3    H261433   2.609   1.362  13.564 -0.2394  1.9839  0.4786
13340TIP3   OH261434   6.042   3.748  16.167  0.2996 -0.2033  0.8814
13340TIP3    H161435   6.053   3.717  16.257  1.1061  0.8273  1.1582
13340TIP3    H261436   6.051   3.843  16.173  0.8094 -0.1531 -0.3435
13341TIP3   OH261437   6.206   5.604   0.991  0.2251 -0.3835 -0.2698
13341TIP3    H161438   6.257   5.678   0.958  1.7794 -1.1413  0.3187
13341TIP3    H261439   6.212   5.613   1.086  1.8643 -2.1491 -0.1523
13342TIP3   OH261440   3.644   6.416   4.972  0.0080 -0.0029  0.3959
13342TIP3    H161441   3.608   6.420   5.060 -1.1800  0.2765 -0.0782
13342TIP3    H261442   3.690   6.332   4.968 -1.2594 -0.7314  0.7881
13343TIP3   OH261443   3.411   5.988  12.923 -0.1437 -0.3432 -0.1956
13343TIP3    H161444   3.340   6.051  12.910  0.5909  0.4797 -0.2926
13343TIP3    H261445   3.470   6.002  12.849  1.1654  0.4348  0.9384
13344TIP3   OH261446   6.610   3.307   4.459  0.1797 -0.1726 -0.3005
13344TIP3    H161447   6.687   3.359   4.480 -0.6608  1.7919 -1.7248
13344TIP3    H261448   6.601   3.314   4.364 -2.5669  0.9974 -0.0752
13345TIP3   OH261449   5.421   5.918  16.369  0.8000 -0.3799 -0.3496
13345TIP3    H161450   5.363   5.921  16.293  1.2248  0.1969 -0.6612
13345TIP3    H261451   5.507   5.941  16.334  0.9552  0.1398  0.3517
13346TIP3   OH261452   6.720   2.886   0.468 -0.3129  0.5821 -0.4208
13346TIP3    H161453   6.759   2.869   0.554 -0.0876  0.6198 -0.5158
13346TIP3    H261454   6.695   2.800   0.435  1.5370  0.3083 -1.2479
13347TIP3   OH261455   4.979   6.432   0.321 -0.9632  0.4037  0.7810
13347TIP3    H161456   5.017   6.402   0.238  0.2859 -1.1927  1.8502
13347TIP3    H261457   4.916   6.499   0.296 -1.0764 -0.4652 -1.5067
13348TIP3   OH261458   2.901   5.357   1.598  0.0012 -0.1928  0.0048
13348TIP3    H161459   2.958   5.344   1.522 -0.7980 -0.2568 -0.5984
13348TIP3    H261460   2.948   5.420   1.652  0.9853 -0.8003 -0.1168
13349TIP3   OH261461   4.109   3.499   1.848 -0.6085  0.0965  0.1416
13349TIP3    H161462   4.017   3.512   1.826 -0.8455 -0.1355  0.9622
13349TIP3    H261463   4.145   3.587   1.858 -0.9534  0.1810  0.6544
13350TIP3   OH261464   6.247   1.610  15.181 -0.4533 -0.4560  0.0361
13350TIP3    H161465   6.304   1.666  15.128  0.1892 -1.1582 -0.0304
13350TIP3    H261466   6.216   1.668  15.251 -3.1734  1.1501 -2.3045
13351TIP3   OH261467   4.729   2.893   1.232 -0.0562 -0.1246 -0.2144
13351TIP3    H161468   4.801   2.916   1.290 -0.7105  0.1131  0.5186
13351TIP3    H261469   4.664   2.850   1.289 -1.3898  1.4934 -0.4316
13352TIP3   OH261470   0.744   6.548   5.406 -0.6319 -0.2165 -0.0484
13352TIP3    H161471   0.782   6.587   5.486  0.7714 -4.1620  1.4305
13352TIP3    H261472   0.659   6.514   5.435 -0.1992 -1.4967 -0.2543
13353TIP3   OH261473   5.281   0.287  11.253 -0.5618 -0.1812  0.3481
13353TIP3    H161474   5.258   0.329  11.170 -1.1961 -0.5909  0.3080
13353TIP3    H261475   5.219   0.214  11.261  0.5017 -1.0973  0.4259
13354TIP3   OH261476   2.766   5.889   3.462  0.2129 -0.3177 -0.0533
13354TIP3    H161477   2.785   5.800   3.493  0.4497  0.3306  1.7622
13354TIP3    H261478   2.694   5.878   3.401  0.6427 -1.8237 -0.3407
13355TIP3   OH261479   2.810   4.930  13.117 -0.0766 -0.2127  0.3125
13355TIP3    H161480   2.726   4.935  13.073  0.0842  2.3682  0.1286
13355TIP3    H261481   2.857   4.860  13.072 -1.1012  0.1906 -1.4924
13356TIP3   OH261482   1.078   5.338   2.949 -0.1744 -0.4712  1.6245
13356TIP3    H161483   1.136   5.370   3.017  2.0997  0.4992 -0.6036
13356TIP3    H261484   1.054   5.416   2.899  0.6318 -1.4105 -0.3710
13357TIP3   OH261485   5.534   3.213  12.448 -0.0830  0.2236  0.4825
13357TIP3    H161486   5.471   3.144  12.469  0.3440 -0.6922 -1.0791
13357TIP3    H261487   5.485   3.275  12.394 -0.0983  0.4327  0.7329
13358TIP3   OH261488   4.141   0.828  16.300 -0.2932 -0.3682  0.0811
13358TIP3    H161489   4.053   0.861  16.284  0.1028  0.3838 -0.5911
13358TIP3    H261490   4.183   0.829  16.215 -0.5544 -3.5790 -0.2220
13359TIP3   OH261491   6.756   6.792  11.516 -0.1653  0.5086  0.3346
13359TIP3    H161492   6.687   6.775  11.453  0.4272  2.2994 -0.8954
13359TIP3    H261493   6.786   6.881  11.495  1.2473  0.4908  2.0207
13360TIP3   OH261494   5.426   5.218   3.171  0.0271 -0.1743  0.4102
13360TIP3    H161495   5.335   5.219   3.142 -0.2386  0.5300  1.2087
13360TIP3    H261496   5.421   5.242   3.264  1.0436  0.0671  0.4119
13361TIP3   OH261497   3.915   6.170  11.647  0.3836  0.2605  0.5135
13361TIP3    H161498   3.855   6.213  11.708  1.0811  0.1558  1.2890
13361TIP3    H261499   3.941   6.089  11.692 -0.4231 -0.6876 -0.6603
13362TIP3   OH261500   0.765   6.189  13.335  0.2144  0.0467  0.5753
13362TIP3    H161501   0.723   6.105  13.350 -0.8317  0.6491  1.1643
13362TIP3    H261502   0.858   6.174  13.355 -0.0331 -0.8539  1.1030
13363TIP3   OH261503   3.000   1.991  15.889 -0.2277 -0.3637  0.4298
13363TIP3    H161504   3.018   1.906  15.930  1.2665 -0.5935 -0.6295
13363TIP3    H261505   3.035   1.983  15.800  0.4729  1.5466  0.4792
13364TIP3   OH261506   0.865   3.816   5.576  0.5493  0.0194  0.3484
13364TIP3    H161507   0.828   3.810   5.665  2.3298 -1.6238  1.0467
13364TIP3    H261508   0.829   3.740   5.530  1.1259 -0.2149  0.2771
13365TIP3   OH261509   2.728   4.589   0.027 -0.1131  0.4030 -0.3396
13365TIP3    H161510   2.761   4.649   0.094 -1.4916  1.7792 -0.8216
13365TIP3    H261511   2.793   4.593  -0.043  0.7732 -0.1774  0.4379
13366TIP3   OH261512   4.556   2.302   3.565 -0.0353 -0.2287 -0.1753
13366TIP3    H161513   4.522   2.215   3.544 -0.1464 -0.3570  0.5308
13366TIP3    H261514   4.551   2.308   3.660  1.1392  0.0724 -0.1125
13367TIP3   OH261515   3.101   2.040  12.309  0.0377 -0.3269 -0.4564
13367TIP3    H161516   3.082   1.972  12.244  1.1224 -1.6373  0.5540
13367TIP3    H261517   3.018   2.055  12.354 -0.0636 -1.4642 -0.2565
13368TIP3   OH261518   5.156   4.113   5.080 -0.1823 -0.2537  0.3911
13368TIP3    H161519   5.218   4.049   5.116 -0.1203 -0.0418  0.6615
13368TIP3    H261520   5.129   4.165   5.156 -1.5663 -1.0746  0.5168
13369TIP3   OH261521   3.126   2.314   1.076 -0.5686  0.0174  0.3319
13369TIP3    H161522   3.109   2.220   1.076  0.5062 -0.1924 -0.7460
13369TIP3    H261523   3.218   2.323   1.052 -0.4145  1.3221  1.2771
13370TIP3   OH261524   0.611   1.588   5.468 -0.0515  0.0683  0.0764
13370TIP3    H161525   0.687   1.642   5.444 -0.5304  0.7286  0.0151
13370TIP3    H261526   0.621   1.573   5.562  0.3371 -0.1430  0.0042
13371TIP3   OH261527   1.928   1.920  12.108  0.2999  0.3472  0.5218
13371TIP3    H161528   1.898   1.972  12.182  1.2838  0.1790  1.0457
13371TIP3    H261529   1.875   1.951  12.034 -1.1351  0.0693  1.4043
13372TIP3   OH261530   5.901   6.439  13.207 -0.0878  0.6749 -0.1483
13372TIP3    H161531   5.895   6.343  13.201 -0.0978  0.7029 -0.7279
13372TIP3    H261532   5.903   6.458  13.300  2.3470 -0.0235 -0.0009
13373TIP3   OH261533   4.259   4.086  14.150 -0.0434  0.4523  0.2872
13373TIP3    H161534   4.225   4.091  14.239  0.8297  0.7844  0.6165
13373TIP3    H261535   4.344   4.130  14.155  0.3121 -0.1193 -0.5656
13374TIP3   OH261536   6.530   2.491  12.869  0.1380  0.3094  0.1789
13374TIP3    H161537   6.537   2.542  12.789  0.7365  1.5593  0.9898
13374TIP3    H261538   6.465   2.537  12.922 -2.3546 -2.0252 -0.6154
13375TIP3   OH261539   6.542   6.405   5.052 -0.1709 -0.1258  0.1474
13375TIP3    H161540   6.469   6.361   5.008 -0.0864 -1.3579  1.1889
13375TIP3    H261541   6.620   6.368   5.010 -0.0601 -1.9468  1.8024
13376TIP3   OH261542   6.373   4.986  14.267 -0.3706  0.5655  0.1426
13376TIP3    H161543   6.334   5.053  14.210 -1.2507 -0.9136 -1.0849
13376TIP3    H261544   6.463   4.980  14.237 -0.6806  0.1911 -0.7670
13377TIP3   OH261545   0.064   2.446   1.285  0.5618  0.4239 -0.2490
13377TIP3    H161546   0.146   2.429   1.331  0.5494  0.1638 -0.3157
13377TIP3    H261547   0.033   2.530   1.318 -0.6345 -0.7958  1.9341
13378TIP3   OH261548   3.241   5.512  13.693 -0.5530 -0.1675 -1.0767
13378TIP3    H161549   3.310   5.560  13.739 -0.6002  0.0667 -1.2486
13378TIP3    H261550   3.285   5.433  13.661 -1.0550 -1.5591  1.4139
13379TIP3   OH261551   2.068   3.383   1.666 -0.2852  0.3729  0.0563
13379TIP3    H161552   2.118   3.333   1.731 -1.1986  0.2660  0.6978
13379TIP3    H261553   2.067   3.472   1.699  2.4897  1.2045 -1.7578
13380TIP3   OH261554   1.796   3.946   2.355 -0.3242 -0.0385  0.4675
13380TIP3    H161555   1.730   3.930   2.286  0.1519  1.4824 -0.3745
13380TIP3    H261556   1.836   4.029   2.331  0.6579 -0.0445  1.9856
13381TIP3   OH261557   0.069   0.105  14.042 -0.5277 -0.2423 -0.0250
13381TIP3    H161558   0.054   0.119  14.135 -0.0390  0.4336 -0.0491
13381TIP3    H261559   0.071   0.192  14.004  0.4346 -0.4537 -0.4915
13382TIP3   OH261560   5.465   5.405   1.427 -0.1205 -0.6321 -0.6110
13382TIP3    H161561   5.508   5.470   1.482  0.6641 -1.3038 -0.4053
13382TIP3    H261562   5.391   5.451   1.388 -0.9367 -0.2504  1.3127
13383TIP3   OH261563   3.138   6.448   4.816  1.0059  0.2742  0.3554
13383TIP3    H161564   3.209   6.421   4.757  1.1984 -1.5190  1.3453
13383TIP3    H261565   3.090   6.368   4.835 -0.1449  1.1336  1.2184
13384TIP3   OH261566   5.194   5.430  13.202 -0.4083  0.2978 -0.2257
13384TIP3    H161567   5.247   5.408  13.125 -0.8378 -0.0240 -0.4312
13384TIP3    H261568   5.225   5.370  13.270 -0.0170  0.5939 -0.1417
13385TIP3   OH261569   2.005   5.711   5.585 -0.1938 -0.3779 -0.3588
13385TIP3    H161570   2.053   5.649   5.640 -0.1978  0.3046  0.4196
13385TIP3    H261571   1.991   5.788   5.640  1.1352  0.9508 -1.7755
13386TIP3   OH261572   3.137   1.669   5.493 -0.6952 -0.0616  0.2212
13386TIP3    H161573   3.123   1.720   5.572  0.4255 -0.3161  0.6000
13386TIP3    H261574   3.068   1.603   5.494 -0.3441 -0.4201  1.2817
13387TIP3   OH261575   1.665   6.770   1.956  0.2063 -0.1658  0.1776
13387TIP3    H161576   1.574   6.795   1.971  0.5360  0.0604  2.0108
13387TIP3    H261577   1.714   6.814   2.026  1.4922 -1.7099  0.3061
13388TIP3   OH261578   4.371   0.988   3.013  0.7026  0.2565 -0.5919
13388TIP3    H161579   4.406   0.973   3.101  0.4868  0.2688 -0.5032
13388TIP3    H261580   4.395   0.910   2.964 -0.5998 -0.5055 -0.0743
13389TIP3   OH261581   4.743   5.458  12.568 -0.5062 -0.5046  0.1644
13389TIP3    H161582   4.778   5.453  12.480 -2.6752 -0.2842 -0.7816
13389TIP3    H261583   4.728   5.551  12.583 -0.5515 -0.5763  0.5988
13390TIP3   OH261584   4.304   3.897  15.512 -0.2698 -0.0713 -0.3149
13390TIP3    H161585   4.396   3.882  15.487 -0.2839  0.2898 -0.5988
13390TIP3    H261586   4.260   3.815  15.491  0.3773 -1.0170  1.8194
13391TIP3   OH261587   2.033   3.208   5.973 -0.2836  0.1885 -0.3142
13391TIP3    H161588   1.955   3.251   6.009  0.7956  1.6013  0.4339
13391TIP3    H261589   2.053   3.258   5.894 -0.5903 -0.6941 -0.9678
13392TIP3   OH261590   6.703   3.367  14.803 -0.9042 -0.2686  0.2839
13392TIP3    H161591   6.712   3.341  14.712 -0.1775  0.1586  0.2317
13392TIP3    H261592   6.779   3.329  14.847 -0.0208  1.4211  0.2736
13393TIP3   OH261593   6.065   6.235  14.427 -0.4325  0.2981 -0.1322
13393TIP3    H161594   6.032   6.320  14.400 -0.9934 -0.1357 -0.8577
13393TIP3    H261595   6.160   6.241  14.417 -0.4837  0.7851 -0.3332
13394TIP3   OH261596   3.276   6.301  15.168 -0.2858  0.1736 -0.2025
13394TIP3    H161597   3.325   6.383  15.169 -0.2845  0.1665  0.2667
13394TIP3    H261598   3.290   6.263  15.255  0.9434 -1.0478 -0.8912
13395TIP3   OH261599   0.946   4.773  16.016  0.5214 -0.1822 -0.0852
13395TIP3    H161600   0.930   4.864  16.040 -0.1392 -0.4108  0.4013
13395TIP3    H261601   0.912   4.765  15.927  0.5457  0.0384 -0.1147
13396TIP3   OH261602   3.155   2.574  13.664 -0.1738 -1.1432  0.6742
13396TIP3    H161603   3.203   2.636  13.720 -1.7294 -0.1657  0.9939
13396TIP3    H261604   3.063   2.595  13.679 -0.6797 -1.9706 -1.0218
13397TIP3   OH261605   6.438   2.092  17.037 -0.3723 -0.7427 -0.4687
13397TIP3    H161606   6.446   2.128  16.948 -1.7230  0.0083 -0.3264
13397TIP3    H261607   6.526   2.062  17.059  0.3893  0.6619 -1.4002
13398TIP3   OH261608   2.336   2.317   5.732 -0.3228  0.2613 -0.0637
13398TIP3    H161609   2.386   2.300   5.812  0.5850  0.0427 -0.6639
13398TIP3    H261610   2.400   2.353   5.670 -1.5132  2.9428  0.1147
13399TIP3   OH261611   1.156   0.547  12.573  0.5212 -0.0581 -0.4749
13399TIP3    H161612   1.078   0.555  12.628 -0.1146 -1.3031 -1.1461
13399TIP3    H261613   1.128   0.493  12.499  1.9708 -0.4000 -0.8146
13400TIP3   OH261614   5.073   4.040   3.577 -0.8877  0.3567 -0.1091
13400TIP3    H161615   5.010   3.979   3.538 -0.6219 -0.4465  0.6797
13400TIP3    H261616   5.026   4.079   3.651 -0.3348 -0.6223  0.7967
13401TIP3   OH261617   4.545   3.726   4.558 -0.3473  0.2775  0.3030
13401TIP3    H161618   4.540   3.631   4.572 -0.0157  0.0252 -1.1107
13401TIP3    H261619   4.454   3.752   4.542 -0.5690  0.3785  1.6025
13402TIP3   OH261620   3.791   3.851   3.993 -0.3523  0.3730  0.0702
13402TIP3    H161621   3.846   3.873   4.068 -0.9441  3.0613 -0.2124
13402TIP3    H261622   3.725   3.791   4.028  0.7432 -0.2481  1.1449
13403TIP3   OH261623   3.060   3.346   5.692  0.1127  0.2937 -0.4915
13403TIP3    H161624   2.995   3.410   5.722  0.7931  1.1095 -0.7116
13403TIP3    H261625   3.021   3.305   5.615 -0.3686  0.3735 -0.2924
13404TIP3   OH261626   3.354   5.428   2.857 -0.0592  0.1246  0.0974
13404TIP3    H161627   3.286   5.449   2.921 -0.3708  1.4618 -0.6320
13404TIP3    H261628   3.421   5.382   2.907 -0.9751 -0.1820  1.0671
13405TIP3   OH261629   0.101   1.363   4.542  0.4983  0.4882 -0.0357
13405TIP3    H161630   0.019   1.320   4.566  0.7330  0.1645  0.1886
13405TIP3    H261631   0.138   1.394   4.624  2.4070 -2.5630  0.4173
13406TIP3   OH261632   3.893   4.316   1.103 -0.4811 -0.1449 -0.5019
13406TIP3    H161633   3.889   4.401   1.145 -1.9348  0.2499 -1.3900
13406TIP3    H261634   3.966   4.324   1.041 -0.0825  0.1625 -0.0036
13407TIP3   OH261635   1.393   6.597   3.865  0.0303  0.0615 -0.2732
13407TIP3    H161636   1.362   6.607   3.955 -0.8228  1.0142 -0.6636
13407TIP3    H261637   1.426   6.507   3.862  0.7588  0.2430  1.1859
13408TIP3   OH261638   2.781   1.549   4.444 -0.1089  0.1223  0.1156
13408TIP3    H161639   2.788   1.552   4.540 -1.5962 -0.2295  0.2602
13408TIP3    H261640   2.756   1.638   4.419 -0.1946  0.0959  0.1062
13409TIP3   OH261641   3.807   1.581  12.587 -0.0412 -0.7807 -0.2363
13409TIP3    H161642   3.749   1.536  12.526 -0.2500  0.5619 -1.0741
13409TIP3    H261643   3.817   1.668  12.550 -1.6203  0.7229  2.5502
13410TIP3   OH261644   5.051   2.976   2.674  0.4110 -0.0972  0.5087
13410TIP3    H161645   5.049   3.047   2.739  1.6753 -0.7639  1.3225
13410TIP3    H261646   4.979   2.918   2.698  0.1019  0.2955  0.5450
13411TIP3   OH261647   4.094   6.386  11.869 -0.2136  0.3608  0.3936
13411TIP3    H161648   4.133   6.357  11.787 -1.6045  0.7783 -0.4550
13411TIP3    H261649   4.169   6.409  11.925  0.8214 -2.0074  0.0711
13412TIP3   OH261650   2.637   4.319  13.793  0.0609  0.0601 -0.2175
13412TIP3    H161651   2.617   4.413  13.790 -1.1708 -0.1946 -0.7365
13412TIP3    H261652   2.728   4.313  13.765 -0.3757  0.9776 -2.0086
13413TIP3   OH261653   5.347   0.912  13.243  0.0596 -0.1823 -0.5917
13413TIP3    H161654   5.328   0.862  13.322  0.9992 -0.6082 -0.6230
13413TIP3    H261655   5.262   0.922  13.200 -1.1079  2.8428  2.0363
13414TIP3   OH261656   1.537   1.831   4.339 -0.2216  0.3473  0.7825
13414TIP3    H161657   1.455   1.846   4.386  0.7645  1.8813  2.1158
13414TIP3    H261658   1.556   1.738   4.353 -1.9863 -0.1685 -0.0387
13415TIP3   OH261659   6.409   0.542  15.517 -0.1349  0.5960  0.9418
13415TIP3    H161660   6.341   0.531  15.451 -0.6546 -1.2621  1.7330
13415TIP3    H261661   6.370   0.603  15.581  0.7477  3.2296 -0.8330
13416TIP3   OH261662   2.702   4.101  10.736  0.3235 -0.2991  0.1937
13416TIP3    H161663   2.636   4.109  10.667  1.8683  0.4962 -1.2606
13416TIP3    H261664   2.764   4.035  10.702  1.0125 -0.0169  0.8851
13417TIP3   OH261665   3.760   4.179  16.486  0.6718  0.4446 -0.5889
13417TIP3    H161666   3.792   4.090  16.480  0.0003 -0.2080  3.0973
13417TIP3    H261667   3.823   4.224  16.543  0.4359  2.0753 -1.5226
13418TIP3   OH261668   5.682   0.266   2.266 -0.5816  0.7587  0.0571
13418TIP3    H161669   5.588   0.279   2.274 -0.6662 -0.4043  1.1817
13418TIP3    H261670   5.717   0.287   2.353  0.1556  0.7991 -0.2368
13419TIP3   OH261671   2.384   5.601  16.437  0.0134  0.1701  0.2788
13419TIP3    H161672   2.298   5.582  16.475 -0.6846 -2.3634 -2.1676
13419TIP3    H261673   2.446   5.555  16.493 -0.5614 -0.2556  0.5781
13420TIP3   OH261674   0.191   0.343  11.705 -0.0502 -0.1075 -0.5988
13420TIP3    H161675   0.170   0.251  11.722  0.9505 -0.3265 -0.5123
13420TIP3    H261676   0.147   0.391  11.775  0.7083 -0.6578  0.2618
13421TIP3   OH261677   5.172   5.395   1.564 -0.3630 -0.1908  0.1248
13421TIP3    H161678   5.130   5.319   1.523 -0.7704  0.5437 -0.8750
13421TIP3    H261679   5.249   5.359   1.607  0.5908 -0.9367 -2.0286
13422TIP3   OH261680   1.800   0.783  11.325  0.5700 -0.5784  0.0810
13422TIP3    H161681   1.737   0.813  11.260  1.1245  2.8906  0.9526
13422TIP3    H261682   1.763   0.701  11.357 -1.8293 -0.3042 -1.6876
13423TIP3   OH261683   6.361   0.108   4.399  0.6678 -0.5527 -0.2951
13423TIP3    H161684   6.280   0.158   4.387  0.3406 -1.3500 -1.5200
13423TIP3    H261685   6.332   0.026   4.440  1.1611  0.0697  1.3900
13424TIP3   OH261686   2.308   5.485   3.555 -0.4207 -0.7660  0.2671
13424TIP3    H161687   2.299   5.390   3.562 -1.4309 -1.0037 -2.5952
13424TIP3    H261688   2.402   5.499   3.543 -0.3127 -1.4792  0.2204
13425TIP3   OH261689   0.562   4.154   4.196 -0.3687 -0.1230 -0.5275
13425TIP3    H161690   0.511   4.194   4.267  0.2401 -1.7902  0.8956
13425TIP3    H261691   0.653   4.175   4.217 -0.1866 -0.5585 -0.8697
13426TIP3   OH261692   3.884   4.849   4.488 -0.2208 -0.8961  0.3981
13426TIP3    H161693   3.843   4.860   4.574  0.6086 -0.5148  0.7565
13426TIP3    H261694   3.972   4.815   4.507 -0.1033 -1.0193 -0.3169
13427TIP3   OH261695   5.882   0.233  11.455 -0.5620 -0.1434  0.0563
13427TIP3    H161696   5.880   0.306  11.393  2.1934  0.8628  0.9467
13427TIP3    H261697   5.846   0.159  11.408  0.9371  0.6972 -2.6078
13428TIP3   OH261698   1.309   5.186  13.338 -0.0677 -0.4234  0.1635
13428TIP3    H161699   1.326   5.122  13.268 -0.4134 -0.5046  0.1549
13428TIP3    H261700   1.230   5.154  13.381 -0.5772  0.3090 -0.2078
13429TIP3   OH261701   3.135   3.613  12.193  0.0815  0.2274  0.0723
13429TIP3    H161702   3.197   3.551  12.153 -2.1536 -2.3920  0.3616
13429TIP3    H261703   3.167   3.622  12.283  0.3191 -0.7845  0.1087
13430TIP3   OH261704   1.817   0.710   3.489  0.4985 -0.5696  0.5865
13430TIP3    H161705   1.840   0.789   3.441 -0.3687 -0.5533  0.1755
13430TIP3    H261706   1.819   0.640   3.423  0.0459 -0.6729  0.6739
13431TIP3   OH261707   2.950   6.259  16.238 -0.7583  0.4158  0.1727
13431TIP3    H161708   2.920   6.330  16.295 -0.2290  1.2160 -0.5224
13431TIP3    H261709   2.888   6.258  16.166  0.8066  2.1282 -1.3096
13432TIP3   OH261710   4.389   4.120  10.764 -0.3251  0.2275  0.3925
13432TIP3    H161711   4.303   4.156  10.788 -0.7680  0.4033 -1.3544
13432TIP3    H261712   4.370   4.029  10.741  0.0949  0.0501  0.7444
13433TIP3   OH261713   2.308   3.340   0.069 -0.0231 -0.1199  0.5612
13433TIP3    H161714   2.244   3.308   0.132  0.2833  0.1900  1.0332
13433TIP3    H261715   2.359   3.263   0.044 -1.0762 -0.5271 -0.4150
13434TIP3   OH261716   1.083   2.790  16.973 -0.1324  0.0893  0.4415
13434TIP3    H161717   1.178   2.790  16.979 -0.0574  0.4837 -0.4952
13434TIP3    H261718   1.063   2.858  16.908 -0.8753 -2.0181 -1.6664
13435TIP3   OH261719   1.440   4.721   5.441 -0.6946 -0.3603 -0.2075
13435TIP3    H161720   1.407   4.754   5.358 -1.0757  0.7399  0.3649
13435TIP3    H261721   1.482   4.637   5.419  0.2397  0.4579 -1.6916
13436TIP3   OH261722   6.771   3.736  15.944 -0.0126  0.9628 -0.0970
13436TIP3    H161723   6.731   3.649  15.952 -0.8975  0.8900 -3.5027
13436TIP3    H261724   6.698   3.794  15.922  0.6064  2.5812  1.8690
13437TIP3   OH261725   4.968   2.842  17.176 -0.3903  0.4329 -0.1170
13437TIP3    H161726   4.939   2.934  17.178 -1.3224  0.1403  1.4510
13437TIP3    H261727   5.060   2.847  17.151 -0.3620  1.8322  0.1542
13438TIP3   OH261728   3.370   3.714   1.207  0.2911 -0.0394  0.1623
13438TIP3    H161729   3.292   3.768   1.195  0.1950 -0.2337 -0.0909
13438TIP3    H261730   3.355   3.638   1.151  1.1203  0.4051 -0.6833
13439TIP3   OH261731   4.116   1.854   0.091  0.0301  0.0832  0.0427
13439TIP3    H161732   4.163   1.773   0.073 -1.0326  0.0022 -2.8374
13439TIP3    H261733   4.096   1.890   0.004 -0.7335  2.7317  1.2195
13440TIP3   OH261734   6.710   4.890   3.562  0.0462  0.1045  0.7789
13440TIP3    H161735   6.742   4.884   3.652 -0.4525  0.7002  1.0051
13440TIP3    H261736   6.642   4.823   3.556  1.1050 -0.9483  0.3912
13441TIP3   OH261737   5.111   4.235   1.521 -0.1046 -0.6738 -0.0194
13441TIP3    H161738   5.129   4.148   1.557  0.5313 -0.5367  0.0107
13441TIP3    H261739   5.018   4.233   1.498 -0.1018 -1.3483  0.0108
13442TIP3   OH261740   3.594   6.044   5.101 -0.2394 -0.0901  0.2348
13442TIP3    H161741   3.601   6.045   5.005 -0.3316  0.7677  0.2284
13442TIP3    H261742   3.683   6.064   5.131 -0.5097  1.1013  0.2955
13443TIP3   OH261743   1.152   0.824  16.509 -0.6270  0.2121 -0.3848
13443TIP3    H161744   1.058   0.837  16.520 -1.0196 -0.7280 -2.2681
13443TIP3    H261745   1.162   0.730  16.494  0.9884 -0.2274  2.6148
13444TIP3   OH261746   2.208   1.868  13.036 -0.5512 -0.3618 -0.4018
13444TIP3    H161747   2.154   1.834  13.108  1.4085 -0.7636  0.9623
13444TIP3    H261748   2.186   1.813  12.961 -0.9697 -1.4836  0.5161
13445TIP3   OH261749   3.455   0.429  15.608 -0.0261  0.1046  0.3657
13445TIP3    H161750   3.372   0.381  15.611  0.1358 -0.2094 -0.1109
13445TIP3    H261751   3.479   0.430  15.515  0.0876  0.9138  0.4026
13446TIP3   OH261752   6.025   6.394   1.439  0.4145  0.2090 -0.2394
13446TIP3    H161753   6.104   6.442   1.463  1.5353 -0.7491 -1.8233
13446TIP3    H261754   5.965   6.460   1.405  1.5440  0.6535 -1.4291
13447TIP3   OH261755   3.448   3.954   4.291 -0.3003  0.3755 -0.3164
13447TIP3    H161756   3.425   3.904   4.369  1.2263  0.8486  0.4819
13447TIP3    H261757   3.509   4.021   4.322 -1.5210  2.1401 -1.5130
13448TIP3   OH261758   1.325   2.454   0.853 -0.3307  0.1673 -0.5991
13448TIP3    H161759   1.290   2.512   0.785  1.3107 -1.1661 -2.7105
13448TIP3    H261760   1.420   2.454   0.839 -0.0112 -0.8119  1.1840
13449TIP3   OH261761   2.305   3.777   5.377  0.3344 -0.1934  0.5017
13449TIP3    H161762   2.301   3.735   5.464 -1.5249 -1.8530 -0.3067
13449TIP3    H261763   2.349   3.712   5.322  1.5129  0.8558  0.1688
13450TIP3   OH261764   5.108   2.028  12.897  0.3735  0.1731  0.2461
13450TIP3    H161765   5.101   2.077  12.815 -1.6321  0.3851  0.4912
13450TIP3    H261766   5.166   2.082  12.951  2.7527 -0.5935 -1.3946
13451TIP3   OH261767   3.904   1.533  12.254  0.5745 -0.0043  0.2008
13451TIP3    H161768   3.840   1.465  12.233  0.9417 -0.2186 -0.2506
13451TIP3    H261769   3.981   1.486  12.285  0.6714  0.2295  0.3208
13452TIP3   OH261770   4.245   1.726   5.065 -0.5952 -0.0277  0.4231
13452TIP3    H161771   4.227   1.643   5.021 -1.0757 -0.2495  1.0140
13452TIP3    H261772   4.339   1.737   5.059 -0.7045  0.2647 -1.2076
13453TIP3   OH261773   5.483   4.812   2.280  0.0815 -0.0916 -0.2178
13453TIP3    H161774   5.414   4.855   2.229 -0.5941 -0.3434  0.4439
13453TIP3    H261775   5.446   4.807   2.369  1.2212  0.3527  0.2995
13454TIP3   OH261776   0.602   1.339  14.159  0.2818  0.4185 -0.1095
13454TIP3    H161777   0.517   1.382  14.169  0.2572  0.4903 -0.5743
13454TIP3    H261778   0.661   1.391  14.213 -0.0411  0.1507  0.5022
13455TIP3   OH261779   2.340   3.623   2.254 -0.0700 -0.5542  0.1528
13455TIP3    H161780   2.297   3.678   2.320 -0.4908 -3.6818  2.7339
13455TIP3    H261781   2.272   3.610   2.187 -0.8693 -0.1326  0.8563
13456TIP3   OH261782   3.710   5.134  15.590 -0.1285 -0.3274  0.2038
13456TIP3    H161783   3.737   5.060  15.644  2.2163  0.4051  0.1213
13456TIP3    H261784   3.628   5.105  15.549  0.7836 -2.9155  0.0435
13457TIP3   OH261785   4.933   0.233   1.247 -0.1091  0.5132  0.2383
13457TIP3    H161786   4.954   0.282   1.167 -0.6683 -1.0938 -0.9372
13457TIP3    H261787   5.009   0.245   1.303  0.1219  2.0118 -0.3526
13458TIP3   OH261788   0.436   2.427   6.444  0.3420 -0.5790  0.4749
13458TIP3    H161789   0.426   2.518   6.472 -1.0369 -0.4235 -0.3912
13458TIP3    H261790   0.530   2.414   6.437  0.5591  1.5364 -1.7053
13459TIP3   OH261791   6.390   0.822  16.033 -0.1537  0.3077 -0.2878
13459TIP3    H161792   6.438   0.785  15.959 -0.2543  1.1915 -0.8022
13459TIP3    H261793   6.301   0.788  16.023  0.1900 -0.8441  0.3277
13460TIP3   OH261794   0.304   2.101  11.804  0.1615  0.7837  0.0706
13460TIP3    H161795   0.223   2.152  11.811  1.6143  3.0397  2.3276
13460TIP3    H261796   0.352   2.142  11.732  0.0261  0.6078 -0.1182
13461TIP3   OH261797   4.276   4.593  15.415  0.0152  0.0753  0.9786
13461TIP3    H161798   4.355   4.605  15.467  0.1810  0.6575  0.6065
13461TIP3    H261799   4.308   4.583  15.325 -0.3219  0.1031  0.8543
13462TIP3   OH261800   0.872   3.649  16.575  0.3465  0.1978  0.5669
13462TIP3    H161801   0.960   3.622  16.549 -0.2400 -2.0048  0.6643
13462TIP3    H261802   0.865   3.624  16.667 -0.3925  0.3498  0.5598
13463TIP3   OH261803   0.492   0.218   2.175 -0.2024 -0.5153  0.2213
13463TIP3    H161804   0.479   0.123   2.170  1.6812 -0.8111  0.3997
13463TIP3    H261805   0.525   0.233   2.264  2.4252 -0.1365 -0.7256
13464TIP3   OH261806   5.720   6.696  12.715  0.3570 -0.1562  0.0510
13464TIP3    H161807   5.802   6.716  12.760 -0.0572  0.9403  0.3545
13464TIP3    H261808   5.651   6.729  12.773 -0.1754  1.8817 -1.5857
13465TIP3   OH261809   5.015   3.963  11.479 -0.3761 -0.5416  0.3116
13465TIP3    H161810   4.980   4.007  11.557  0.5898 -0.2391  0.5860
13465TIP3    H261811   4.946   3.902  11.453 -1.2431  0.2772  0.6370
13466TIP3   OH261812   6.140   2.264  13.536 -0.3893  0.1703 -0.4932
13466TIP3    H161813   6.169   2.331  13.474 -2.1782  2.3567  0.8518
13466TIP3    H261814   6.045   2.273  13.538 -0.5009 -0.9280  1.3352
13467TIP3   OH261815   4.425   2.347   5.409 -0.2530 -0.1703  0.3918
13467TIP3    H161816   4.386   2.415   5.354 -0.4750 -0.9936 -0.4800
13467TIP3    H261817   4.509   2.327   5.367  0.7296  0.9424  1.7461
13468TIP3   OH261818   6.306   4.017   2.440  0.8299  0.2456  0.1445
13468TIP3    H161819   6.249   3.946   2.410 -0.1103  0.4795  1.2829
13468TIP3    H261820   6.314   4.076   2.365  0.1568 -0.1555 -0.2515
13469TIP3   OH261821   3.905   4.194   5.989  0.1989 -0.5062 -0.3328
13469TIP3    H161822   3.868   4.124   6.042 -0.8534  0.1433 -0.1597
13469TIP3    H261823   3.871   4.178   5.901 -2.8735  1.5389  0.2886
13470TIP3   OH261824   1.428   6.257   3.579 -0.0624 -0.0090  0.1640
13470TIP3    H161825   1.440   6.278   3.671 -0.2978  1.5143 -0.1213
13470TIP3    H261826   1.486   6.317   3.533  0.3444 -1.0160 -0.6741
13471TIP3   OH261827   2.819   5.664  14.397  0.0314  0.0441 -0.4036
13471TIP3    H161828   2.832   5.690  14.489 -0.8176 -1.4461  0.1784
13471TIP3    H261829   2.870   5.583  14.388  0.4024  0.3780 -1.3573
13472TIP3   OH261830   4.411   2.636   3.360  0.7317 -0.4743  0.1161
13472TIP3    H161831   4.357   2.657   3.437  0.4257  0.8619 -0.4435
13472TIP3    H261832   4.498   2.620   3.396  0.6203  0.2546  0.7377
13473TIP3   OH261833   1.262   6.281  13.602 -0.3201  0.0869  0.4816
13473TIP3    H161834   1.277   6.231  13.682 -0.7308  0.8135  1.0183
13473TIP3    H261835   1.313   6.361  13.613 -1.4537  0.8154  0.6334
13474TIP3   OH261836   1.039   6.173  12.783  0.1312  0.2856 -0.0922
13474TIP3    H161837   0.969   6.206  12.841 -0.7468  0.2016 -1.0821
13474TIP3    H261838   1.079   6.102  12.833  1.3729  2.0692  1.6578
13475TIP3   OH261839   3.503   2.912  11.302  0.8973 -0.3559 -0.0214
13475TIP3    H161840   3.419   2.896  11.258  1.1019 -2.6730  0.3133
13475TIP3    H261841   3.562   2.938  11.231  0.2635 -0.1566 -0.4929
13476TIP3   OH261842   0.292   5.884   0.074  0.2297 -0.1097  0.2825
13476TIP3    H161843   0.208   5.856   0.111  0.2332 -0.0283  0.3554
13476TIP3    H261844   0.291   5.980   0.085 -0.3972  0.0925 -1.2508
13477TIP3   OH261845   0.495   2.764   4.040 -0.3168  0.1212  0.3713
13477TIP3    H161846   0.453   2.726   3.962 -0.7202 -0.3180  0.7968
13477TIP3    H261847   0.559   2.697   4.067  1.5343  1.2504 -0.9383
13478TIP3   OH261848   6.748   2.718  16.652 -0.1059 -0.0868  0.1195
13478TIP3    H161849   6.700   2.748  16.729  0.9718  1.1022  0.3430
13478TIP3    H261850   6.811   2.787  16.633 -0.2149 -0.4327 -1.7335
13479TIP3   OH261851   3.342   2.348   5.777 -0.2124  0.7627 -0.1948
13479TIP3    H161852   3.390   2.387   5.704 -1.7579  0.9342 -1.1742
13479TIP3    H261853   3.333   2.419   5.841 -0.1196  1.0515 -0.5014
13480TIP3   OH261854   2.566   5.352  11.585  0.2142  0.2039  0.4203
13480TIP3    H161855   2.596   5.357  11.494  1.9749 -1.7819  0.8230
13480TIP3    H261856   2.628   5.407  11.633  0.6274 -0.4911  0.6909
13481TIP3   OH261857   5.617   2.688   4.351 -0.0104  0.2025 -0.1640
13481TIP3    H161858   5.681   2.701   4.281  1.2531  0.2078  0.9466
13481TIP3    H261859   5.601   2.775   4.386 -0.2108  0.1353 -0.0864
13482TIP3   OH261860   0.862   3.587  16.846  0.0253  0.1551 -0.4302
13482TIP3    H161861   0.779   3.541  16.856  0.1146 -0.2388 -1.3555
13482TIP3    H261862   0.925   3.533  16.893 -0.1706  0.2432 -0.0621
13483TIP3   OH261863   4.839   2.318   3.478  0.2119  0.0111  0.0146
13483TIP3    H161864   4.879   2.236   3.509  2.3009  1.4448  1.4148
13483TIP3    H261865   4.745   2.302   3.482  0.5457 -2.1503  0.7283
13484TIP3   OH261866   3.570   3.173  12.596 -0.0592  0.5136  0.0003
13484TIP3    H161867   3.638   3.116  12.633 -1.0455  0.0903  1.2063
13484TIP3    H261868   3.509   3.112  12.554  1.0301  0.9644 -2.4809
13485TIP3   OH261869   4.167   4.355   0.534  0.8020 -0.4886 -0.0720
13485TIP3    H161870   4.115   4.336   0.613  0.6998  0.9586  0.2303
13485TIP3    H261871   4.103   4.356   0.463 -0.0494  3.1283  0.5362
13486TIP3   OH261872   0.041   2.158  11.471  0.2156 -0.6081  0.1172
13486TIP3    H161873   0.119   2.202  11.505 -0.3042  0.3125  0.1620
13486TIP3    H261874   0.072   2.109  11.395  0.4129  1.8199 -1.4654
13487TIP3   OH261875   5.777   5.496  12.760 -0.0338  0.5783  0.4506
13487TIP3    H161876   5.749   5.523  12.673 -0.1713  0.0330  0.3245
13487TIP3    H261877   5.764   5.574  12.815 -1.5281  0.4286  0.3403
13488TIP3   OH261878   5.769   4.648  14.642 -0.0434 -0.0499  0.2243
13488TIP3    H161879   5.776   4.720  14.580  0.7357 -0.6268 -0.3863
13488TIP3    H261880   5.675   4.632  14.649 -0.1527 -0.0074 -0.8736
13489TIP3   OH261881   3.560   3.299   2.892 -1.2078  0.6533  0.3702
13489TIP3    H161882   3.543   3.337   2.978 -0.7912 -0.2243  0.8669
13489TIP3    H261883   3.513   3.216   2.893 -1.0009  0.5224 -0.1533
13490TIP3   OH261884   2.082   6.321   1.315 -0.0091  0.0335 -0.0948
13490TIP3    H161885   2.064   6.322   1.409 -0.7449  3.3445 -0.1560
13490TIP3    H261886   2.133   6.400   1.299  3.3553 -2.2468 -2.0390
13491TIP3   OH261887   2.897   1.874  16.201  0.4889  0.6276 -0.6299
13491TIP3    H161888   2.844   1.951  16.222  0.4186  0.1904  0.9440
13491TIP3    H261889   2.986   1.900  16.222  0.1653 -0.5749  2.8364
13492TIP3   OH261890   6.592   5.628  16.358  0.3302 -0.0589 -0.3576
13492TIP3    H161891   6.648   5.663  16.427 -0.1844 -2.2048  1.2696
13492TIP3    H261892   6.526   5.696  16.344  1.9329  1.5131 -0.6516
13493TIP3   OH261893   1.097   3.336   5.710 -0.4395  0.4077  0.4976
13493TIP3    H161894   1.166   3.334   5.643  0.2147  1.7746  1.0891
13493TIP3    H261895   1.019   3.362   5.662  0.0517  1.5080  0.2541
13494TIP3   OH261896   5.347   1.091  11.698  0.0600  0.1021  0.0129
13494TIP3    H161897   5.436   1.116  11.723  0.6872  0.5175 -2.3740
13494TIP3    H261898   5.315   1.040  11.772  1.8346  0.9522  1.4434
13495TIP3   OH261899   1.989   5.858   5.342 -0.1762 -0.2843 -0.0898
13495TIP3    H161900   2.022   5.800   5.411 -0.9990 -0.3554  0.2547
13495TIP3    H261901   2.047   5.934   5.344  0.3027 -0.6523  0.1254
13496TIP3   OH261902   6.790   1.839  11.572 -0.1379  0.3706  0.5686
13496TIP3    H161903   6.872   1.839  11.523  0.0684  1.9152  0.8644
13496TIP3    H261904   6.810   1.890  11.651 -1.5189  1.2706  0.3686
13497TIP3   OH261905   1.184   3.694   4.028  0.9646 -0.0286  0.1033
13497TIP3    H161906   1.232   3.613   4.009  1.9387  0.6633 -0.4806
13497TIP3    H261907   1.231   3.732   4.103  0.3209 -0.1525  0.5732
13498TIP3   OH261908   0.255   5.295   1.671 -0.3073  0.0255 -0.0878
13498TIP3    H161909   0.276   5.316   1.580  0.8256  0.8616  0.3412
13498TIP3    H261910   0.338   5.302   1.717 -1.1934  1.7343  1.3926
13499TIP3   OH261911   1.839   1.609   6.603  0.1310  0.4852 -0.4832
13499TIP3    H161912   1.826   1.657   6.521  1.4091 -0.4939 -1.3005
13499TIP3    H261913   1.927   1.634   6.632 -0.4835  1.1847  0.8699
13500TIP3   OH261914   1.322   1.587   1.815  0.1314  0.0650  0.1973
13500TIP3    H161915   1.340   1.527   1.743 -0.7215 -0.1443  0.1406
13500TIP3    H261916   1.407   1.604   1.855  0.7792  1.0192 -1.4938
13501TIP3   OH261917   1.940   2.019  16.299  0.3197  0.2263 -0.6405
13501TIP3    H161918   1.900   2.102  16.328  5.3950  3.0064 -0.4088
13501TIP3    H261919   1.979   2.040  16.215  0.0930 -2.6909 -1.5645
13502TIP3   OH261920   1.880   4.134   1.444 -0.1984 -0.9058  0.5948
13502TIP3    H161921   1.786   4.121   1.435 -0.1685 -1.6062  1.2173
13502TIP3    H261922   1.890   4.225   1.473 -0.7056 -1.0089  1.0820
13503TIP3   OH261923   0.145   2.452  10.837  0.1458 -0.2026  0.0885
13503TIP3    H161924   0.104   2.538  10.822 -0.0780 -0.6101 -1.8056
13503TIP3    H261925   0.209   2.469  10.906 -1.8670  0.8622  1.8673
13504TIP3   OH261926   3.092   3.424  15.149  0.3720 -0.2337 -0.1559
13504TIP3    H161927   3.086   3.392  15.059 -0.3244 -0.4342 -0.0473
13504TIP3    H261928   3.109   3.518  15.140  1.3758 -0.4350 -0.4834
13505TIP3   OH261929   4.579   2.310   0.144  0.0875  0.4424  0.2833
13505TIP3    H161930   4.604   2.226   0.106  0.6782  0.2011  1.1845
13505TIP3    H261931   4.484   2.304   0.152 -0.1138  0.6593 -1.4899
13506TIP3   OH261932   3.256   0.948   5.645 -0.2930  0.2942 -0.2263
13506TIP3    H161933   3.247   0.906   5.560  0.9344 -1.8870  0.6604
13506TIP3    H261934   3.320   1.018   5.632  1.1357 -1.0718 -0.7833
13507TIP3   OH261935   2.100   1.528  15.378 -0.7888 -0.3332  0.2009
13507TIP3    H161936   2.145   1.451  15.412 -1.1524 -0.2687  0.8434
13507TIP3    H261937   2.100   1.516  15.283 -0.4879 -0.9236  0.2732
13508TIP3   OH261938   1.814   2.405  12.058  0.1458  0.0149 -0.2639
13508TIP3    H161939   1.790   2.317  12.029  0.0820 -0.6675  1.7440
13508TIP3    H261940   1.881   2.433  11.995 -1.6008 -0.4216 -2.4302
13509TIP3   OH261941   4.496   5.721  16.677  0.2557  0.3315 -0.1879
13509TIP3    H161942   4.502   5.756  16.766  0.9668  1.7083 -0.7652
13509TIP3    H261943   4.409   5.747  16.647  0.5933  1.1799 -0.4362
13510TIP3   OH261944   2.714   5.645  13.798 -0.6180 -0.5899 -0.5195
13510TIP3    H161945   2.772   5.684  13.864 -0.2727  0.0863 -1.2089
13510TIP3    H261946   2.626   5.672  13.826 -0.3415  1.4382 -1.4187
13511TIP3   OH261947   2.532   2.982  15.202  0.2600 -0.6543 -0.0118
13511TIP3    H161948   2.544   2.887  15.197  1.8063 -0.4471 -0.8098
13511TIP3    H261949   2.510   2.999  15.294  1.8903 -1.6064  0.5925
13512TIP3   OH261950   6.433   0.819   5.877 -0.6409 -0.4132  0.5011
13512TIP3    H161951   6.449   0.741   5.929 -0.8141 -2.8480 -2.7460
13512TIP3    H261952   6.512   0.829   5.824 -1.6181  0.0203 -0.9511
13513TIP3   OH261953   2.402   3.748   0.123  0.1793 -0.7058 -0.1324
13513TIP3    H161954   2.427   3.699   0.044 -0.9066 -0.5405 -0.6008
13513TIP3    H261955   2.365   3.830   0.089  1.2869  0.1194  0.6149
13514TIP3   OH261956   1.597   5.828   0.375 -0.1070  0.4710  0.0271
13514TIP3    H161957   1.560   5.860   0.292  0.8892 -0.4541 -0.7998
13514TIP3    H261958   1.645   5.749   0.351 -1.3178 -0.8640  1.7851
13515TIP3   OH261959   3.871   1.163  13.326  0.3624  0.2101  0.0173
13515TIP3    H161960   3.873   1.142  13.233  0.4353 -0.5908  0.1888
13515TIP3    H261961   3.858   1.258  13.329  1.3156  0.3892 -0.8114
13516TIP3   OH261962   3.221   3.720  11.156  0.3777  0.7743 -0.4235
13516TIP3    H161963   3.126   3.720  11.148  0.3132  2.1553  0.1114
13516TIP3    H261964   3.239   3.779  11.229  1.5721 -0.8633  0.6744
13517TIP3   OH261965   0.654   0.510   2.611 -0.5186  0.1307 -0.3313
13517TIP3    H161966   0.685   0.600   2.602 -1.0963  0.3276 -0.4046
13517TIP3    H261967   0.718   0.458   2.563 -0.6350  0.6002 -1.0134
13518TIP3   OH261968   2.942   5.654   0.757 -0.5019 -0.4656 -0.0572
13518TIP3    H161969   2.973   5.591   0.692 -2.3252 -0.7577 -0.7185
13518TIP3    H261970   2.899   5.600   0.823 -2.7860  0.0302 -1.0258
13519TIP3   OH261971   6.781   4.318  16.949 -0.3728 -0.0332 -0.3744
13519TIP3    H161972   6.784   4.262  16.871 -1.1089 -1.1584  0.3603
13519TIP3    H261973   6.872   4.327  16.976 -0.1232  0.2899 -1.3118
13520TIP3   OH261974   6.194   2.470  15.323 -0.5128  0.3641  0.4773
13520TIP3    H161975   6.289   2.475  15.310 -0.5637 -1.4717 -1.2160
13520TIP3    H261976   6.167   2.560  15.338  1.4839  0.9416  0.9608
13521TIP3   OH261977   4.428   4.897  17.152  0.1579  0.2312 -0.3223
13521TIP3    H161978   4.492   4.829  17.131 -0.1180 -0.5685  1.2831
13521TIP3    H261979   4.405   4.881  17.243 -1.7330  1.0088 -0.6184
13522TIP3   OH261980   1.231   3.626   5.008  0.4570 -0.8962  0.2107
13522TIP3    H161981   1.295   3.572   5.054 -0.7830 -1.0143  1.8857
13522TIP3    H261982   1.243   3.714   5.045  0.5829 -0.6188 -0.4803
13523TIP3   OH261983   6.344   5.452   4.581  0.6039 -0.6196 -0.0680
13523TIP3    H161984   6.344   5.521   4.515 -0.1403 -0.5188  0.0299
13523TIP3    H261985   6.403   5.483   4.649 -1.3098  0.9433  1.0050
13524TIP3   OH261986   4.217   3.350   3.655  0.1132 -0.5243  0.2093
13524TIP3    H161987   4.261   3.404   3.589 -0.4897  0.7400  0.7877
13524TIP3    H261988   4.261   3.265   3.651 -0.1974 -0.6393 -2.1240
13525TIP3   OH261989   3.659   3.459  13.232  0.0769  0.2101 -0.1143
13525TIP3    H161990   3.710   3.517  13.288  0.3904  1.2584 -1.4447
13525TIP3    H261991   3.725   3.411  13.181 -0.2143 -0.3920  0.0650
13526TIP3   OH261992   6.428   5.385   0.966  0.5023 -0.2569  0.0593
13526TIP3    H161993   6.482   5.463   0.984  0.4244 -0.5007  1.3955
13526TIP3    H261994   6.353   5.419   0.917  1.2592  0.2673 -0.7680
13527TIP3   OH261995   2.952   6.335  13.596  0.1639 -0.5710  0.3641
13527TIP3    H161996   2.911   6.389  13.665 -0.6805 -1.0415  0.2436
13527TIP3    H261997   2.885   6.329  13.528  1.1598  0.3016 -0.7499
13528TIP3   OH261998   5.812   0.508   6.698  0.0550  0.1668 -0.5629
13528TIP3    H161999   5.844   0.431   6.651 -1.5898  0.7890 -2.8644
13528TIP3    H262000   5.870   0.579   6.670  1.1291 -0.0298  1.0145
13529TIP3   OH262001   6.487   4.750  13.479 -0.0982 -0.0389 -0.0824
13529TIP3    H162002   6.465   4.801  13.557  0.6364  1.7987 -1.0147
13529TIP3    H262003   6.569   4.788  13.447 -0.0504 -1.1644 -1.4026
13530TIP3   OH262004   3.969   4.162  13.066 -0.0451 -0.3946 -0.6039
13530TIP3    H162005   4.026   4.205  13.003  2.8451 -2.7948  0.1500
13530TIP3    H262006   3.921   4.097  13.015  0.3486 -0.5766 -0.7424
13531TIP3   OH262007   1.088   5.136  16.903 -0.8406 -0.3132 -0.4001
13531TIP3    H162008   1.031   5.103  16.833 -1.2318  1.2053 -0.8227
13531TIP3    H262009   1.094   5.063  16.965 -1.3830 -1.2958 -1.4763
13532TIP3   OH262010   4.725   2.218  14.599 -0.2694  0.4707 -0.6582
13532TIP3    H162011   4.812   2.218  14.640  0.5860 -0.9191 -2.3706
13532TIP3    H262012   4.677   2.150  14.645  0.8904 -1.5221 -2.2371
13533TIP3   OH262013   0.326   1.368  13.363  0.1927  0.2392 -0.0932
13533TIP3    H162014   0.420   1.377  13.383 -0.0711  2.4507  0.4254
13533TIP3    H262015   0.286   1.346  13.447  0.1086  0.5373 -0.0545
13534TIP3   OH262016   0.761   1.041   5.216 -0.2554  0.3672  0.6461
13534TIP3    H162017   0.672   1.043   5.180 -0.3912 -0.0067  0.9513
13534TIP3    H262018   0.801   0.965   5.174  0.2869  1.1696 -0.3293
13535TIP3   OH262019   3.925   1.679   5.798  0.0760  0.0307  0.0288
13535TIP3    H162020   3.897   1.714   5.714  0.4255 -0.3381 -0.2462
13535TIP3    H262021   3.987   1.610   5.776 -0.5459 -0.7153  0.5683
13536TIP3   OH262022   5.717   1.122   6.401  0.6113  0.5082  0.1068
13536TIP3    H162023   5.642   1.062   6.400 -1.0884  2.5191  0.3968
13536TIP3    H262024   5.776   1.088   6.334 -0.1397 -1.6182  0.4474
13537TIP3   OH262025   2.994   1.775   0.866 -0.2010  0.4887  0.4049
13537TIP3    H162026   2.946   1.828   0.802  1.3271  0.5981 -0.7105
13537TIP3    H262027   3.004   1.833   0.942 -2.1890  0.2950  0.8669
13538TIP3   OH262028   2.066   5.238   5.548  0.5841  0.1350  0.8571
13538TIP3    H162029   2.005   5.311   5.536  1.4207  1.1780  2.6077
13538TIP3    H262030   2.079   5.203   5.459 -0.7803  1.3250  0.1475
13539TIP3   OH262031   0.105   2.665   1.007  0.1847 -0.1609 -0.0357
13539TIP3    H162032   0.116   2.755   0.976  2.7345 -0.2727  0.3491
13539TIP3    H262033   0.173   2.654   1.073  0.1778 -2.5243 -0.3449
13540TIP3   OH262034   6.021   3.174   3.359 -0.3359  0.0476  0.2366
13540TIP3    H162035   6.097   3.171   3.301 -0.3218  1.2878  0.1710
13540TIP3    H262036   6.057   3.203   3.443 -0.7331  0.6615  0.1998
13541TIP3   OH262037   2.543   5.312  13.782 -0.9344  0.0875 -0.1127
13541TIP3    H162038   2.450   5.295  13.767 -0.8145  0.4989 -1.4373
13541TIP3    H262039   2.587   5.259  13.716 -0.2340  0.0307  0.3975
13542TIP3   OH262040   5.095   3.392  13.805 -0.0334 -0.7702 -0.2926
13542TIP3    H162041   5.045   3.381  13.886 -0.5031 -0.6024 -0.5553
13542TIP3    H262042   5.029   3.397  13.736  0.2040  1.4248 -0.4496
13543TIP3   OH262043   6.439   3.246  12.370  0.3576  0.1045 -0.3618
13543TIP3    H162044   6.435   3.342  12.370  1.1165  0.1431  0.0541
13543TIP3    H262045   6.504   3.226  12.302  0.0631 -0.1266 -0.5758
13544TIP3   OH262046   4.891   5.405   5.592  0.7418 -0.3614 -0.3808
13544TIP3    H162047   4.886   5.416   5.497  0.2688  0.7813 -0.2325
13544TIP3    H262048   4.949   5.474   5.622  2.6855 -2.0351 -0.0241
13545TIP3   OH262049   2.183   4.383  15.481 -0.2486  0.2064 -0.6779
13545TIP3    H162050   2.188   4.478  15.472 -0.9857  0.1676 -1.5941
13545TIP3    H262051   2.092   4.361  15.463 -0.3349 -0.5911  0.5561
13546TIP3   OH262052   4.143   2.018   3.465 -0.2438  0.1030 -0.0881
13546TIP3    H162053   4.081   2.082   3.431 -0.6043  0.4199  1.1455
13546TIP3    H262054   4.207   2.007   3.394 -1.3447  0.2339 -1.1265
13547TIP3   OH262055   6.125   0.979  16.649 -0.2890 -0.1798  0.5110
13547TIP3    H162056   6.196   0.916  16.642  0.4957  0.7722 -0.3416
13547TIP3    H262057   6.134   1.016  16.737  1.4884  1.2898 -0.2254
13548TIP3   OH262058   1.917   2.709   6.097  0.2480  0.4038  0.0385
13548TIP3    H162059   1.891   2.748   6.180  2.5530  0.6195  0.7308
13548TIP3    H262060   1.908   2.780   6.033 -2.1072  0.0746 -0.0838
13549TIP3   OH262061   6.175   6.459  12.109 -0.1058 -0.5809 -0.1428
13549TIP3    H162062   6.088   6.498  12.109 -1.0917 -2.6131  1.3633
13549TIP3    H262063   6.182   6.416  12.024 -1.0995 -1.4382  0.1941
13550TIP3   OH262064   6.159   2.531  10.827  0.0718  0.1089 -0.3630
13550TIP3    H162065   6.121   2.599  10.881  0.2586  0.1698 -0.3055
13550TIP3    H262066   6.107   2.531  10.746 -0.6465 -0.4510  0.0887
13551TIP3   OH262067   6.231   2.287   9.999 -0.4252 -0.2186  0.0398
13551TIP3    H162068   6.198   2.375  10.019 -0.6820 -0.3222  0.0695
13551TIP3    H262069   6.213   2.236  10.077 -1.0626 -0.5200 -0.3001
13552TIP3   OH262070   0.958   4.597   5.929 -0.3971  0.1848  0.0326
13552TIP3    H162071   0.899   4.568   5.998 -0.4828 -1.6879 -0.7934
13552TIP3    H262072   0.907   4.662   5.880 -2.3831 -2.3598 -1.5085
13553TIP3   OH262073   2.113   6.442  11.647 -0.3790  0.4040 -0.0094
13553TIP3    H162074   2.054   6.517  11.642  0.0646  0.6804 -2.5342
13553TIP3    H262075   2.200   6.480  11.658 -0.1836  0.2630 -1.0126
13554TIP3   OH262076   3.939   3.645  11.909  0.2277  0.2570  0.3862
13554TIP3    H162077   3.972   3.630  11.998 -0.1809 -0.5327  0.4083
13554TIP3    H262078   3.845   3.659  11.921  0.5498  3.1139  0.3973
13555TIP3   OH262079   6.718   5.863  16.982 -0.8232 -0.0249  0.2854
13555TIP3    H162080   6.699   5.927  16.913 -1.4544 -0.0116  0.4709
13555TIP3    H262081   6.645   5.802  16.979 -1.9019  1.0860  2.2510
13556TIP3   OH262082   2.238   4.947  13.660  0.3446 -0.7131  0.4625
13556TIP3    H162083   2.191   4.978  13.582 -0.2568 -2.8426 -0.0990
13556TIP3    H262084   2.320   4.912  13.625 -0.2056 -2.2747  0.6442
13557TIP3   OH262085   4.579   2.425  11.307  0.1652 -0.2911 -0.1587
13557TIP3    H162086   4.592   2.420  11.213 -1.8701 -0.1475 -0.5065
13557TIP3    H262087   4.584   2.519  11.327  0.3536 -0.3010 -0.1552
13558TIP3   OH262088   3.403   2.760   4.105  0.0418  0.3139  0.0451
13558TIP3    H162089   3.362   2.786   4.188  1.1188  0.8644  0.4237
13558TIP3    H262090   3.346   2.692   4.071  1.2098 -2.3581  2.8589
13559TIP3   OH262091   5.098   4.371   3.629 -0.2444 -0.1505  0.2358
13559TIP3    H162092   5.035   4.303   3.603 -0.8371  0.1832  0.7803
13559TIP3    H262093   5.122   4.348   3.719  0.7286 -0.4989 -0.0916
13560TIP3   OH262094   5.142   5.955   3.614 -0.3486  0.4139  0.3705
13560TIP3    H162095   5.086   5.948   3.537  2.1481 -0.3313 -1.5151
13560TIP3    H262096   5.172   6.046   3.614  1.3512 -0.1010 -0.9000
13561TIP3   OH262097   3.012   1.401   0.155 -0.2909 -0.4532  0.4386
13561TIP3    H162098   3.103   1.429   0.164  0.2116 -2.0180  0.5094
13561TIP3    H262099   2.968   1.435   0.233  0.7243 -1.4490  1.4886
13562TIP3   OH262100   1.421   3.025  11.531 -0.5148 -0.5381 -0.1202
13562TIP3    H162101   1.352   3.030  11.465  0.0346 -2.7567 -0.9526
13562TIP3    H262102   1.442   2.932  11.537  1.8931 -0.0204  0.6328
13563TIP3   OH262103   3.887   3.579  13.367  0.2966  0.3983 -0.0540
13563TIP3    H162104   3.844   3.639  13.307  0.1933 -1.7492 -2.3067
13563TIP3    H262105   3.974   3.616  13.381  0.7780  0.3760 -2.5929
13564TIP3   OH262106   5.182   1.923   4.480  0.2789 -0.2246 -0.6123
13564TIP3    H162107   5.114   1.951   4.419  1.4633  2.1299 -0.9594
13564TIP3    H262108   5.256   1.899   4.424  0.5842 -0.3271 -0.1691
13565TIP3   OH262109   5.357   4.134   3.902 -0.3120  0.0648 -0.3645
13565TIP3    H162110   5.420   4.062   3.896 -0.4985 -0.0954 -0.4261
13565TIP3    H262111   5.289   4.100   3.960  0.3861  0.7792  0.9313
13566TIP3   OH262112   5.252   3.095  12.572 -0.0322 -0.2456  0.2091
13566TIP3    H162113   5.320   3.033  12.547 -0.3770 -0.9126  0.8613
13566TIP3    H262114   5.176   3.040  12.592  0.0661  0.2621  2.1534
13567TIP3   OH262115   1.540   4.058   3.773 -0.1107  0.3480 -0.3284
13567TIP3    H162116   1.483   4.020   3.706  0.2894  1.4767 -1.3387
13567TIP3    H262117   1.499   4.033   3.856  0.4073 -2.7167 -0.8641
13568TIP3   OH262118   4.996   2.250  11.959 -0.2058 -0.1449  0.9319
13568TIP3    H162119   4.904   2.276  11.954 -0.3580 -0.8136 -0.1186
13568TIP3    H262120   5.037   2.296  11.885  0.5196  0.8941  1.9354
13569TIP3   OH262121   1.306   4.208   3.341 -0.0965  0.3404  0.2069
13569TIP3    H162122   1.264   4.188   3.258  0.3106 -1.4726  0.3784
13569TIP3    H262123   1.366   4.280   3.322 -1.8438  1.6868 -0.4524
13570TIP3   OH262124   4.311   3.158  10.652 -1.0873 -0.4727 -0.0574
13570TIP3    H162125   4.351   3.203  10.578 -0.1480 -1.1055  0.0555
13570TIP3    H262126   4.384   3.118  10.699 -1.8698 -2.4535 -0.3821
13571TIP3   OH262127   0.786   6.105   4.101 -0.2971  0.2643 -0.4251
13571TIP3    H162128   0.774   6.187   4.148 -1.4324 -0.1881  0.1089
13571TIP3    H262129   0.788   6.130   4.008 -0.5526  0.9067 -0.2607
13572TIP3   OH262130   4.121   5.751  14.734  0.5176 -0.3369  0.0081
13572TIP3    H162131   4.059   5.818  14.705  2.3432  1.5719  0.2956
13572TIP3    H262132   4.150   5.709  14.653 -1.5603 -1.7152 -0.0869
13573TIP3   OH262133   1.979   1.900   5.542  0.5479  0.1601 -0.3024
13573TIP3    H162134   1.906   1.843   5.519  0.1604  0.5854 -0.1415
13573TIP3    H262135   2.055   1.860   5.500  0.0208  0.3858 -1.5207
13574TIP3   OH262136   0.433   2.814   5.221  0.2223 -0.1459 -0.2850
13574TIP3    H162137   0.457   2.723   5.239  0.1111  0.0113  0.7068
13574TIP3    H262138   0.517   2.859   5.210  0.2743 -0.4115 -1.0889
13575TIP3   OH262139   6.173   0.132  12.916  0.6368  0.0271  0.2438
13575TIP3    H162140   6.173   0.218  12.874 -1.4649 -0.3664 -0.6835
13575TIP3    H262141   6.232   0.079  12.862 -0.3745  0.1175 -0.9955
13576TIP3   OH262142   5.745   1.531  11.019 -0.1123  0.5452 -0.5109
13576TIP3    H162143   5.667   1.508  10.968 -0.7221  0.8836  0.2611
13576TIP3    H262144   5.756   1.625  11.006 -0.3294  0.6514  0.0632
13577TIP3   OH262145   1.435   2.565  16.017 -0.1600  0.1012  0.3657
13577TIP3    H162146   1.366   2.499  16.030 -0.0862  0.0899  0.6984
13577TIP3    H262147   1.392   2.635  15.968  0.2507 -1.0670 -1.8165
13578TIP3   OH262148   4.015   1.571  15.237  0.1359  0.0633  0.0969
13578TIP3    H162149   4.047   1.531  15.318  0.8619 -0.6979 -0.5529
13578TIP3    H262150   4.094   1.597  15.190 -0.2688  0.2933 -0.4726
13579TIP3   OH262151   5.858   1.289  11.417 -0.2519  0.4859  0.1305
13579TIP3    H162152   5.826   1.379  11.405  0.7677  0.9263  0.5890
13579TIP3    H262153   5.825   1.242  11.340 -1.5406  1.0266  0.3273
13580TIP3   OH262154   0.780   4.776   0.880 -0.7522 -0.3252  0.1295
13580TIP3    H162155   0.765   4.701   0.822 -0.9244 -1.2055  1.2779
13580TIP3    H262156   0.720   4.763   0.953  0.5894 -0.1471  1.3233
13581TIP3   OH262157   4.133   0.084  14.965  0.1284 -0.6482 -0.4739
13581TIP3    H162158   4.217   0.048  14.937 -0.1067 -1.6258  0.0414
13581TIP3    H262159   4.084   0.098  14.884  0.1833 -1.6064 -0.6798
13582TIP3   OH262160   1.156   6.675  14.396  0.4401  0.2442 -0.3788
13582TIP3    H162161   1.065   6.671  14.366 -0.5546 -0.8815  2.4791
13582TIP3    H262162   1.169   6.765  14.423 -0.6875 -0.1141  1.4854
13583TIP3   OH262163   2.514   4.438  11.679  0.4300 -0.1616  0.1215
13583TIP3    H162164   2.567   4.358  11.687  0.8510  0.1598  0.7012
13583TIP3    H262165   2.540   4.491  11.755  0.9246  0.9779 -0.8087
13584TIP3   OH262166   2.937   0.866  13.383 -0.1413  0.1695 -0.0230
13584TIP3    H162167   3.015   0.813  13.401 -0.2782  0.3704  1.2505
13584TIP3    H262168   2.868   0.828  13.438 -2.6748 -3.5799 -5.0277
13585TIP3   OH262169   5.642   0.215  12.939  0.3267  0.1093 -0.7130
13585TIP3    H162170   5.714   0.219  12.876  2.2443 -0.8294  1.2781
13585TIP3    H262171   5.627   0.306  12.965  3.1716  0.1448  1.2591
13586TIP3   OH262172   4.904   6.592   4.806 -0.0968 -0.5604  0.3382
13586TIP3    H162173   4.974   6.598   4.871  0.9828  0.0440 -0.8328
13586TIP3    H262174   4.925   6.660   4.742  0.3785 -2.7908 -2.0363
13587TIP3   OH262175   6.443   5.409   5.673  0.5743  0.0649  0.4264
13587TIP3    H162176   6.453   5.503   5.666  0.6993 -0.0038 -0.4578
13587TIP3    H262177   6.482   5.386   5.757  1.6126  0.6586  0.1133
13588TIP3   OH262178   4.072   0.655   1.123 -0.0098  0.1899  0.3594
13588TIP3    H162179   4.004   0.608   1.172  1.7895 -2.1367  0.8056
13588TIP3    H262180   4.152   0.641   1.173  1.4610 -0.1870 -1.9374
13589TIP3   OH262181   2.296   4.145  11.593  0.0476  0.2691  0.1871
13589TIP3    H162182   2.285   4.240  11.587  2.4518  0.5927  0.0584
13589TIP3    H262183   2.324   4.130  11.683 -2.6647 -0.6707  0.9756
13590TIP3   OH262184   4.151   4.986  15.598 -0.2485  0.0770  0.3664
13590TIP3    H162185   4.181   4.897  15.618 -0.8658 -0.3847 -0.6563
13590TIP3    H262186   4.171   5.036  15.676  0.8864 -0.7717  0.6574
13591TIP3   OH262187   0.656   6.270   4.567  0.6211  0.2301 -0.2622
13591TIP3    H162188   0.678   6.346   4.621  0.3119  0.6363 -0.7086
13591TIP3    H262189   0.733   6.257   4.512  0.9351 -0.1810  0.2597
13592TIP3   OH262190   0.662   1.990   2.847  0.2319 -0.1209 -0.1892
13592TIP3    H162191   0.646   1.987   2.942  0.1832 -2.4352 -0.2317
13592TIP3    H262192   0.574   1.996   2.809  0.2621  1.0752 -0.1210
13593TIP3   OH262193   0.569   3.357  11.680 -0.0441  0.3623  0.4386
13593TIP3    H162194   0.588   3.282  11.736 -0.0399  0.5288  0.6586
13593TIP3    H262195   0.499   3.326  11.622 -0.9237  0.5851  1.3622
13594TIP3   OH262196   5.837   6.153  12.957 -0.0133  0.6911  0.0935
13594TIP3    H162197   5.826   6.225  12.895  0.5567  0.6716 -0.0375
13594TIP3    H262198   5.793   6.079  12.916  2.9101 -0.1659 -1.7799
13595TIP3   OH262199   3.263   6.729   1.602  0.1834 -0.9149 -0.0250
13595TIP3    H162200   3.189   6.680   1.638 -2.4842  3.6633  1.7503
13595TIP3    H262201   3.246   6.732   1.508 -2.0279 -0.0511  0.3281
13596TIP3   OH262202   0.747   6.180  13.689 -0.4583 -0.2817 -0.5114
13596TIP3    H162203   0.840   6.190  13.671  0.0923 -2.4388  0.7583
13596TIP3    H262204   0.732   6.230  13.769 -0.4371  0.1692 -0.7856
13597TIP3   OH262205   0.236   0.106   0.006  0.3729  0.6743 -0.0366
13597TIP3    H162206   0.204   0.126   0.094  1.1949 -0.5348  0.5520
13597TIP3    H262207   0.307   0.169  -0.008  1.3576 -0.2042  0.8522
13598TIP3   OH262208   0.428   5.443   5.191 -0.2325 -0.1288  0.3863
13598TIP3    H162209   0.333   5.456   5.189 -0.3411 -0.5921  1.8503
13598TIP3    H262210   0.463   5.532   5.191 -0.6781  0.0525  0.2555
13599TIP3   OH262211   4.584   4.801  12.659 -0.3262  0.5510 -0.2346
13599TIP3    H162212   4.616   4.772  12.574 -0.2616  1.6516 -0.6015
13599TIP3    H262213   4.496   4.763  12.665 -0.2196  0.2264 -0.6639
13600TIP3   OH262214   4.458   3.978  14.336  0.0665 -0.1635 -0.0635
13600TIP3    H162215   4.445   4.066  14.370 -1.2742 -0.0179 -0.8915
13600TIP3    H262216   4.497   3.990  14.250 -1.0243 -0.3223 -0.5931
13601TIP3   OH262217   3.907   6.556  10.783 -0.5863 -0.7139 -0.9919
13601TIP3    H162218   3.940   6.640  10.815  0.7944 -1.0880 -1.3679
13601TIP3    H262219   3.818   6.550  10.818 -0.1704  0.2234  0.2948
13602TIP3   OH262220   1.009   4.587   2.285  0.0914  0.2274 -0.1558
13602TIP3    H162221   1.011   4.611   2.378  0.0977  0.5612 -0.2382
13602TIP3    H262222   0.997   4.492   2.284  2.0699 -0.0593  0.1982
13603TIP3   OH262223   3.928   3.617   2.916 -0.1457  0.9755  0.1404
13603TIP3    H162224   3.982   3.658   2.983 -0.6152  1.5532  0.1680
13603TIP3    H262225   3.877   3.688   2.879  1.1506  0.9476 -1.8644
13604TIP3   OH262226   0.144   1.040   0.375  0.0442 -0.3378 -0.2383
13604TIP3    H162227   0.185   0.953   0.379  0.1254 -0.2518  1.0658
13604TIP3    H262228   0.139   1.059   0.281 -0.5658 -2.0260 -0.5897
13605TIP3   OH262229   2.784   4.928  15.846 -0.7119 -0.5629  0.0430
13605TIP3    H162230   2.787   4.862  15.777  0.6776  0.5002 -0.9667
13605TIP3    H262231   2.859   4.907  15.902 -1.3222 -0.8890  0.7715
13606TIP3   OH262232   4.836   4.372   5.776  0.1840  0.2726 -0.4196
13606TIP3    H162233   4.834   4.312   5.850  0.5055 -2.2094 -2.3029
13606TIP3    H262234   4.825   4.316   5.699  1.1079  2.5589 -2.3487
13607TIP3   OH262235   4.375   5.883   5.470 -0.0138 -0.7728 -0.4798
13607TIP3    H162236   4.348   5.883   5.562  1.0270  1.6140 -0.0816
13607TIP3    H262237   4.449   5.822   5.467 -0.2355 -1.0860  0.2071
13608TIP3   OH262238   5.933   6.430   4.485  0.1569 -0.0469 -0.1181
13608TIP3    H162239   5.989   6.499   4.521 -1.8822  0.3254  2.6477
13608TIP3    H262240   5.952   6.353   4.539  0.8009 -1.0749 -1.7426
13609TIP3   OH262241   5.583   4.055   1.101  0.0477 -0.3043 -0.6522
13609TIP3    H162242   5.609   3.971   1.062  1.2188 -0.1862 -0.1760
13609TIP3    H262243   5.666   4.096   1.127 -0.6206 -0.1702  1.4991
13610TIP3   OH262244   5.755   6.320  11.936  0.0558  0.1258  0.4417
13610TIP3    H162245   5.693   6.253  11.908  0.4259  0.2091 -0.6360
13610TIP3    H262246   5.798   6.283  12.012  0.8086 -1.2186 -0.5978
13611TIP3   OH262247   2.026   2.501   1.487  0.1085  0.1232 -0.0452
13611TIP3    H162248   2.025   2.593   1.463 -2.3390  0.6552  1.7654
13611TIP3    H262249   2.097   2.493   1.551  3.6615 -0.4197 -3.6409
13612TIP3   OH262250   3.892   4.910  14.343 -0.0109 -0.6582 -0.6601
13612TIP3    H162251   3.857   4.999  14.342  1.5002 -0.0258 -1.7118
13612TIP3    H262252   3.867   4.875  14.428  1.0004  1.4640  0.5892
13613TIP3   OH262253   4.234   2.034  12.231 -0.0690 -0.1453 -0.2007
13613TIP3    H162254   4.289   2.015  12.154  0.8166  0.3843  0.2855
13613TIP3    H262255   4.180   1.956  12.240  1.9269 -1.5552  0.4046
13614TIP3   OH262256   3.380   4.470  16.575 -0.0329  0.3293 -0.0661
13614TIP3    H162257   3.318   4.419  16.627 -0.4657  0.8393 -0.0701
13614TIP3    H262258   3.434   4.405  16.530 -0.5975 -0.1185 -0.0999
13615TIP3   OH262259   4.447   6.008  13.719  0.2053 -0.6918 -0.6174
13615TIP3    H162260   4.536   5.977  13.734  0.5877  0.3663 -0.5619
13615TIP3    H262261   4.448   6.040  13.629 -0.0024 -0.3443 -0.5002
13616TIP3   OH262262   5.079   6.397  13.973 -0.1892 -0.0068  0.0244
13616TIP3    H162263   5.003   6.339  13.968 -0.3715  0.2043  0.3061
13616TIP3    H262264   5.154   6.338  13.976 -0.2565 -0.2060 -1.5838
13617TIP3   OH262265   6.568   3.162   6.128  0.0419  0.2110 -0.2533
13617TIP3    H162266   6.570   3.071   6.097  1.4715 -0.4552  1.6295
13617TIP3    H262267   6.481   3.194   6.104 -0.7670 -1.8999 -0.2853
13618TIP3   OH262268   0.734   1.775   2.208 -0.5849  0.3159 -0.1246
13618TIP3    H162269   0.759   1.718   2.135  0.0732  0.6495 -0.1685
13618TIP3    H262270   0.802   1.759   2.274 -1.6263 -0.6129  0.7634
13619TIP3   OH262271   2.545   2.957   5.882  0.2792 -0.5775 -0.0483
13619TIP3    H162272   2.607   2.974   5.952  0.7773  1.6948 -0.9526
13619TIP3    H262273   2.551   3.034   5.825 -2.8199 -0.5760 -0.5757
13620TIP3   OH262274   1.779   1.734   5.466 -0.1532  0.0208 -0.4780
13620TIP3    H162275   1.756   1.711   5.375 -2.2718 -0.8775  0.2138
13620TIP3    H262276   1.795   1.649   5.508 -0.0500  0.3727  0.2018
13621TIP3   OH262277   3.147   0.007  11.949  0.0782  0.0057 -0.3070
13621TIP3    H162278   3.183  -0.082  11.954 -1.3098 -0.5352  1.0517
13621TIP3    H262279   3.170   0.038  11.862  2.7840 -0.7067  0.0715
13622TIP3   OH262280   4.845   4.372   2.491 -0.3040 -0.1914  0.2517
13622TIP3    H162281   4.782   4.443   2.486 -1.6321 -1.3396 -0.0572
13622TIP3    H262282   4.893   4.388   2.572  0.6312  1.9717 -0.6493
13623TIP3   OH262283   4.212   0.958  16.684  0.3810 -0.8444 -0.0761
13623TIP3    H162284   4.199   1.046  16.649  0.7643 -1.2580 -1.3035
13623TIP3    H262285   4.291   0.965  16.738  1.0451 -0.6725 -1.0548
13624TIP3   OH262286   3.103   3.948   4.862 -0.2813  0.2152 -0.1444
13624TIP3    H162287   3.103   4.043   4.877 -0.2061  0.7259 -2.8695
13624TIP3    H262288   3.011   3.923   4.873 -0.4343  0.7496 -0.1509
13625TIP3   OH262289   2.423   5.296   5.387  0.0490 -0.2266 -0.2878
13625TIP3    H162290   2.505   5.298   5.337 -0.0682 -2.1632 -0.6225
13625TIP3    H262291   2.410   5.387   5.415  0.2243  0.9552 -3.6012
13626TIP3   OH262292   5.747   0.012  11.377  0.0882 -0.0950 -0.1010
13626TIP3    H162293   5.652   0.005  11.371 -0.1264  0.5945  1.9476
13626TIP3    H262294   5.773  -0.056  11.439  0.8236  0.3989  0.1448
13627TIP3   OH262295   1.820   4.879  13.804 -0.6727 -0.4184  0.0998
13627TIP3    H162296   1.908   4.841  13.800 -1.0849 -1.5130  0.9185
13627TIP3    H262297   1.821   4.949  13.739  0.6901 -0.6481 -0.1544
13628TIP3   OH262298   2.602   0.303  12.615  0.3283  0.5570 -0.4920
13628TIP3    H162299   2.513   0.302  12.579 -0.4795 -0.9360  1.3800
13628TIP3    H262300   2.623   0.211  12.630  1.9142  0.9338 -0.2111
13629TIP3   OH262301   6.400   3.610  16.278 -0.2778 -0.0991  0.3160
13629TIP3    H162302   6.383   3.682  16.338  1.8272  0.0237  0.8497
13629TIP3    H262303   6.418   3.652  16.194 -0.8762 -0.1273  0.1712
13630TIP3   OH262304   0.425   1.276   4.133  0.4817  0.2288  0.0455
13630TIP3    H162305   0.381   1.302   4.214 -0.5821 -2.3230  0.3849
13630TIP3    H262306   0.510   1.240   4.162  0.0460 -0.8076  0.0901
13631TIP3   OH262307   0.035   3.767  12.495  0.3517  0.1599 -0.5041
13631TIP3    H162308   0.065   3.687  12.452  0.9808 -0.1143  0.4198
13631TIP3    H262309  -0.057   3.751  12.514  0.9299 -1.1500  1.4179
13632TIP3   OH262310   4.425   6.566  13.311 -0.2085  0.2225  0.3543
13632TIP3    H162311   4.442   6.479  13.275 -1.2061  0.3141 -0.3822
13632TIP3    H262312   4.483   6.624  13.262  2.4244 -0.3119  2.6451
13633TIP3   OH262313   4.131   6.478  13.315 -0.3769 -0.3149  0.3917
13633TIP3    H162314   4.099   6.482  13.225  0.9262 -0.4638 -0.0940
13633TIP3    H262315   4.226   6.487  13.308  0.0886 -3.1530  1.4874
13634TIP3   OH262316   0.721   1.235   4.394  0.2552  0.2814  0.4307
13634TIP3    H162317   0.626   1.236   4.406  0.0540  2.2604 -0.8249
13634TIP3    H262318   0.736   1.165   4.331 -0.5771  0.8641 -0.4624
13635TIP3   OH262319   4.206   0.155   0.295  0.4409  0.2495 -0.3089
13635TIP3    H162320   4.174   0.116   0.376  0.7166  0.3807 -0.1324
13635TIP3    H262321   4.221   0.080   0.236  2.5485 -0.1033  0.5870
13636TIP3   OH262322   3.295   6.302   2.553  0.0859  0.3808  0.2353
13636TIP3    H162323   3.296   6.300   2.457 -0.2663  0.8375  0.2212
13636TIP3    H262324   3.267   6.390   2.575  0.4830  0.3765  0.7651
13637TIP3   OH262325   4.212   0.482   5.118  0.4667 -0.2660 -0.7137
13637TIP3    H162326   4.262   0.452   5.043 -1.2845 -0.1254 -1.9923
13637TIP3    H262327   4.252   0.566   5.142  3.5069 -2.0131  1.0406
13638TIP3   OH262328   3.172   0.779  10.574 -0.1170  0.8401  0.4520
13638TIP3    H162329   3.135   0.842  10.636 -0.6733 -0.0335  1.0204
13638TIP3    H262330   3.097   0.745  10.526  0.0459 -0.2424  0.9463
13639TIP3   OH262331   0.734   5.566   4.955 -0.3626 -0.2650 -0.4186
13639TIP3    H162332   0.820   5.565   4.996 -0.1411  1.5406 -0.7262
13639TIP3    H262333   0.687   5.638   4.998 -1.7315 -1.2047 -0.2656
13640TIP3   OH262334   4.725   6.391   5.163 -0.3959 -0.0169  0.1090
13640TIP3    H162335   4.747   6.474   5.121 -0.0514  0.1198  0.5479
13640TIP3    H262336   4.638   6.369   5.131 -0.1659  0.1151 -0.6192
13641TIP3   OH262337   2.414   0.842  12.295  0.1924  0.1077 -0.6536
13641TIP3    H162338   2.470   0.822  12.370  1.8577 -0.7831 -2.0551
13641TIP3    H262339   2.329   0.802  12.316  1.2921 -2.0908 -0.1770
13642TIP3   OH262340   2.877   2.403  13.157  0.4173  0.4296 -0.3316
13642TIP3    H162341   2.891   2.358  13.074 -1.0638 -0.8372  0.0534
13642TIP3    H262342   2.787   2.381  13.181  1.2896 -0.5713  2.4024
13643TIP3   OH262343   1.371   5.482  12.169  0.6549  0.2166 -0.1476
13643TIP3    H162344   1.442   5.442  12.219  0.7802 -0.1093 -0.5779
13643TIP3    H262345   1.412   5.555  12.123  0.4019  0.9216  0.7259
13644TIP3   OH262346   6.402   0.854   5.120  0.6835 -0.2157 -0.6072
13644TIP3    H162347   6.418   0.765   5.091 -0.9023 -1.2629  1.4759
13644TIP3    H262348   6.489   0.890   5.137  1.3188 -2.6028  1.8589
13645TIP3   OH262349   5.161   1.375  16.526  0.2537  0.7236  0.2638
13645TIP3    H162350   5.156   1.343  16.436 -1.5462 -1.0301  0.9121
13645TIP3    H262351   5.123   1.463  16.522  2.2401  1.5950 -1.0075
13646TIP3   OH262352   0.261   1.285  13.612 -0.4697  0.0811 -0.0798
13646TIP3    H162353   0.171   1.262  13.637 -0.2725 -0.7433 -0.1048
13646TIP3    H262354   0.316   1.245  13.680 -0.1092  0.5236 -0.1018
13647TIP3   OH262355   3.248   5.322   0.255  0.1319 -0.4803 -0.2724
13647TIP3    H162356   3.254   5.322   0.159 -0.0736 -0.0785 -0.2874
13647TIP3    H262357   3.334   5.350   0.284 -0.4615  1.6788 -0.4030
13648TIP3   OH262358   0.757   1.695   5.719 -0.0916 -0.5431  0.4128
13648TIP3    H162359   0.736   1.786   5.743  1.7273 -0.2960  1.2014
13648TIP3    H262360   0.851   1.695   5.703 -0.3592 -1.9155 -1.4834
13649TIP3   OH262361   3.783   2.115  14.489 -0.2536  0.2599 -0.3632
13649TIP3    H162362   3.724   2.115  14.414 -1.0432 -0.7069  0.2280
13649TIP3    H262363   3.869   2.094  14.453 -0.3751  1.0937 -1.1562
13650TIP3   OH262364   5.448   4.847   5.189 -0.1294 -0.4227 -0.4059
13650TIP3    H162365   5.430   4.927   5.140 -2.2077 -0.9714 -0.6217
13650TIP3    H262366   5.367   4.829   5.237  0.6443 -1.8495  0.4472
13651TIP3   OH262367   0.211   4.228   1.809 -0.1824  0.2789 -0.1066
13651TIP3    H162368   0.180   4.184   1.730  2.9360  1.8433 -2.4069
13651TIP3    H262369   0.171   4.315   1.805  0.1041  0.4148 -0.0264
13652TIP3   OH262370   6.650   2.344  15.445  0.5180 -0.4929  0.8309
13652TIP3    H162371   6.602   2.427  15.444  0.9675 -0.2020 -1.1995
13652TIP3    H262372   6.602   2.290  15.508 -1.1239  0.5609  0.5587
13653TIP3   OH262373   6.163   4.773  14.220 -0.2140 -0.2072  0.2199
13653TIP3    H162374   6.254   4.801  14.229 -0.4546  1.0938 -1.1171
13653TIP3    H262375   6.161   4.724  14.137 -0.8714  0.4664 -0.1745
13654TIP3   OH262376   6.302   0.868  13.945 -0.1959 -0.0594  0.0503
13654TIP3    H162377   6.301   0.807  13.872 -0.4982  0.4391 -0.3701
13654TIP3    H262378   6.379   0.923  13.930 -1.0572  0.9905 -0.7067
13655TIP3   OH262379   4.688   1.788  13.269 -0.3477  0.4664  0.0552
13655TIP3    H162380   4.687   1.739  13.186 -0.3342 -0.5301  0.6226
13655TIP3    H262381   4.599   1.819  13.279 -0.2372  1.0077 -0.5643
13656TIP3   OH262382   5.052   6.174   5.719  0.3997 -0.2256 -0.1525
13656TIP3    H162383   5.030   6.113   5.789 -1.7577  0.3812 -0.2468
13656TIP3    H262384   5.126   6.133   5.674  0.8090 -1.3805  1.4951
13657TIP3   OH262385   0.430   6.051   3.133 -0.2566 -0.5706  0.4774
13657TIP3    H162386   0.335   6.049   3.146 -0.1581 -1.1850  1.2128
13657TIP3    H262387   0.455   6.142   3.148 -0.8276 -0.2271 -0.5499
13658TIP3   OH262388   3.663   2.348   3.370  0.3512  0.4229  0.0967
13658TIP3    H162389   3.703   2.396   3.297  0.8502 -1.4289 -0.9288
13658TIP3    H262390   3.724   2.358   3.442  1.1059  0.2630 -0.5050
13659TIP3   OH262391   1.279   6.327   1.932  0.1078 -0.2416 -0.0859
13659TIP3    H162392   1.358   6.381   1.935  0.8050 -1.1713 -0.7154
13659TIP3    H262393   1.240   6.336   2.019 -0.0500  1.5772 -0.3050
13660TIP3   OH262394   2.664   0.638   0.926 -0.3746  0.6126  0.3564
13660TIP3    H162395   2.600   0.700   0.891  0.0125  0.2650 -0.9905
13660TIP3    H262396   2.669   0.569   0.860 -0.1156 -0.4037  1.4079
13661TIP3   OH262397   6.022   1.569   3.617  0.0259 -0.0534 -0.4339
13661TIP3    H162398   6.065   1.654   3.632 -0.1959 -0.0188  0.0335
13661TIP3    H262399   6.061   1.511   3.683 -0.2973 -0.1464 -0.3254
13662TIP3   OH262400   4.911   4.049   5.720  0.4713  0.2334 -0.4925
13662TIP3    H162401   4.999   4.013   5.727  0.0106 -0.6972  1.0584
13662TIP3    H262402   4.868   4.025   5.803 -0.7799  1.9384 -0.5880
13663TIP3   OH262403   4.218   5.576  15.508 -0.1402  0.5738  0.5166
13663TIP3    H162404   4.123   5.574  15.509 -0.1578  1.0783  0.3975
13663TIP3    H262405   4.241   5.568  15.415 -0.1691  3.0232  0.2191
13664TIP3   OH262406   4.652   3.981  12.969 -0.3811 -0.4933  0.2817
13664TIP3    H162407   4.728   3.940  12.926 -0.0377 -0.5465  0.9335
13664TIP3    H262408   4.607   4.028  12.898  0.9536  0.5687  0.0868
13665TIP3   OH262409   1.242   3.249   3.634  0.2740 -0.2926 -0.3586
13665TIP3    H162410   1.327   3.206   3.642  1.4314  1.0984 -3.5213
13665TIP3    H262411   1.191   3.216   3.708  3.7949 -0.5319  2.1817
13666TIP3   OH262412   4.253   6.147  14.379 -0.0750  0.2072 -0.0658
13666TIP3    H162413   4.186   6.203  14.418  1.2339  0.7072  1.5967
13666TIP3    H262414   4.204   6.073  14.341 -1.8722  2.4687 -2.5038
13667TIP3   OH262415   2.791   2.905   0.661  0.2412  0.0723 -0.2924
13667TIP3    H162416   2.738   2.827   0.675  0.5025  0.0257  0.4398
13667TIP3    H262417   2.738   2.959   0.601  0.6074 -1.1972 -1.8189
13668TIP3   OH262418   4.408   5.143  15.657 -0.4215  0.2897 -0.0494
13668TIP3    H162419   4.377   5.216  15.711 -2.3512  0.6925 -1.6126
13668TIP3    H262420   4.468   5.184  15.595  0.5648  0.0733  0.7262
13669TIP3   OH262421   4.629   1.289  14.415 -0.0132 -0.0741 -0.0460
13669TIP3    H162422   4.548   1.238  14.412 -0.2919  0.3757 -0.3479
13669TIP3    H262423   4.601   1.379  14.400  0.6382 -0.0152 -0.9697
13670TIP3   OH262424   3.770   4.781  14.601  0.4992  0.1715 -0.2864
13670TIP3    H162425   3.750   4.689  14.588 -0.3018  0.3294 -0.2203
13670TIP3    H262426   3.806   4.786  14.690  0.3812 -0.0497 -0.2262
13671TIP3   OH262427   4.349   2.145  14.908  0.7111  0.0831  0.4277
13671TIP3    H162428   4.333   2.134  15.002 -1.2489 -1.2574  0.0042
13671TIP3    H262429   4.309   2.229  14.887 -1.3504 -0.8360  0.3707
13672TIP3   OH262430   0.561   0.640  15.888  0.6275 -0.0979  0.5647
13672TIP3    H162431   0.555   0.695  15.966  3.0174 -0.9031  1.4144
13672TIP3    H262432   0.507   0.685  15.823  0.6009  1.9676  1.9114
13673TIP3   OH262433   5.423   2.397  13.665 -0.1416 -0.1780  0.0114
13673TIP3    H162434   5.353   2.404  13.601  0.4299 -0.6375 -0.6843
13673TIP3    H262435   5.455   2.486  13.676 -0.5261 -0.0369 -0.0262
13674TIP3   OH262436   1.906   5.114   0.719  0.2450  0.7228  0.2975
13674TIP3    H162437   1.909   5.120   0.814  1.2519  0.6511  0.2807
13674TIP3    H262438   1.861   5.194   0.691 -1.7251 -0.1088  0.8984
13675TIP3   OH262439   2.734   4.059  11.420 -0.3340  0.6938  0.0874
13675TIP3    H162440   2.781   4.136  11.453 -0.9974  0.2006  2.3254
13675TIP3    H262441   2.674   4.094  11.354  0.8822  1.7550 -0.5130
13676TIP3   OH262442   2.645   1.558   2.406 -0.1834 -0.5272 -0.1314
13676TIP3    H162443   2.549   1.566   2.412 -0.3287 -1.5210 -0.9112
13676TIP3    H262444   2.663   1.471   2.440  0.5733  0.0496  1.0120
13677TIP3   OH262445   6.012   5.997  11.119 -0.2096 -0.0898  0.0962
13677TIP3    H162446   6.028   6.038  11.205 -1.9900  0.4703  0.1890
13677TIP3    H262447   5.961   5.919  11.139  2.3257 -1.9698 -0.1811
13678TIP3   OH262448   2.322   6.344   4.869 -0.2395 -0.3095  0.3460
13678TIP3    H162449   2.360   6.289   4.801  0.4565  0.6548 -0.0631
13678TIP3    H262450   2.368   6.428   4.862  1.3246 -0.7608  3.2813
13679TIP3   OH262451   5.892   2.427  15.633  0.1390  1.1827  0.1834
13679TIP3    H162452   5.823   2.460  15.576  1.4598  0.4988 -1.9496
13679TIP3    H262453   5.897   2.491  15.704 -1.8158  1.8971 -0.2497
13680TIP3   OH262454   3.380   5.408  16.158 -0.4708 -0.4129 -0.3032
13680TIP3    H162455   3.356   5.493  16.195 -0.1002  0.1999 -1.4157
13680TIP3    H262456   3.311   5.390  16.094 -0.7900 -1.1727  0.2457
13681TIP3   OH262457   5.788   5.583   2.910 -0.4696 -0.4337  0.6284
13681TIP3    H162458   5.776   5.669   2.952  0.1096  0.0508 -0.1792
13681TIP3    H262459   5.744   5.522   2.970  0.6594  0.1820  2.1558
13682TIP3   OH262460   5.445   4.605   6.131 -0.2435 -1.1552 -0.5036
13682TIP3    H162461   5.476   4.666   6.064  0.4332 -2.3181 -1.2914
13682TIP3    H262462   5.391   4.659   6.189  2.7690  0.9263  0.6505
13683TIP3   OH262463   1.759   2.904   1.632  0.1456  0.4566 -0.5422
13683TIP3    H162464   1.747   2.865   1.719 -0.5813  1.9610  0.0689
13683TIP3    H262465   1.779   2.996   1.649  1.8578  0.4125 -1.9384
13684TIP3   OH262466   3.313   1.022   4.452  0.1822  0.4853  0.3807
13684TIP3    H162467   3.242   0.988   4.397  0.4121  0.0396  0.3533
13684TIP3    H262468   3.391   1.016   4.397  0.5222 -0.5223  0.9475
13685TIP3   OH262469   6.669   2.139  13.705 -0.5712  0.4347  0.2814
13685TIP3    H162470   6.630   2.086  13.775 -1.3432 -0.5213 -0.8242
13685TIP3    H262471   6.763   2.130  13.718 -0.6833 -1.1592  0.1861
13686TIP3   OH262472   3.003   5.884   3.059  1.2684 -0.1876 -0.2065
13686TIP3    H162473   3.098   5.886   3.055  1.2303  0.5164 -1.2376
13686TIP3    H262474   2.976   5.968   3.023  0.2853  0.6460  2.2811
13687TIP3   OH262475   2.068   4.911   4.789 -0.1469  0.3320  0.2649
13687TIP3    H162476   2.126   4.853   4.837 -1.4963  0.5161  2.2294
13687TIP3    H262477   2.124   4.953   4.724  1.3281 -1.4182  0.3261
13688TIP3   OH262478   1.172   0.106   0.299 -0.0638  0.0717 -0.4968
13688TIP3    H162479   1.239   0.162   0.338  0.9816 -0.2151 -1.8281
13688TIP3    H262480   1.206   0.017   0.309  0.0142 -0.0368 -1.6397
13689TIP3   OH262481   0.793   3.568   1.724 -0.1009  0.0175  0.2902
13689TIP3    H162482   0.731   3.497   1.740  0.3276 -0.0923  1.6035
13689TIP3    H262483   0.751   3.646   1.762  0.6990 -0.1287  1.5097
13690TIP3   OH262484   5.531   3.348   5.027  0.0481 -0.3694  0.2155
13690TIP3    H162485   5.448   3.302   5.015 -0.6679  0.9596 -0.2244
13690TIP3    H262486   5.598   3.282   5.011 -0.9308 -1.1341 -0.9023
13691TIP3   OH262487   0.419   0.058  12.111  0.4341  0.3159  0.6048
13691TIP3    H162488   0.393  -0.028  12.079 -0.1914  0.7156  0.0065
13691TIP3    H262489   0.515   0.054  12.115  0.4549 -0.1748 -0.1192
13692TIP3   OH262490   2.150   3.307  14.084 -0.4324  0.1277 -0.1500
13692TIP3    H162491   2.149   3.394  14.044 -1.5587 -0.2557 -1.0207
13692TIP3    H262492   2.204   3.317  14.162  0.8380  1.2001 -1.1220
13693TIP3   OH262493   0.896   1.010   4.304  0.1034 -0.0915 -0.1475
13693TIP3    H162494   0.941   0.927   4.321  0.8465  0.1763 -0.7741
13693TIP3    H262495   0.952   1.077   4.342  0.3081  0.2559 -1.0459
13694TIP3   OH262496   0.223   0.885   3.910 -0.5038 -0.0560  0.4774
13694TIP3    H162497   0.266   0.961   3.948 -1.1338  0.0964  0.8954
13694TIP3    H262498   0.292   0.819   3.904  0.6486  1.2650 -2.0931
13695TIP3   OH262499   6.019   2.352  11.853  0.3516 -0.2147  0.0911
13695TIP3    H162500   5.958   2.340  11.781 -1.3816  0.4420  1.3695
13695TIP3    H262501   6.003   2.276  11.910  0.2318  0.3089  0.7636
13696TIP3   OH262502   1.287   2.449  10.875 -0.2610  0.1261  0.3060
13696TIP3    H162503   1.316   2.429  10.786  0.9684 -1.6305  1.0333
13696TIP3    H262504   1.306   2.542  10.887  0.9390  0.0428 -0.7830
13697TIP3   OH262505   2.248   1.050  12.245 -0.1845 -0.2268 -0.3990
13697TIP3    H162506   2.327   0.995  12.254  0.5294  0.5193 -1.7685
13697TIP3    H262507   2.250   1.106  12.322  0.2531 -0.6694 -0.0743
13698TIP3   OH262508   3.277   4.268  16.747 -0.2989 -0.1344 -0.0412
13698TIP3    H162509   3.236   4.323  16.815  0.4805  1.8741 -1.1091
13698TIP3    H262510   3.370   4.270  16.769  0.2060  1.9322 -1.9924
13699TIP3   OH262511   4.722   0.613  16.638  0.0544 -0.3861 -0.3010
13699TIP3    H162512   4.802   0.657  16.665  0.4725 -1.1676 -0.2290
13699TIP3    H262513   4.655   0.680  16.641  0.3024 -0.1799  1.5834
13700TIP3   OH262514   1.988   0.854   1.097  1.0184 -0.2515 -0.0497
13700TIP3    H162515   1.992   0.883   1.006  0.1167  0.6005  0.1706
13700TIP3    H262516   2.034   0.922   1.146 -0.1956  0.3076  0.3463
13701TIP3   OH262517   3.436   2.696   0.666 -0.3675  0.1143 -0.0764
13701TIP3    H162518   3.507   2.744   0.624  0.0513 -2.4369 -2.5634
13701TIP3    H262519   3.389   2.654   0.593 -1.3840 -2.2769  1.8255
13702TIP3   OH262520   5.188   6.540  16.843  0.1439  0.4073  0.0156
13702TIP3    H162521   5.118   6.496  16.794 -1.0922  2.3487 -0.0728
13702TIP3    H262522   5.173   6.514  16.934  1.2086 -1.5879 -0.3242
13703TIP3   OH262523   3.667   2.936  15.158  0.2627 -0.0947  0.2228
13703TIP3    H162524   3.618   3.018  15.153  1.5295  0.7063  0.3661
13703TIP3    H262525   3.655   2.906  15.248  0.2575  0.2438  0.3366
13704TIP3   OH262526   3.068   4.710  14.965 -0.2310 -0.2812  0.2642
13704TIP3    H162527   3.095   4.633  14.916 -5.1675 -0.9331 -1.9206
13704TIP3    H262528   3.020   4.676  15.040 -0.6700  0.7085  0.4456
13705TIP3   OH262529   0.611   2.234   4.768 -0.1829 -0.0121 -0.2137
13705TIP3    H162530   0.553   2.184   4.825 -0.2771  1.0803  0.6813
13705TIP3    H262531   0.552   2.271   4.702 -0.2782 -0.1377 -0.2002
13706TIP3   OH262532   3.701   6.172   2.703  0.3314 -0.2576  0.5905
13706TIP3    H162533   3.668   6.169   2.793 -0.7217 -1.0562  0.2040
13706TIP3    H262534   3.625   6.148   2.650  1.2570 -0.9894 -0.4304
13707TIP3   OH262535   3.954   4.328   0.352 -0.0420 -0.7798 -0.0591
13707TIP3    H162536   4.007   4.255   0.320  0.4787 -1.0639  1.3789
13707TIP3    H262537   3.876   4.287   0.388  0.5852 -0.7403  1.4339
13708TIP3   OH262538   1.595   1.179  14.648 -0.1274  0.3727 -0.1436
13708TIP3    H162539   1.615   1.086  14.638 -1.2431 -0.0174  1.0549
13708TIP3    H262540   1.673   1.216  14.690 -0.0979 -0.2169  0.3250
13709TIP3   OH262541   1.822   6.071  15.027 -0.5075  0.0806  0.1770
13709TIP3    H162542   1.899   6.113  14.988 -0.1011 -1.1015 -0.3406
13709TIP3    H262543   1.772   6.143  15.066 -0.7208  1.2931 -2.1612
13710TIP3   OH262544   3.239   3.863  16.150  0.0271 -0.0080 -0.6534
13710TIP3    H162545   3.317   3.876  16.204 -1.0499 -0.6791  1.1292
13710TIP3    H262546   3.230   3.946  16.102 -1.2810  2.4270  3.3049
13711TIP3   OH262547   2.820   0.218  13.857  0.0704  0.2217  0.2965
13711TIP3    H162548   2.856   0.285  13.916  2.1699  3.7009 -4.2500
13711TIP3    H262549   2.895   0.164  13.832 -0.4608 -0.3379 -0.1379
13712TIP3   OH262550   1.861   1.107  14.429  0.0691 -0.1464 -0.1054
13712TIP3    H162551   1.818   1.193  14.426 -1.3235 -0.7946  0.5385
13712TIP3    H262552   1.820   1.057  14.359  0.7169 -0.3792 -0.3262
13713TIP3   OH262553   3.254   5.931   5.004 -0.3198 -0.2327  0.1626
13713TIP3    H162554   3.268   5.836   5.006  0.3787 -0.1495  2.0966
13713TIP3    H262555   3.161   5.941   5.021 -0.5604 -0.5777 -0.8988
13714TIP3   OH262556   4.021   0.422   1.786 -0.3910 -0.2237  0.8460
13714TIP3    H162557   4.096   0.461   1.831 -0.2888 -0.5337  0.9465
13714TIP3    H262558   4.029   0.328   1.803 -0.7402 -0.2687  0.7614
13715TIP3   OH262559   4.232   0.492   4.296  0.8459 -0.0010  0.3716
13715TIP3    H162560   4.298   0.560   4.312  0.9241 -0.3844  1.8704
13715TIP3    H262561   4.198   0.471   4.383 -1.4010  0.2940 -0.3569
13716TIP3   OH262562   0.082   2.812   0.670  0.3260 -0.4272  0.3033
13716TIP3    H162563   0.140   2.863   0.726  1.3824  0.3420 -1.4198
13716TIP3    H262564   0.132   2.732   0.651 -0.1403 -0.8091  0.6674
13717TIP3   OH262565   4.986   4.138  16.676  0.3769  0.5725 -0.3993
13717TIP3    H162566   5.040   4.136  16.597  0.4948  1.8771 -0.3755
13717TIP3    H262567   5.034   4.195  16.736  0.5693 -0.8488  0.8434
13718TIP3   OH262568   3.387   6.478   5.665 -0.7368 -0.1103 -0.0778
13718TIP3    H162569   3.356   6.483   5.575  2.3077 -3.4844 -1.5672
13718TIP3    H262570   3.310   6.451   5.716 -1.8668 -0.9905 -2.1648
13719TIP3   OH262571   2.815   3.318   0.218 -0.0453  0.5181 -0.3778
13719TIP3    H162572   2.744   3.380   0.197  1.2400  2.8647  1.5735
13719TIP3    H262573   2.864   3.310   0.137 -0.1160  2.3321 -0.6498
13720TIP3   OH262574   2.207   0.375  16.342  0.3206  0.2017  0.3991
13720TIP3    H162575   2.213   0.280  16.340  0.2493  0.1952  0.5658
13720TIP3    H262576   2.266   0.404  16.272  1.8481  0.1055  1.5914
13721TIP3   OH262577   6.722   5.574   2.956  0.6021 -0.3348  0.2237
13721TIP3    H162578   6.730   5.669   2.954 -0.9280 -0.1080  1.7935
13721TIP3    H262579   6.678   5.555   3.039  0.5422 -2.3914 -0.2049
13722TIP3   OH262580   1.887   0.645  13.485  0.3202  0.0164  0.0636
13722TIP3    H162581   1.967   0.634  13.434  0.3706  0.2403  0.0955
13722TIP3    H262582   1.916   0.653  13.576  0.4330  2.1655 -0.1133
13723TIP3   OH262583   2.572   5.423   0.188  0.1456 -0.3209  0.4224
13723TIP3    H162584   2.639   5.467   0.136 -0.1556 -1.0276 -0.6060
13723TIP3    H262585   2.515   5.494   0.219  0.4512  0.1374 -0.0576
13724TIP3   OH262586   6.577   4.168   1.565 -0.3770  0.3230 -0.5774
13724TIP3    H162587   6.668   4.149   1.587 -0.1766  0.6193 -1.1290
13724TIP3    H262588   6.537   4.194   1.648  0.3976  1.5306 -0.5512
13725TIP3   OH262589   2.893   2.828   2.440  0.7532  0.3334 -0.1826
13725TIP3    H162590   2.843   2.905   2.464 -0.3090 -0.7202  1.1503
13725TIP3    H262591   2.869   2.812   2.348 -3.1940 -1.3134  0.8918
13726TIP3   OH262592   2.333   3.805   2.753 -0.7900  0.2867  1.4037
13726TIP3    H162593   2.247   3.846   2.755 -1.6680 -1.3906  0.1897
13726TIP3    H262594   2.316   3.713   2.734  1.3002  0.0441  0.3395
13727TIP3   OH262595   3.515   5.344   2.500  0.0583  0.1561 -0.4377
13727TIP3    H162596   3.480   5.377   2.417 -0.4719  2.1267  0.5091
13727TIP3    H262597   3.498   5.414   2.563  2.3645 -0.3903  0.8959
13728TIP3   OH262598   3.247   6.025   2.915  0.0726 -0.0909  0.1696
13728TIP3    H162599   3.266   6.118   2.902  0.7740 -0.4576 -1.8064
13728TIP3    H262600   3.302   5.999   2.989  0.6993  0.8258  0.0417
13729TIP3   OH262601   6.772   0.174  12.891 -0.0945 -0.1171  0.8941
13729TIP3    H162602   6.772   0.120  12.970  1.7379 -0.4135  0.7422
13729TIP3    H262603   6.826   0.250  12.914 -0.3840  0.2925  0.2477
13730TIP3   OH262604   0.940   4.852   4.187 -0.0359 -0.2921 -0.2505
13730TIP3    H162605   0.987   4.933   4.167  2.1988 -1.4682 -0.0675
13730TIP3    H262606   0.917   4.816   4.101 -2.3661  1.1729 -0.3328
13731TIP3   OH262607   1.972   3.436   3.146 -0.1691 -0.4048 -0.2313
13731TIP3    H162608   1.914   3.387   3.088 -1.4928  1.3266 -0.4776
13731TIP3    H262609   1.942   3.413   3.234 -0.9548  0.1099 -0.3499
13732TIP3   OH262610   6.240   5.715   2.901 -0.1691 -0.2035  0.0034
13732TIP3    H162611   6.167   5.685   2.845  0.0362  0.6981 -0.7755
13732TIP3    H262612   6.300   5.640   2.904 -1.3902 -1.1786  1.1560
13733TIP3   OH262613   2.282   0.160   1.482  0.0461 -0.0074 -0.0800
13733TIP3    H162614   2.350   0.137   1.419  1.1008 -2.1601  1.7013
13733TIP3    H262615   2.298   0.252   1.501  3.9428 -0.8315  1.7728
13734TIP3   OH262616   0.519   6.350  16.253  0.0273 -0.1272  0.6063
13734TIP3    H162617   0.500   6.308  16.337  0.0785 -0.9186  0.2261
13734TIP3    H262618   0.568   6.429  16.277  0.2052 -0.4449  1.3132
13735TIP3   OH262619   1.201   2.956   4.856 -0.6152 -0.2573 -0.3723
13735TIP3    H162620   1.161   2.898   4.791 -1.4476 -0.4889  0.3201
13735TIP3    H262621   1.238   2.898   4.922 -1.0766 -0.0188  0.1080
13736TIP3   OH262622   1.926   1.368   6.461  0.7232  0.9583 -0.0865
13736TIP3    H162623   1.907   1.458   6.486  0.2289  0.9393 -0.3810
13736TIP3    H262624   2.004   1.345   6.512  0.4072  1.3003  0.5695
13737TIP3   OH262625   5.289   3.251   0.641 -0.4504 -0.1377  0.2301
13737TIP3    H162626   5.315   3.159   0.639  0.2529  0.0655 -0.0876
13737TIP3    H262627   5.242   3.265   0.559 -0.5668 -0.2158  0.2835
13738TIP3   OH262628   5.092   4.991   2.401  0.4100 -0.0914  0.4743
13738TIP3    H162629   5.041   5.040   2.337 -2.9693  0.9298  3.6032
13738TIP3    H262630   5.130   5.058   2.458 -0.1747 -0.9630  1.9467
13739TIP3   OH262631   2.769   3.947   1.727  0.3962 -0.1641  0.1960
13739TIP3    H162632   2.752   3.889   1.653  1.2411 -0.2300  0.0370
13739TIP3    H262633   2.684   3.960   1.768 -0.1978  0.4018 -1.1762
13740TIP3   OH262634   3.951   1.962  11.715 -0.3041 -0.3306 -0.4970
13740TIP3    H162635   3.861   1.954  11.681 -0.0979  0.2402 -1.2072
13740TIP3    H262636   3.999   2.006  11.645  0.3447  0.1016  0.2032
13741TIP3   OH262637   0.292   0.786   5.866  0.3862  0.1785 -0.5902
13741TIP3    H162638   0.345   0.800   5.944  0.4711  2.0943 -0.9412
13741TIP3    H262639   0.212   0.744   5.898  1.6148 -1.7562  0.0893
13742TIP3   OH262640   3.090   3.849   1.554  0.0940 -0.4973 -0.2805
13742TIP3    H162641   3.084   3.941   1.528  1.7190 -0.3641 -0.2393
13742TIP3    H262642   3.020   3.807   1.504 -1.4690  0.9250  0.6003
13743TIP3   OH262643   2.044   3.124   3.013 -0.8271  0.4883  0.6726
13743TIP3    H162644   1.992   3.047   3.035 -1.0817 -0.0086 -1.4692
13743TIP3    H262645   2.133   3.090   3.001 -0.9723  0.4501 -0.4456
13744TIP3   OH262646   0.436   0.613   1.437  0.0999 -0.0171  0.1524
13744TIP3    H162647   0.452   0.526   1.474 -3.6002 -0.4523  1.1455
13744TIP3    H262648   0.486   0.672   1.493 -0.3970 -1.2146  1.9578
13745TIP3   OH262649   1.591   2.801  12.315 -0.0782  0.0365 -0.3081
13745TIP3    H162650   1.540   2.814  12.235 -1.1103 -1.0748  0.1412
13745TIP3    H262651   1.631   2.715  12.305 -0.8305 -0.4531  0.6635
13746TIP3   OH262652   5.918   3.248  14.092 -0.6183 -0.3698 -0.4909
13746TIP3    H162653   5.884   3.220  14.177 -0.8539  1.1316 -0.0442
13746TIP3    H262654   5.855   3.313  14.061 -0.0581 -0.2311 -1.3801
13747TIP3   OH262655   0.699   0.194   5.098 -0.0328  0.4378 -0.0554
13747TIP3    H162656   0.662   0.172   5.184  1.3685  0.2511  0.5275
13747TIP3    H262657   0.655   0.135   5.037  0.4358 -0.8760  0.8389
13748TIP3   OH262658   4.521   2.441  13.286 -0.3472 -0.1001 -0.1583
13748TIP3    H162659   4.436   2.413  13.319  0.7259 -1.6233  1.5022
13748TIP3    H262660   4.578   2.440  13.363  2.3061 -3.7287 -1.8433
13749TIP3   OH262661   6.128   5.134   1.843 -0.3774 -0.2820 -0.5699
13749TIP3    H162662   6.056   5.128   1.907 -0.8861  0.1184 -1.0949
13749TIP3    H262663   6.182   5.057   1.861 -1.8334 -1.4985 -1.2437
13750TIP3   OH262664   3.118   4.090   5.647 -0.2282 -0.0522 -0.3520
13750TIP3    H162665   3.080   4.052   5.726  1.0469 -0.4529  0.0905
13750TIP3    H262666   3.063   4.057   5.575  1.2376 -3.4198 -0.0936
13751TIP3   OH262667   3.682   5.000   5.072 -0.3107 -0.0206  0.0036
13751TIP3    H162668   3.716   4.969   4.988 -2.7126 -2.1723 -0.2955
13751TIP3    H262669   3.676   4.921   5.126 -1.1338  0.9042  1.3285
13752TIP3   OH262670   0.465   5.592   2.423  0.2335  0.0983 -0.2260
13752TIP3    H162671   0.410   5.515   2.408 -0.1777  0.2848  0.2867
13752TIP3    H262672   0.413   5.647   2.482 -0.7601  2.0947 -2.7452
13753TIP3   OH262673   5.422   2.301   6.598  0.4922 -0.3954 -0.2865
13753TIP3    H162674   5.413   2.206   6.607  0.2025 -0.5650 -2.0419
13753TIP3    H262675   5.334   2.335   6.616  0.2200 -0.6179 -1.1196
13754TIP3   OH262676   2.402   0.201   2.688  0.2692  0.3318 -0.0735
13754TIP3    H162677   2.439   0.135   2.747 -0.8555 -0.6179 -0.3844
13754TIP3    H262678   2.386   0.153   2.606 -1.4079  0.7484 -0.0200
13755TIP3   OH262679   0.179   3.878  14.682  0.7372  0.0371  0.7507
13755TIP3    H162680   0.096   3.907  14.720  0.6279  1.9761 -0.8144
13755TIP3    H262681   0.239   3.951  14.698  1.0194  0.3840 -1.6260
13756TIP3   OH262682   2.164   6.358  14.766  0.7750 -0.4018 -0.2501
13756TIP3    H162683   2.174   6.263  14.770 -0.1197 -0.4855  0.3368
13756TIP3    H262684   2.225   6.392  14.832  1.1518 -0.5601 -0.5159
13757TIP3   OH262685   1.813   1.579  15.439 -0.5737  0.3640  0.4452
13757TIP3    H162686   1.776   1.664  15.417 -0.6093 -0.0804 -1.3785
13757TIP3    H262687   1.900   1.581  15.399 -0.4672 -0.3425  0.6393
13758TIP3   OH262688   5.995   5.640   4.143 -0.2175 -0.1928 -0.4103
13758TIP3    H162689   6.060   5.574   4.117 -1.0724 -0.8334 -0.9840
13758TIP3    H262690   5.966   5.611   4.229  0.0183 -0.0904 -0.2957
13759TIP3   OH262691   0.779   0.924   2.993 -0.3649 -0.0048 -0.0268
13759TIP3    H162692   0.862   0.878   3.002  0.2567  0.9397 -0.7956
13759TIP3    H262693   0.715   0.855   2.977  0.5203 -0.6209 -1.0003
13760TIP3   OH262694   2.670   2.844   4.692 -0.6295  0.4616  0.7600
13760TIP3    H162695   2.643   2.753   4.680 -2.0957  1.1906 -2.6562
13760TIP3    H262696   2.723   2.863   4.615  0.0642  2.3909  1.6670
13761TIP3   OH262697   1.090   1.059   5.052  0.0637 -0.5501  0.2438
13761TIP3    H162698   1.000   1.082   5.030  0.0042 -0.1720  0.8621
13761TIP3    H262699   1.111   0.987   4.992  0.2327  1.0184 -1.7104
13762TIP3   OH262700   1.961   6.323   0.922 -0.0172  0.2448  0.4208
13762TIP3    H162701   1.941   6.283   1.006 -1.7620  1.7138  0.7837
13762TIP3    H262702   1.978   6.415   0.942 -0.9051  0.7195 -0.8526
13763TIP3   OH262703   6.591   2.405   1.842  0.1356 -0.1812 -0.0247
13763TIP3    H162704   6.668   2.449   1.806 -1.2778  2.3011 -0.2717
13763TIP3    H262705   6.538   2.384   1.765 -0.5948  0.5529  0.2549
13764TIP3   OH262706   5.869   3.112  11.317  0.3073 -0.1325  0.2847
13764TIP3    H162707   5.855   3.087  11.226 -2.3318 -0.0139  0.5819
13764TIP3    H262708   5.898   3.031  11.360 -3.2127 -1.6029  0.2293
13765TIP3   OH262709   0.423   4.247   1.440  0.4305  0.3229 -0.3373
13765TIP3    H162710   0.372   4.169   1.465  0.7038  0.2863  0.1278
13765TIP3    H262711   0.394   4.314   1.502  0.5202  0.4651 -0.4517
13766TIP3   OH262712   2.041   0.322  11.581  0.3713 -0.2014  0.2083
13766TIP3    H162713   2.084   0.238  11.565 -0.7073 -0.5820 -0.8392
13766TIP3    H262714   2.086   0.357  11.658  1.0003 -1.6223  0.5282
13767TIP3   OH262715   6.106   3.958   5.331  0.3522 -0.1390  0.0178
13767TIP3    H162716   6.169   3.886   5.338  0.3692 -0.2234 -0.9242
13767TIP3    H262717   6.057   3.939   5.251 -0.6416  0.1128  0.5509
13768TIP3   OH262718   0.552   0.116   6.215  0.4360  0.2232  0.0970
13768TIP3    H162719   0.480   0.169   6.180  1.7612  1.4049 -0.9672
13768TIP3    H262720   0.517   0.027   6.219 -0.6448  0.5281 -1.7292
13769TIP3   OH262721   4.016   3.364  11.533  0.1443 -0.1641  0.2854
13769TIP3    H162722   4.028   3.391  11.442 -2.4830 -1.0180 -0.3808
13769TIP3    H262723   3.985   3.442  11.577 -1.4250 -0.4366 -0.2619
13770TIP3   OH262724   5.493   6.047   2.045 -0.3000 -0.5970 -0.1097
13770TIP3    H162725   5.546   6.117   2.084  1.0876 -1.3754 -0.5154
13770TIP3    H262726   5.469   6.081   1.959  0.6493 -0.7306 -0.4378
13771TIP3   OH262727   3.834   6.686  14.814 -0.3868 -0.2059  0.7012
13771TIP3    H162728   3.901   6.679  14.746  1.3773  0.9606  2.2133
13771TIP3    H262729   3.847   6.610  14.870  0.4383  0.5783  1.6078
13772TIP3   OH262730   6.116   0.083   0.288 -0.3439  0.0052  0.2683
13772TIP3    H162731   6.204   0.109   0.260 -0.7988 -1.3766 -2.8398
13772TIP3    H262732   6.097   0.139   0.364  3.5409 -0.3324  1.6819
13773TIP3   OH262733   0.625   5.023  15.984 -0.1098  0.1159  0.2602
13773TIP3    H162734   0.578   4.958  16.037 -0.6393  1.7662  1.9236
13773TIP3    H262735   0.568   5.038  15.909 -0.8609 -0.0211  0.7902
13774TIP3   OH262736   0.097   6.369   3.704  0.3464  0.0092 -0.3165
13774TIP3    H162737   0.059   6.452   3.732  0.5650 -0.2383  0.7528
13774TIP3    H262738   0.125   6.384   3.613  1.2836  1.4153  0.1736
13775TIP3   OH262739   3.682   4.009   2.368 -0.2667  0.6861  0.0606
13775TIP3    H162740   3.711   4.007   2.277 -2.9283 -1.1892 -0.8605
13775TIP3    H262741   3.718   3.930   2.407 -0.1083  0.8810  0.3165
13776TIP3   OH262742   1.560   5.672  14.914 -0.2396  0.7486 -0.4200
13776TIP3    H162743   1.638   5.705  14.870 -0.9340  1.2869 -1.2863
13776TIP3    H262744   1.584   5.583  14.942  0.3608  0.5419 -1.5357
13777TIP3   OH262745   2.261   2.271  16.220 -0.2012 -0.1502 -0.5555
13777TIP3    H162746   2.293   2.182  16.206 -4.1721 -1.9505  0.5523
13777TIP3    H262747   2.193   2.283  16.154 -1.7083  0.9140  1.1142
13778TIP3   OH262748   0.999   0.528  16.633  0.5294 -0.3507 -1.0139
13778TIP3    H162749   0.933   0.583  16.676  0.3468 -0.8552 -0.6404
13778TIP3    H262750   1.078   0.581  16.634  0.0158  0.4727 -1.9235
13779TIP3   OH262751   6.280   3.480  13.404  0.6042  0.3599  0.5284
13779TIP3    H162752   6.288   3.567  13.367  1.8349  0.2983  0.5851
13779TIP3    H262753   6.267   3.495  13.498  0.6515  0.4801  0.5163
13780TIP3   OH262754   4.444   5.603  14.160 -0.1438  0.0232 -0.2784
13780TIP3    H162755   4.364   5.651  14.139 -1.9291 -0.5149  4.0870
13780TIP3    H262756   4.515   5.663  14.138 -1.8723  1.6859 -1.6256
13781TIP3   OH262757   2.393   5.968  13.731 -0.0400  0.0106  0.1264
13781TIP3    H162758   2.377   6.062  13.744 -0.7441 -0.0406 -0.2639
13781TIP3    H262759   2.340   5.946  13.654 -0.1986 -0.7923  0.4592
13782TIP3   OH262760   4.651   0.813  14.133  0.1909 -0.0675 -0.1409
13782TIP3    H162761   4.704   0.738  14.105  0.8968 -0.4169  2.0094
13782TIP3    H262762   4.566   0.799  14.090  0.8497 -1.1489 -1.1635
13783TIP3   OH262763   2.596   6.078  13.496  0.2583  0.3013 -0.3416
13783TIP3    H162764   2.505   6.087  13.469  0.1471 -0.4693 -0.2505
13783TIP3    H262765   2.647   6.102  13.418  0.0356  2.5037  0.1324
13784TIP3   OH262766   5.253   1.102  16.727 -0.3485  0.4268  0.1863
13784TIP3    H162767   5.196   1.161  16.679 -1.6378 -1.8510 -1.2775
13784TIP3    H262768   5.341   1.139  16.716 -1.0126  1.6793 -1.2513
13785TIP3   OH262769   4.842   4.325   0.543  0.4476  0.2504 -0.2117
13785TIP3    H162770   4.801   4.395   0.595  0.9055  0.2148  0.2109
13785TIP3    H262771   4.904   4.370   0.486  0.2292  0.2552 -0.4417
13786TIP3   OH262772   2.738   2.074  12.675 -0.1296  0.0159  0.0436
13786TIP3    H162773   2.765   2.119  12.754 -0.4760 -0.7917  0.6325
13786TIP3    H262774   2.688   2.140  12.626 -0.9468  0.1764  1.0546
13787TIP3   OH262775   2.156   3.898  13.979 -0.2675  0.1226 -0.2687
13787TIP3    H162776   2.087   3.882  14.043 -0.1962 -0.8899 -0.4220
13787TIP3    H262777   2.159   3.993  13.969 -0.7682  0.2482  0.6871
13788TIP3   OH262778   0.421   5.103   2.807  0.2779 -0.4057 -0.3721
13788TIP3    H162779   0.439   5.025   2.755 -0.3483 -2.8697  2.7413
13788TIP3    H262780   0.507   5.137   2.831  0.5612  0.5081 -2.4794
13789TIP3   OH262781   1.338   1.939  17.008 -0.0522 -0.1949  0.2024
13789TIP3    H162782   1.296   1.857  17.032  1.1015 -0.7015  0.5557
13789TIP3    H262783   1.266   2.002  17.000 -0.8252 -0.9116  1.2774
13790TIP3   OH262784   1.635   6.264  14.694 -0.5811  0.2777  0.9624
13790TIP3    H162785   1.705   6.292  14.754  0.4969  1.2132 -0.6565
13790TIP3    H262786   1.610   6.345  14.649 -0.5311 -0.5925 -0.6747
13791TIP3   OH262787   6.028   0.440   1.332  0.3986 -0.6345  1.0289
13791TIP3    H162788   5.969   0.505   1.294  0.4693 -2.1026 -1.9103
13791TIP3    H262789   6.098   0.430   1.267  1.1815 -2.5426  2.0699
13792TIP3   OH262790   4.603   4.864   4.254  0.3342  0.1068 -0.5188
13792TIP3    H162791   4.674   4.801   4.242 -0.1347 -0.8413  1.3233
13792TIP3    H262792   4.534   4.833   4.194  1.6752  1.5005 -2.9190
13793TIP3   OH262793   0.220   1.167  15.633 -0.7052 -0.0154  0.4103
13793TIP3    H162794   0.236   1.259  15.655  1.6176 -0.9501  3.3279
13793TIP3    H262795   0.295   1.142  15.578 -1.4478 -0.1406 -0.5681
13794TIP3   OH262796   5.929   1.281   3.370  0.0837  0.0851  0.6865
13794TIP3    H162797   5.897   1.212   3.312  0.6347 -0.9499  1.5632
13794TIP3    H262798   5.947   1.355   3.312 -1.5552 -0.1174 -0.1282
13795TIP3   OH262799   1.689   0.576  15.681  0.3589  0.5199  0.0518
13795TIP3    H162800   1.733   0.491  15.686  1.2574  0.8778 -1.1606
13795TIP3    H262801   1.746   0.629  15.625 -0.4101  1.7854  0.4204
13796TIP3   OH262802   1.045   0.859  11.580  0.7122 -0.5097  0.1309
13796TIP3    H162803   0.987   0.833  11.508 -0.6352  2.4335 -0.0063
13796TIP3    H262804   1.124   0.807  11.567 -0.3474 -1.7317 -2.1021
13797TIP3   OH262805   5.417   3.133  11.814  0.3061 -0.5898 -0.1948
13797TIP3    H162806   5.454   3.064  11.760  0.0963 -0.5497 -0.3923
13797TIP3    H262807   5.400   3.090  11.899  0.6784 -0.6388 -0.1450
13798TIP3   OH262808   6.580   6.548   5.334 -0.0942 -0.1238 -0.2694
13798TIP3    H162809   6.620   6.577   5.252 -1.6147  2.0811 -0.3493
13798TIP3    H262810   6.534   6.467   5.311  0.1649  0.0299 -1.3957
13799TIP3   OH262811   1.327   3.682   1.785  0.0291  0.1286  0.6055
13799TIP3    H162812   1.235   3.690   1.812 -0.1337  0.1850  0.0581
13799TIP3    H262813   1.371   3.644   1.860 -0.6068 -0.6796  0.5834
13800TIP3   OH262814   1.354   0.054   5.116  0.5982 -0.4729  0.3692
13800TIP3    H162815   1.284   0.094   5.167 -0.3818 -2.2210  0.4933
13800TIP3    H262816   1.308   0.008   5.045  1.5353 -2.2693  0.8732
13801TIP3   OH262817   6.776   5.133   0.577 -0.1233 -0.5137  0.0123
13801TIP3    H162818   6.842   5.068   0.600 -0.1198  0.1863  2.2162
13801TIP3    H262819   6.695   5.100   0.616  0.1794  1.4436  2.6324
13802TIP3   OH262820   5.011   4.518   3.265 -0.4153  0.1554 -0.2710
13802TIP3    H162821   5.105   4.536   3.274 -0.6189  0.9664  0.2415
13802TIP3    H262822   5.005   4.423   3.272  0.6189 -0.1473 -2.5664
13803TIP3   OH262823   3.806   2.468  12.590  0.2242 -0.2024 -0.3643
13803TIP3    H162824   3.884   2.428  12.551  0.5904  0.0335  0.1270
13803TIP3    H262825   3.772   2.400  12.648  0.5319 -0.0057  0.0482
13804TIP3   OH262826   4.149   2.221   5.681 -0.2127  0.4927 -0.0842
13804TIP3    H162827   4.200   2.180   5.611  0.8614 -0.8953  1.4248
13804TIP3    H262828   4.215   2.247   5.746 -0.9588  3.6506 -0.4274
13805TIP3   OH262829   1.435   5.973   5.196  0.0170  0.4618 -0.5417
13805TIP3    H162830   1.354   6.023   5.182 -1.2635 -1.8171 -1.8661
13805TIP3    H262831   1.405   5.888   5.229  1.7868 -0.7590 -1.8996
13806TIP3   OH262832   5.199   2.058   0.887  0.0886  0.2893  0.2752
13806TIP3    H162833   5.263   2.044   0.817  0.9034 -0.4737  1.1467
13806TIP3    H262834   5.228   2.137   0.931  0.1854  0.1877  0.3959
13807TIP3   OH262835   6.577   0.355  12.726 -0.5722  0.4087 -0.5057
13807TIP3    H162836   6.514   0.320  12.662 -0.1114 -2.9718  0.7225
13807TIP3    H262837   6.656   0.303  12.712 -0.0157  0.5287  1.8538
13808TIP3   OH262838   5.485   1.232   1.335  0.2721 -0.6542 -0.6517
13808TIP3    H162839   5.579   1.251   1.332 -0.0516  1.1985 -0.2054
13808TIP3    H262840   5.454   1.248   1.246  0.0855  0.6040 -0.3847
13809TIP3   OH262841   5.025   2.464   4.520 -1.1060  0.2679 -0.5808
13809TIP3    H162842   5.116   2.448   4.547 -0.9042 -0.6356 -1.7071
13809TIP3    H262843   4.983   2.500   4.598 -0.4008 -1.6443  0.7690
13810TIP3   OH262844   4.744   1.761  15.693 -0.1617  0.0309 -0.0830
13810TIP3    H162845   4.786   1.847  15.690  0.9954 -0.4924  0.2903
13810TIP3    H262846   4.794   1.713  15.759  0.1886 -1.4134 -1.3518
13811TIP3   OH262847   3.142   5.263  11.483  0.1055  0.1232  0.0991
13811TIP3    H162848   3.181   5.218  11.558 -0.3735 -1.9791 -0.8483
13811TIP3    H262849   3.049   5.243  11.488  0.0877 -0.1704 -1.1207
13812TIP3   OH262850   6.686   0.787   5.752 -0.0984 -0.3666 -0.1174
13812TIP3    H162851   6.641   0.739   5.683  1.2389 -1.3078 -0.3807
13812TIP3    H262852   6.773   0.806   5.715  0.1100  0.4680  0.7468
13813TIP3   OH262853   3.000   5.002   4.669 -0.0314  0.0098  0.0934
13813TIP3    H162854   2.966   5.089   4.647  0.1165 -0.1767 -0.9254
13813TIP3    H262855   2.988   4.951   4.589  2.0351 -0.2565 -0.0945
13814TIP3   OH262856   5.845   4.124  15.877 -0.0010  0.9746 -0.1201
13814TIP3    H162857   5.814   4.209  15.844 -1.9437  0.0927 -0.7215
13814TIP3    H262858   5.925   4.107  15.826  0.2652  2.3062 -0.1826
13815TIP3   OH262859   2.284   4.723   4.426 -0.0133  0.4475 -0.1307
13815TIP3    H162860   2.206   4.777   4.417  0.4295  1.3377  1.0785
13815TIP3    H262861   2.352   4.773   4.380  0.0364  0.0959 -0.4415
13816TIP3   OH262862   2.556   2.592   1.484  0.2620 -0.0000 -0.1027
13816TIP3    H162863   2.560   2.646   1.405  0.2692 -2.3388 -1.8122
13816TIP3    H262864   2.490   2.526   1.464  0.7233 -1.0319  1.5976
13817TIP3   OH262865   5.450   2.300  16.237  0.0053  0.4080 -0.1210
13817TIP3    H162866   5.486   2.386  16.260 -0.1686  0.3398  0.4141
13817TIP3    H262867   5.400   2.274  16.314 -0.3110  0.0252 -0.4563
13818TIP3   OH262868   3.919   4.795  12.707  0.1764 -0.2858 -0.5608
13818TIP3    H162869   3.943   4.808  12.799 -0.0807  2.0025 -0.7628
13818TIP3    H262870   3.962   4.712  12.683  0.7715 -0.6160  1.4227
13819TIP3   OH262871   3.463   1.074   4.025  0.1022  0.3842 -0.2545
13819TIP3    H162872   3.506   1.056   4.109 -1.8701  0.6472  0.8615
13819TIP3    H262873   3.524   1.133   3.979 -0.0036  2.6110  2.2085
13820TIP3   OH262874   6.738   6.112  15.194  0.2120 -0.5318  0.5234
13820TIP3    H162875   6.672   6.121  15.262 -1.6340  1.4260 -1.3603
13820TIP3    H262876   6.688   6.104  15.113  2.2939 -0.3986 -0.8585
13821TIP3   OH262877   5.022   3.774   5.135 -0.4417 -0.3560 -0.0967
13821TIP3    H162878   5.102   3.729   5.162 -0.3373 -0.2018 -0.1491
13821TIP3    H262879   5.006   3.744   5.046 -0.0397  0.1697 -0.3494
13822TIP3   OH262880   5.175   2.871  16.984 -0.4608  0.0998  0.5842
13822TIP3    H162881   5.139   2.916  16.908  0.6981 -0.2669 -0.2086
13822TIP3    H262882   5.181   2.939  17.051  0.2002  0.8679 -0.2345
13823TIP3   OH262883   2.733   1.579  12.105 -0.2640 -0.0718 -0.0862
13823TIP3    H162884   2.813   1.629  12.119 -0.3993 -0.3758  2.2625
13823TIP3    H262885   2.668   1.644  12.079 -0.0852  0.7753  1.4781
13824TIP3   OH262886   5.274   0.239   4.065 -0.0231  0.3028  0.6259
13824TIP3    H162887   5.234   0.303   4.123 -1.9663  0.6763 -0.9898
13824TIP3    H262888   5.276   0.158   4.116 -0.4877  0.9027  1.6250
13825TIP3   OH262889   3.693   6.423  11.486  0.2070  0.1048  0.9542
13825TIP3    H162890   3.615   6.424  11.430  0.2082  1.2948  0.9416
13825TIP3    H262891   3.753   6.363  11.443 -0.0343  0.5253 -0.0006
13826TIP3   OH262892   3.216   5.033  16.949  0.1522  0.2535 -0.2579
13826TIP3    H162893   3.171   4.960  16.992  0.8880 -0.2203 -0.2792
13826TIP3    H262894   3.309   5.017  16.967  0.2901  1.4227  0.1057
13827TIP3   OH262895   0.007   0.485   5.849  0.4004 -0.2559 -0.3674
13827TIP3    H162896   0.075   0.420   5.831  0.5518 -0.3968  0.6496
13827TIP3    H262897  -0.046   0.486   5.770  1.3407 -0.4450 -1.0252
13828TIP3   OH262898   6.104   5.352   3.653  0.0270 -0.1970  0.1186
13828TIP3    H162899   6.050   5.412   3.602  0.7268 -1.1747 -1.8824
13828TIP3    H262900   6.192   5.390   3.649  0.4389 -1.1770 -1.0061
13829TIP3   OH262901   6.463   0.899  15.198  0.0016  0.5987  0.5086
13829TIP3    H162902   6.473   0.804  15.192  0.0165  0.6633 -0.5743
13829TIP3    H262903   6.500   0.932  15.117  1.3043  1.6415  1.4804
13830TIP3   OH262904   2.660   2.902  11.437  0.0404 -0.1591  0.5030
13830TIP3    H162905   2.603   2.979  11.433 -0.1393 -0.3439 -1.3574
13830TIP3    H262906   2.606   2.834  11.477  0.0506  0.5362  1.7360
13831TIP3   OH262907   1.787   6.572   5.148  0.8410  0.1445  0.0384
13831TIP3    H162908   1.868   6.621   5.133  0.1182  0.9687 -1.3120
13831TIP3    H262909   1.736   6.627   5.207  1.3275 -0.4989  1.1131
13832TIP3   OH262910   3.947   1.066   2.251 -0.2369  0.0653  0.1877
13832TIP3    H162911   4.013   1.094   2.188 -1.0109 -0.5596 -0.9407
13832TIP3    H262912   3.871   1.043   2.198 -1.2787  0.4941  1.4249
13833TIP3   OH262913   6.020   1.674   4.475  0.4047 -0.0433  0.0774
13833TIP3    H162914   6.040   1.650   4.566  0.2675 -0.2995  0.0423
13833TIP3    H262915   5.936   1.720   4.481  0.1970 -0.4157  0.0340
13834TIP3   OH262916   1.714   5.753   3.324  0.0063  0.1400  0.1096
13834TIP3    H162917   1.663   5.828   3.356  1.6661  1.0698  0.6744
13834TIP3    H262918   1.794   5.791   3.288 -0.5589 -1.1124 -2.7678
13835TIP3   OH262919   1.541   5.104  14.468 -0.4389 -0.1279 -0.2189
13835TIP3    H162920   1.636   5.098  14.469 -0.4513 -0.3630  0.2072
13835TIP3    H262921   1.522   5.194  14.494 -0.3277  0.0106 -0.6207
13836TIP3   OH262922   0.354   3.509  10.531  0.3778  0.1980 -0.0576
13836TIP3    H162923   0.274   3.549  10.565  1.3792  0.4356  2.2114
13836TIP3    H262924   0.323   3.439  10.473 -1.4254  1.3435 -0.5636
13837TIP3   OH262925   4.453   4.790  11.840 -0.5762  0.0192 -0.0564
13837TIP3    H162926   4.531   4.813  11.890  0.5382 -2.1669 -0.6650
13837TIP3    H262927   4.381   4.800  11.903 -0.0554  3.1887  0.1983
13838TIP3   OH262928   6.771   6.453   3.040  0.1521  0.3086 -0.0735
13838TIP3    H162929   6.707   6.466   3.110 -0.0734 -0.8327 -0.0353
13838TIP3    H262930   6.740   6.507   2.968 -1.4363 -0.9645 -0.4076
13839TIP3   OH262931   5.893   6.348   2.015  0.1609 -0.7819 -0.3615
13839TIP3    H162932   5.872   6.430   2.059 -0.9609 -1.0934 -0.2738
13839TIP3    H262933   5.850   6.355   1.930 -1.9531 -2.1711  0.5028
13840TIP3   OH262934   6.465   1.666   4.820 -0.4418 -0.0489  0.4831
13840TIP3    H162935   6.526   1.733   4.791 -0.1725 -1.5243 -2.8115
13840TIP3    H262936   6.421   1.704   4.895  1.0106  3.0280 -0.0867
13841TIP3   OH262937   6.286   3.382  11.773  0.1937 -0.0694  0.8201
13841TIP3    H162938   6.319   3.307  11.723  0.9230 -0.4352  1.8147
13841TIP3    H262939   6.191   3.374  11.768  0.0884  1.4009 -2.7083
13842TIP3   OH262940   5.308   4.856   3.191  0.0907 -0.0176  0.2010
13842TIP3    H162941   5.362   4.912   3.135  0.6529 -0.3740  0.3739
13842TIP3    H262942   5.233   4.910   3.214  1.6604  1.4900  2.1574
13843TIP3   OH262943   1.430   5.329   2.894  0.0375 -0.2105  0.6575
13843TIP3    H162944   1.525   5.334   2.895  0.0993 -1.3577  1.6135
13843TIP3    H262945   1.401   5.414   2.927  0.7404 -0.1561  1.1470
13844TIP3   OH262946   4.290   1.417  13.599  0.7369 -0.4711  0.2879
13844TIP3    H162947   4.244   1.354  13.655 -0.3933 -0.3222 -0.4523
13844TIP3    H262948   4.374   1.375  13.580  1.1506 -0.5375  2.0541
13845TIP3   OH262949   1.170   3.762  15.170 -0.3068  0.2280  0.1494
13845TIP3    H162950   1.145   3.749  15.079  0.2512 -1.9057  0.2489
13845TIP3    H262951   1.253   3.715  15.179 -1.3078 -1.3242  2.1974
13846TIP3   OH262952   2.225   0.413   5.551 -0.1009  0.9760  0.4206
13846TIP3    H162953   2.315   0.437   5.529 -0.0318  0.6535  0.3491
13846TIP3    H262954   2.176   0.495   5.544  0.2945  1.2709  1.0272
13847TIP3   OH262955   3.549   5.448   4.507  0.1119  0.8670 -0.6602
13847TIP3    H162956   3.542   5.511   4.434  0.2168 -0.0384 -1.4659
13847TIP3    H262957   3.503   5.370   4.475 -0.5547  0.7307  0.5690
13848TIP3   OH262958   5.764   5.550  14.793 -0.1549  0.0010 -0.1834
13848TIP3    H162959   5.841   5.493  14.782 -0.8739 -0.7260 -1.7640
13848TIP3    H262960   5.757   5.562  14.887  2.3933  0.8042  0.0037
13849TIP3   OH262961   5.767   4.919  13.079 -0.5716 -0.2948 -0.2254
13849TIP3    H162962   5.808   4.924  12.993  2.0361 -0.6859  0.9030
13849TIP3    H262963   5.794   4.999  13.124 -1.8413 -0.1219  0.2774
13850TIP3   OH262964   4.388   6.333   5.338 -0.0521  0.2313  0.3620
13850TIP3    H162965   4.300   6.319   5.372 -0.0534 -0.0424  0.2519
13850TIP3    H262966   4.386   6.422   5.302  0.4753  1.2503  2.6682
13851TIP3   OH262967   4.544   4.258   0.658 -0.0389 -0.2501 -0.3945
13851TIP3    H162968   4.601   4.277   0.732  1.0386 -0.4890 -1.1537
13851TIP3    H262969   4.509   4.343   0.632 -0.4868 -0.1728  0.4249
13852TIP3   OH262970   1.378   4.501   4.545 -0.2962  0.5403  0.1690
13852TIP3    H162971   1.384   4.516   4.640  2.9853 -0.5374  0.2520
13852TIP3    H262972   1.457   4.451   4.524 -1.8652 -0.9279 -2.8676
13853TIP3   OH262973   2.060   4.771  13.803 -0.2054  0.0028  0.0201
13853TIP3    H162974   2.139   4.826  13.799 -0.4002  0.2433 -2.8110
13853TIP3    H262975   2.091   4.683  13.781 -0.4914 -0.2152  0.4855
13854TIP3   OH262976   1.662   1.119   0.381  0.7289 -0.2350  0.4532
13854TIP3    H162977   1.678   1.103   0.474 -0.4738 -1.4528  0.4844
13854TIP3    H262978   1.570   1.141   0.375  0.4379 -1.5654 -0.5819
13855TIP3   OH262979   3.612   0.923  14.367  0.2424 -0.4135  0.8981
13855TIP3    H162980   3.567   0.898  14.286  2.4408  1.1426 -0.9230
13855TIP3    H262981   3.563   0.998  14.399 -0.3903 -0.7720  0.7976
13856TIP3   OH262982   0.047   5.080   0.101  1.2027  0.0995 -0.2258
13856TIP3    H162983   0.074   5.035   0.181  0.3775 -1.5649 -0.8286
13856TIP3    H262984   0.059   5.014   0.032 -0.1076  0.7793 -1.1421
13857TIP3   OH262985   2.115   2.664  13.285  0.2936 -0.4559  0.4383
13857TIP3    H162986   2.099   2.744  13.235  2.0966 -0.5239 -0.3307
13857TIP3    H262987   2.120   2.595  13.219 -0.7882 -1.1500  1.0543
13858TIP3   OH262988   4.513   1.957   4.123  0.0767 -0.4402  1.1388
13858TIP3    H162989   4.426   1.997   4.120  1.0023  1.7408 -2.0051
13858TIP3    H262990   4.497   1.864   4.107 -1.6257  0.3718 -3.2444
13859TIP3   OH262991   4.036   1.683  16.472  0.0295 -0.3361 -0.1671
13859TIP3    H162992   4.033   1.607  16.414 -0.7164  0.1224 -0.7469
13859TIP3    H262993   3.958   1.734  16.449 -0.9097 -0.6893  1.9860
13860TIP3   OH262994   3.622   2.739   5.010 -0.0355  0.0159  0.1035
13860TIP3    H162995   3.679   2.734   5.087  0.2148  0.9862 -0.0074
13860TIP3    H262996   3.672   2.696   4.941 -1.2170 -3.0481  0.9729
13861TIP3   OH262997   5.739   6.599   4.611 -0.7235  0.3975  0.5296
13861TIP3    H162998   5.794   6.551   4.550 -1.7289  1.2474 -1.1234
13861TIP3    H262999   5.683   6.653   4.555 -0.9083  2.0885  2.2409
13862TIP3   OH263000   1.214   0.248  10.860 -0.2453  0.2034 -0.1242
13862TIP3    H163001   1.203   0.157  10.889 -2.7232 -0.0218 -1.4453
13862TIP3    H263002   1.205   0.300  10.939  1.8373 -0.6722  0.7557
13863TIP3   OH263003   0.688   1.348  15.059 -0.1924 -0.4756  0.0020
13863TIP3    H163004   0.774   1.341  15.016  0.8539  0.0663  1.8908
13863TIP3    H263005   0.695   1.426  15.114 -1.3185 -1.3303  1.4329
13864TIP3   OH263006   1.208   4.069   5.470  0.3774 -0.2821 -0.3714
13864TIP3    H163007   1.209   4.091   5.563  0.4172 -0.4812 -0.3257
13864TIP3    H263008   1.292   4.101   5.437  0.6073 -0.7216 -0.2214
13865TIP3   OH263009   3.858   3.327   2.045  0.0084 -0.0750 -0.3647
13865TIP3    H163010   3.824   3.416   2.032  1.1006  0.6876  1.6493
13865TIP3    H263011   3.864   3.291   1.956 -0.9705  1.6536 -1.1840
13866TIP3   OH263012   0.045   2.888   2.749  0.0477  0.6313 -0.8202
13866TIP3    H163013  -0.005   2.808   2.736  0.4580  0.2094  0.1361
13866TIP3    H263014   0.134   2.866   2.719  0.2729  0.5692 -0.1334
13867TIP3   OH263015   1.572   4.314  15.333 -0.8281 -0.3118  0.2853
13867TIP3    H163016   1.516   4.353  15.266 -0.4173 -0.1044  0.0525
13867TIP3    H263017   1.638   4.264  15.283 -1.0970 -0.9624  0.5661
13868TIP3   OH263018   6.186   6.078  13.459  0.4985  0.7324 -0.4494
13868TIP3    H163019   6.130   6.111  13.529  0.8236  0.8494 -0.2399
13868TIP3    H263020   6.274   6.074  13.498  0.0030 -3.6288  0.6999
13869TIP3   OH263021   5.073   6.372   4.484  0.0188 -0.2186  0.3894
13869TIP3    H163022   5.144   6.420   4.526 -0.2280  0.4254  0.0781
13869TIP3    H263023   5.115   6.324   4.413  0.5497 -1.8040  1.7052
13870TIP3   OH263024   6.577   1.395  14.885  0.0638 -0.3550 -0.3847
13870TIP3    H163025   6.564   1.490  14.885 -1.7978 -0.5645  0.2353
13870TIP3    H263026   6.537   1.365  14.804 -3.4552 -0.9957  1.4290
13871TIP3   OH263027   2.142   6.602   1.276 -0.8158 -0.0711 -0.0493
13871TIP3    H163028   2.074   6.593   1.208 -0.8693  0.7435 -0.1161
13871TIP3    H263029   2.109   6.671   1.333  0.3158  0.9042 -0.5288
13872TIP3   OH263030   6.285   6.682   0.924  0.1084 -0.5235  0.2440
13872TIP3    H163031   6.243   6.652   1.004  0.1023 -0.4959  0.2512
13872TIP3    H263032   6.356   6.738   0.953  1.3223 -2.0289  0.2979
13873TIP3   OH263033   5.140   3.746  15.845 -0.0903  0.1614  0.6141
13873TIP3    H163034   5.131   3.757  15.940 -0.6066  2.5979  0.3382
13873TIP3    H263035   5.227   3.780  15.825 -0.2612  0.3201  0.1280
13874TIP3   OH263036   4.741   5.411   5.263 -0.2287  0.3327  0.6122
13874TIP3    H163037   4.652   5.387   5.289 -0.6909 -0.0463 -1.2231
13874TIP3    H263038   4.790   5.329   5.266 -1.6078 -1.0934 -4.8234
13875TIP3   OH263039   6.665   4.019  13.049 -0.5122  0.1822  0.2419
13875TIP3    H163040   6.679   4.096  12.993 -2.1227  0.7330  0.5139
13875TIP3    H263041   6.666   4.054  13.138  0.9031 -0.4970  0.5088
13876TIP3   OH263042   6.677   2.147  12.280 -0.2017 -0.3685 -0.3101
13876TIP3    H163043   6.764   2.125  12.315  0.1716  2.4647  0.7772
13876TIP3    H263044   6.695   2.211  12.211 -1.3989 -0.5103 -0.7719
13877TIP3   OH263045   4.411   4.028   3.887  0.6986 -0.2253  0.2481
13877TIP3    H163046   4.437   3.963   3.822 -0.6366 -0.4247 -0.1096
13877TIP3    H263047   4.330   3.993   3.925 -0.6672  1.6948 -0.7219
13878TIP3   OH263048   5.596   2.388  15.210 -0.2538  0.2146  0.6022
13878TIP3    H163049   5.559   2.471  15.239 -1.3258  0.2009 -0.6402
13878TIP3    H263050   5.670   2.412  15.156 -1.5091  0.4774 -1.0859
13879TIP3   OH263051   4.993   3.718   1.667 -0.1812  0.1260 -0.7909
13879TIP3    H163052   5.030   3.651   1.725 -0.0098  0.0386 -1.0004
13879TIP3    H263053   4.925   3.759   1.720  2.1474  2.3206  0.7368
13880TIP3   OH263054   4.259   4.539  12.214 -0.3491  0.7800 -0.5494
13880TIP3    H163055   4.285   4.464  12.159 -0.2883  0.5866 -0.2561
13880TIP3    H263056   4.173   4.514  12.249 -0.1454  0.6689 -0.1222
13881TIP3   OH263057   1.432   3.342   0.927  0.2356 -0.2647 -0.0795
13881TIP3    H163058   1.413   3.406   0.995  1.6687 -0.9144  0.9970
13881TIP3    H263059   1.522   3.363   0.899 -0.7335  0.7875 -2.7293
13882TIP3   OH263060   0.356   4.946   5.480 -0.2499  0.2106  0.2847
13882TIP3    H163061   0.291   4.891   5.525 -1.2520  1.6075  0.6131
13882TIP3    H263062   0.380   4.895   5.402 -1.6616 -0.4115  0.2166
13883TIP3   OH263063   4.294   5.214   3.699  0.2694  0.5601 -0.4649
13883TIP3    H163064   4.341   5.250   3.624  0.7436  1.8097  0.3894
13883TIP3    H263065   4.207   5.195   3.666  0.5235  0.9261 -1.3746
13884TIP3   OH263066   4.746   4.061  10.647  0.9978  0.2934 -0.3955
13884TIP3    H163067   4.710   4.106  10.724  0.3254  2.0476 -1.6606
13884TIP3    H263068   4.826   4.109  10.627  1.4078 -0.4407 -0.5318
13885TIP3   OH263069   0.171   5.916   2.491 -0.3363 -0.2043  0.2233
13885TIP3    H163070   0.182   5.979   2.563 -1.9600  1.3318 -0.7857
13885TIP3    H263071   0.086   5.876   2.508 -0.9312  0.4795 -1.0122
13886TIP3   OH263072   3.222   4.205  14.480  0.3475  0.3612 -0.3177
13886TIP3    H163073   3.227   4.196  14.575  0.8368 -0.5440 -0.4141
13886TIP3    H263074   3.312   4.190  14.449  0.1455  0.3906 -0.9394
13887TIP3   OH263075   0.809   3.548  10.500 -0.2145 -0.6268  0.7506
13887TIP3    H163076   0.757   3.476  10.535 -0.1860  0.0507  2.2613
13887TIP3    H263077   0.745   3.612  10.471 -0.2237 -0.8839  0.1683
13888TIP3   OH263078   2.978   5.395   2.186  0.0537 -0.1486  0.4441
13888TIP3    H163079   2.917   5.417   2.256 -2.7723 -1.8221 -1.2784
13888TIP3    H263080   3.011   5.308   2.210  1.1241  0.3709  0.9200
13889TIP3   OH263081   4.628   2.737   4.679  0.0981  1.0803  0.1855
13889TIP3    H163082   4.563   2.727   4.610  0.3984 -0.5489  0.1036
13889TIP3    H263083   4.652   2.647   4.703  2.2682  1.6140  0.2621
13890TIP3   OH263084   5.839   4.525  15.536 -0.3381 -0.0780  0.0903
13890TIP3    H163085   5.917   4.484  15.498 -0.4752 -0.0492 -0.2252
13890TIP3    H263086   5.772   4.517  15.469 -0.8022 -0.6929  0.6216
13891TIP3   OH263087   6.492   5.465  15.839  0.1945 -0.4031 -0.0887
13891TIP3    H163088   6.579   5.427  15.853  0.6465 -0.5809 -2.8075
13891TIP3    H263089   6.432   5.390  15.847  0.2053 -0.2422  2.0076
13892TIP3   OH263090   1.678   0.129   4.713  0.1037  0.1124 -0.1971
13892TIP3    H163091   1.682   0.088   4.800  0.2363 -1.9619 -1.1117
13892TIP3    H263092   1.752   0.190   4.712  0.4646 -0.2743  0.9309
13893TIP3   OH263093   0.852   5.423  12.338 -0.7631  0.4942 -0.7867
13893TIP3    H163094   0.841   5.360  12.267 -1.2851  1.0418 -1.2016
13893TIP3    H263095   0.931   5.472  12.315  0.3224 -0.7591  0.1322
13894TIP3   OH263096   3.505   4.909   1.152  0.1183 -0.2113 -0.5733
13894TIP3    H163097   3.477   4.839   1.211 -0.1857  0.1874 -0.2326
13894TIP3    H263098   3.440   4.910   1.082  0.5321 -0.7469 -0.9661
13895TIP3   OH263099   5.904   2.827  12.313 -0.1826  0.3300 -0.4357
13895TIP3    H163100   5.850   2.844  12.235 -0.5645 -0.3562 -0.3278
13895TIP3    H263101   5.889   2.902  12.369  0.2498  0.9301 -1.1060
13896TIP3   OH263102   1.569   2.194   2.238  0.2898 -0.3831  0.0965
13896TIP3    H163103   1.541   2.132   2.170 -2.8454  2.0412 -1.0816
13896TIP3    H263104   1.653   2.227   2.207  0.4616 -1.6508 -0.9142
13897TIP3   OH263105   2.755   0.616   5.102 -0.0038  0.8895 -0.0275
13897TIP3    H163106   2.747   0.615   5.007 -0.0628 -0.8406 -0.0403
13897TIP3    H263107   2.719   0.701   5.129  3.6048  3.2199 -1.7752
13898TIP3   OH263108   3.861   2.769   3.680 -0.5033 -0.7957 -0.1991
13898TIP3    H163109   3.786   2.787   3.624 -0.2099 -0.9379 -0.6449
13898TIP3    H263110   3.857   2.674   3.695 -0.0267 -0.9159 -0.7923
13899TIP3   OH263111   4.858   0.323   3.220  0.1205  0.0890  0.2145
13899TIP3    H163112   4.916   0.303   3.293  2.2447 -2.0320 -1.8706
13899TIP3    H263113   4.917   0.348   3.149 -1.6206 -0.5646 -1.5591
13900TIP3   OH263114   5.292   3.412   1.592  0.3417 -0.0676 -0.3043
13900TIP3    H163115   5.311   3.500   1.559 -0.4831 -0.0653 -0.8281
13900TIP3    H263116   5.375   3.366   1.590  0.3496 -0.0566 -2.4189
13901TIP3   OH263117   0.556   2.682   0.250 -0.6041  0.5827  0.2617
13901TIP3    H163118   0.621   2.617   0.278  0.1683  0.5922 -1.4292
13901TIP3    H263119   0.571   2.693   0.156 -2.9862  0.6759 -0.1625
13902TIP3   OH263120   2.237   0.722  14.938 -0.4179  0.1968 -0.1963
13902TIP3    H163121   2.252   0.794  14.998 -1.2348 -1.3985  2.0526
13902TIP3    H263122   2.304   0.733  14.870 -0.1202  2.6441  0.3960
13903TIP3   OH263123   3.288   5.901   1.593  0.1993 -0.4516 -0.3268
13903TIP3    H163124   3.375   5.860   1.600  0.2017 -0.8839 -2.2919
13903TIP3    H263125   3.299   5.968   1.525 -1.3772 -1.6877 -1.9112
13904TIP3   OH263126   4.527   0.146  15.380 -0.5797 -0.3534 -0.2944
13904TIP3    H163127   4.588   0.073  15.388 -0.5644 -0.1531  2.4578
13904TIP3    H263128   4.442   0.105  15.364 -0.3957 -0.9223  0.1630
13905TIP3   OH263129   4.058   4.626   2.732  0.0257 -0.0506 -0.1535
13905TIP3    H163130   4.049   4.537   2.765 -1.0362 -0.4727 -1.5020
13905TIP3    H263131   4.010   4.680   2.795  0.0080 -0.5317  0.2486
13906TIP3   OH263132   3.008   5.002   2.859  0.3325 -0.7868 -0.1977
13906TIP3    H163133   2.922   5.042   2.845 -0.2338 -1.0430  2.1104
13906TIP3    H263134   3.068   5.076   2.863  0.0856 -0.5401 -0.8656
13907TIP3   OH263135   0.130   0.888  12.023  0.6112  0.3310  0.4040
13907TIP3    H163136   0.157   0.798  12.003 -2.6952 -0.5045 -0.9887
13907TIP3    H263137   0.211   0.932  12.051  2.9704 -2.2150 -1.8465
13908TIP3   OH263138   5.135   0.655  13.245  0.1578  0.1349  0.0909
13908TIP3    H163139   5.121   0.710  13.322  3.1623  0.9714  0.1441
13908TIP3    H263140   5.095   0.705  13.173  1.3851  1.6395  0.4069
13909TIP3   OH263141   3.893   5.245   4.572 -0.4611 -0.9135 -0.3719
13909TIP3    H163142   3.913   5.217   4.483  0.9390 -0.2395 -0.2982
13909TIP3    H263143   3.963   5.209   4.625  0.1608  0.8069  0.0561
13910TIP3   OH263144   0.541   1.753  13.523 -0.0199 -0.2062  0.4063
13910TIP3    H163145   0.548   1.741  13.428 -1.0861 -0.2910  0.3331
13910TIP3    H263146   0.454   1.720  13.546  0.1471 -0.0072  1.3894
13911TIP3   OH263147   4.307   0.479  14.842 -0.4444  0.0360 -0.4185
13911TIP3    H163148   4.398   0.484  14.814 -0.4933  0.8535 -0.4588
13911TIP3    H263149   4.296   0.389  14.873  0.1365 -0.3112 -1.2072
13912TIP3   OH263150   4.502   2.981  15.297 -0.1870 -0.7390 -0.8755
13912TIP3    H163151   4.419   2.968  15.343 -0.0218 -1.3812 -0.7463
13912TIP3    H263152   4.496   3.070  15.263 -0.5981 -0.4920 -0.1966
13913TIP3   OH263153   4.137   2.919  11.085  0.2794 -0.5250 -0.2482
13913TIP3    H163154   4.058   2.969  11.068  0.7334  0.8946  1.4873
13913TIP3    H263155   4.193   2.934  11.009 -0.0972  0.5917 -0.3161
13914TIP3   OH263156   5.390   0.275   3.702 -0.0090 -0.4399  0.0236
13914TIP3    H163157   5.472   0.286   3.653  0.8198  1.7522  1.7268
13914TIP3    H263158   5.393   0.186   3.735  0.9317 -0.9022 -1.2220
13915TIP3   OH263159   4.807   4.793  14.076  0.3189 -0.0192 -0.3745
13915TIP3    H163160   4.817   4.863  14.141  0.5850 -0.2738 -0.1382
13915TIP3    H263161   4.895   4.781  14.040  0.5817 -1.2229  0.6191
13916TIP3   OH263162   2.507   6.538   4.929  0.1363 -0.8451 -0.1161
13916TIP3    H163163   2.443   6.607   4.947  0.1590 -1.1606  1.3312
13916TIP3    H263164   2.592   6.579   4.947  0.2326 -0.8640 -0.5370
13917TIP3   OH263165   0.637   0.427   1.618  0.1201  0.1702 -0.2670
13917TIP3    H163166   0.707   0.472   1.665  2.2809 -1.4238 -1.7808
13917TIP3    H263167   0.587   0.382   1.687  0.2177  1.7313  0.8763
13918TIP3   OH263168   4.756   0.095   3.312 -0.9752  0.4312  0.5287
13918TIP3    H163169   4.808   0.169   3.282  0.0275  0.4442  2.1752
13918TIP3    H263170   4.821   0.031   3.342 -1.8452  0.3932  2.5096
13919TIP3   OH263171   2.512   5.969  15.154 -0.1734 -0.3612 -0.3670
13919TIP3    H163172   2.528   5.897  15.216 -0.3469 -0.2529 -0.1909
13919TIP3    H263173   2.596   5.984  15.111  0.5557  1.0352  1.4153
13920TIP3   OH263174   3.309   6.357   4.140 -0.3076  0.2083 -0.5438
13920TIP3    H163175   3.249   6.345   4.213 -0.3170  0.4639 -0.5088
13920TIP3    H263176   3.253   6.380   4.066 -0.5288 -2.0407 -1.1597
13921TIP3   OH263177   0.671   3.376   1.534  0.1219  0.2055  0.4478
13921TIP3    H163178   0.673   3.391   1.439 -2.0925  2.9748  0.7174
13921TIP3    H263179   0.605   3.308   1.546  0.1853  0.0667  0.0200
13922TIP3   OH263180   0.598   4.773   4.997 -0.0167  0.0654  0.1881
13922TIP3    H163181   0.643   4.844   4.952  1.1633 -0.9663 -0.3156
13922TIP3    H263182   0.634   4.773   5.086 -0.4330  0.4447  0.3603
13923TIP3   OH263183   4.230   3.727  12.728  0.6092  0.3271  0.3139
13923TIP3    H163184   4.221   3.701  12.636  1.5006 -0.2978  0.3961
13923TIP3    H263185   4.272   3.652  12.770 -0.0550  0.4925  1.3027
13924TIP3   OH263186   0.630   0.585  13.525 -0.1483 -0.2117 -0.1670
13924TIP3    H163187   0.634   0.541  13.610  1.6755 -1.7001 -0.9534
13924TIP3    H263188   0.548   0.554  13.487 -0.0143 -1.1195  0.2452
13925TIP3   OH263189   3.512   6.380   1.691  0.9119 -0.1566  0.2914
13925TIP3    H163190   3.545   6.298   1.655 -0.3008  0.4868 -2.5121
13925TIP3    H263191   3.556   6.448   1.641 -1.1901  0.7888 -0.3767
13926TIP3   OH263192   1.229   2.356  11.930 -0.1569  0.1493  0.9000
13926TIP3    H163193   1.222   2.319  11.843  0.7945 -0.0409  0.8950
13926TIP3    H263194   1.142   2.345  11.969 -0.1894 -1.0640  0.4998
13927TIP3   OH263195   2.049   4.107   2.072 -0.1819 -0.2708  0.7367
13927TIP3    H163196   1.986   4.051   2.028 -2.0989  1.2003  1.4557
13927TIP3    H263197   2.096   4.049   2.132 -0.7165 -1.4342  0.0612
13928TIP3   OH263198   1.783   5.450  16.315 -0.0542  0.0567  0.4225
13928TIP3    H163199   1.805   5.422  16.404 -2.5929 -1.6289  0.6157
13928TIP3    H263200   1.698   5.493  16.325 -0.2512  0.0724 -1.1818
13929TIP3   OH263201   0.344   2.788  14.043 -0.3136  0.4126  0.0130
13929TIP3    H163202   0.318   2.822  13.958 -0.8263  1.1465  0.4557
13929TIP3    H263203   0.310   2.851  14.106 -0.4965 -0.4549  0.8012
13930TIP3   OH263204   4.597   5.247   2.802 -0.5265  0.0216  0.2482
13930TIP3    H163205   4.683   5.225   2.837 -0.4094  0.3438  0.1687
13930TIP3    H263206   4.581   5.181   2.734  0.1700  0.6364 -0.5429
13931TIP3   OH263207   3.053   2.733  15.932  0.2016  0.2845  0.2259
13931TIP3    H163208   3.128   2.761  15.879 -0.4060  1.8585  0.1642
13931TIP3    H263209   3.088   2.664  15.989  1.4532  0.3170 -0.4760
13932TIP3   OH263210   0.328   2.030   1.761  0.0904 -0.3364  0.1547
13932TIP3    H163211   0.401   2.084   1.790  1.7891 -3.6359  2.7452
13932TIP3    H263212   0.259   2.046   1.825  0.1865 -0.4391  0.2837
13933TIP3   OH263213   6.332   3.161  16.936  0.1446  0.1192 -0.1531
13933TIP3    H163214   6.322   3.235  16.876  1.0622  0.3462 -0.0534
13933TIP3    H263215   6.261   3.102  16.914  1.0396 -0.2855 -2.1831
13934TIP3   OH263216   0.551   0.707   0.433  0.0334  0.3401 -0.5423
13934TIP3    H163217   0.562   0.623   0.388  1.8689  1.2097 -1.8943
13934TIP3    H263218   0.607   0.700   0.511 -1.5448 -0.4307  0.5736
13935TIP3   OH263219   6.260   3.821  11.666  0.2141 -0.3212 -0.4188
13935TIP3    H163220   6.260   3.905  11.621  2.2805 -0.7708 -1.3461
13935TIP3    H263221   6.350   3.789  11.659 -0.0341 -1.6737  1.7112
13936TIP3   OH263222   2.180   4.190   3.806  0.1268 -0.4488 -0.4785
13936TIP3    H163223   2.093   4.229   3.819 -1.0828 -2.8646 -0.8344
13936TIP3    H263224   2.173   4.102   3.843  2.3269 -0.8385 -0.8550
13937TIP3   OH263225   1.801   0.142  10.410  0.7174  0.2879 -0.5312
13937TIP3    H163226   1.844   0.075  10.358  1.3517  0.7693 -0.6499
13937TIP3    H263227   1.707   0.125  10.400  0.8713 -0.6218 -0.4854
13938TIP3   OH263228   0.536   1.485   0.096  0.2694  0.3236 -0.1380
13938TIP3    H163229   0.477   1.464   0.024 -2.2210  0.1538  1.8189
13938TIP3    H263230   0.620   1.445   0.071 -1.3058 -2.3229 -1.5818
13939TIP3   OH263231   6.543   6.229   6.015  0.1899 -0.2996  0.0140
13939TIP3    H163232   6.498   6.162   6.067 -0.0648  0.8102  1.2868
13939TIP3    H263233   6.542   6.195   5.926 -0.5028 -1.6884  0.5244
13940TIP3   OH263234   2.792   0.392   5.486  0.2745 -0.1491  0.3570
13940TIP3    H163235   2.845   0.417   5.411  2.1496  0.6641  1.8802
13940TIP3    H263236   2.837   0.317   5.524 -0.8492 -0.7801  0.5076
13941TIP3   OH263237   1.752   6.664   0.187  0.1521 -0.0298  0.5378
13941TIP3    H163238   1.705   6.685   0.267  1.8030 -0.1771  1.5857
13941TIP3    H263239   1.691   6.687   0.117 -2.1177 -1.7998  1.8144
13942TIP3   OH263240   5.053   5.217   4.556 -0.0546 -0.0954  0.1835
13942TIP3    H163241   4.959   5.217   4.572  0.1131  1.1576  1.3397
13942TIP3    H263242   5.088   5.280   4.619  1.4932 -0.1057 -0.6254
13943TIP3   OH263243   0.313   4.280   0.590  0.2439  0.4865 -0.3916
13943TIP3    H163244   0.365   4.206   0.623  1.5569  0.5530 -2.1954
13943TIP3    H263245   0.236   4.239   0.552  0.0187  0.2157  0.3275
13944TIP3   OH263246   5.987   2.930   4.433  0.3699 -0.5224 -0.2577
13944TIP3    H163247   6.015   2.875   4.507 -0.1204 -0.6846 -0.1893
13944TIP3    H263248   5.992   2.872   4.357  1.3736 -0.2115 -0.4457
13945TIP3   OH263249   3.945   3.016  12.735  0.3266  0.0096 -0.0478
13945TIP3    H163250   3.950   2.927  12.699 -0.3994 -0.3059  0.6116
13945TIP3    H263251   3.859   3.020  12.776 -0.0321  1.3336 -0.8790
13946TIP3   OH263252   6.412   5.842   2.641  0.0870 -0.3976 -0.0555
13946TIP3    H163253   6.388   5.894   2.718 -1.9529 -1.3336 -0.0018
13946TIP3    H263254   6.329   5.814   2.605  1.0351 -4.7357  0.6464
13947TIP3   OH263255   1.564   2.860   3.999  0.1608 -0.1379  0.4561
13947TIP3    H163256   1.486   2.846   3.945 -1.7132 -2.3289  3.4211
13947TIP3    H263257   1.562   2.953   4.020 -1.2223  0.0105 -0.1847
13948TIP3   OH263258   6.124   4.779  16.966  0.2415  0.2493  0.5800
13948TIP3    H163259   6.094   4.832  17.041 -0.9509 -0.2523  0.4841
13948TIP3    H263260   6.172   4.706  17.006 -1.6744 -0.8554  0.9996
13949TIP3   OH263261   4.271   3.984   2.562  0.3629  0.2990 -0.2169
13949TIP3    H163262   4.312   4.042   2.498 -0.2545  1.3447  0.2923
13949TIP3    H263263   4.321   3.998   2.643  0.0127  0.3796 -0.0098
13950TIP3   OH263264   3.115   4.538   2.838  0.6982  0.0710 -0.0621
13950TIP3    H163265   3.140   4.629   2.850 -0.4830  0.3821  0.2013
13950TIP3    H263266   3.123   4.499   2.925 -1.3208  0.6129  0.4174
13951TIP3   OH263267   4.063   0.864  11.834  0.2299  0.0119  0.4882
13951TIP3    H163268   4.112   0.861  11.751 -1.7404  1.4722 -0.8198
13951TIP3    H263269   4.039   0.773  11.851  2.0971 -0.5429  0.4188
13952TIP3   OH263270   0.283   5.121  14.449  0.3490  0.7239 -0.0070
13952TIP3    H163271   0.271   5.109  14.544  0.5787 -3.6283 -0.3058
13952TIP3    H263272   0.378   5.114  14.436  0.1745 -1.1511 -0.6478
13953TIP3   OH263273   3.155   4.068  13.591  0.3747  0.0108  0.2735
13953TIP3    H163274   3.073   4.114  13.573  0.1359  0.1327  1.5350
13953TIP3    H263275   3.223   4.132  13.573  0.1002  0.4778  0.8594
13954TIP3   OH263276   4.723   2.688   5.020  0.3033 -0.6791 -0.3147
13954TIP3    H163277   4.728   2.601   4.981  0.5275 -0.1545 -1.5166
13954TIP3    H263278   4.812   2.705   5.053 -0.1262 -1.5135  1.3541
13955TIP3   OH263279   2.859   3.749  14.134 -0.1117 -0.4614  0.5094
13955TIP3    H163280   2.785   3.742  14.073 -0.2226  1.0498  0.4102
13955TIP3    H263281   2.934   3.716  14.086 -0.3670 -0.1308 -0.1233
13956TIP3   OH263282   2.933   0.863  13.108 -0.4234  0.6681  0.2466
13956TIP3    H163283   2.881   0.783  13.105  1.0758 -0.3386 -0.6524
13956TIP3    H263284   2.942   0.882  13.202 -1.2459  0.0908  0.4537
13957TIP3   OH263285   3.399   4.455   5.318  0.0063  0.0167 -0.4516
13957TIP3    H163286   3.309   4.437   5.290  0.1660  0.5919 -1.3643
13957TIP3    H263287   3.416   4.391   5.387 -0.3993 -1.4432 -1.6665
13958TIP3   OH263288   2.333   2.752   2.758 -0.3274  0.1256  0.4459
13958TIP3    H163289   2.375   2.666   2.760 -1.0574 -0.3113 -1.5492
13958TIP3    H263290   2.402   2.812   2.729 -0.4025 -0.1770 -0.3787
13959TIP3   OH263291   1.195   3.955  11.558 -0.0443  0.2605  0.4606
13959TIP3    H163292   1.228   3.893  11.623  0.3014  0.2328  0.2618
13959TIP3    H263293   1.129   4.006  11.605  0.4630  0.4842  0.9440
13960TIP3   OH263294   2.927   5.428  15.905 -0.5087 -0.5730  1.0077
13960TIP3    H163295   2.875   5.353  15.879 -1.4927 -0.6173  2.9142
13960TIP3    H263296   2.883   5.503  15.865  0.8800 -0.9773 -1.4918
13961TIP3   OH263297   0.239   5.054  12.194  0.2766 -0.1542 -0.5158
13961TIP3    H163298   0.264   5.109  12.269 -1.5406 -0.4726  0.3807
13961TIP3    H263299   0.188   5.112  12.138  0.3814 -0.3067 -0.7705
13962TIP3   OH263300   5.102   1.743  12.734  0.3539 -0.4187  0.1253
13962TIP3    H163301   5.122   1.802  12.807 -2.0297 -0.4665  0.8925
13962TIP3    H263302   5.101   1.799  12.657  2.5224 -0.2969  0.1136
13963TIP3   OH263303   5.871   6.605   2.605  0.4519  0.6912  0.0308
13963TIP3    H163304   5.843   6.514   2.594  1.2725  0.5899 -1.5874
13963TIP3    H263305   5.876   6.640   2.516  2.5245  1.5702  0.4297
13964TIP3   OH263306   4.133   6.205   1.694  0.0771  0.0317 -0.0880
13964TIP3    H163307   4.052   6.252   1.675  0.3106  0.5751  0.2197
13964TIP3    H263308   4.109   6.113   1.693 -0.1476  0.0665 -1.9319
13965TIP3   OH263309   1.825   4.857  14.336 -0.3605 -0.1390  0.4905
13965TIP3    H163310   1.795   4.934  14.288 -0.8564 -0.7631 -0.2179
13965TIP3    H263311   1.786   4.867  14.423 -2.6092 -0.8657 -0.3606
13966TIP3   OH263312   4.028   4.930   3.665 -0.0690 -0.5650 -0.1305
13966TIP3    H163313   3.935   4.913   3.680  0.1759 -0.0460  2.6333
13966TIP3    H263314   4.033   5.026   3.656  0.1458 -0.6265 -0.6417
13967TIP3   OH263315   5.376   2.850   1.836  0.0019 -0.2187 -0.0832
13967TIP3    H163316   5.286   2.844   1.868  0.0032  0.2456  0.0123
13967TIP3    H263317   5.376   2.926   1.779  0.6007  0.4686  0.8144
13968TIP3   OH263318   6.478   5.571   5.159  0.2966  0.2674 -0.1162
13968TIP3    H163319   6.570   5.554   5.178  1.0904  0.8970 -2.9997
13968TIP3    H263320   6.475   5.588   5.065 -2.6655  1.0193  0.0111
13969TIP3   OH263321   0.859   1.211  11.437 -0.0722 -0.2293 -0.4359
13969TIP3    H163322   0.911   1.222  11.517 -1.8425 -3.8751  1.4499
13969TIP3    H263323   0.924   1.191  11.370  1.5770  3.9916 -0.4146
13970TIP3   OH263324   0.777   6.654  16.552 -0.2582  0.1904 -0.2863
13970TIP3    H163325   0.804   6.727  16.609 -1.5355  0.3138  0.1913
13970TIP3    H263326   0.856   6.600  16.545  0.5699  1.3212 -0.2055
13971TIP3   OH263327   6.412   6.563   1.275  0.5448  0.4032 -0.1463
13971TIP3    H163328   6.428   6.478   1.315  0.0336  0.9370  1.2366
13971TIP3    H263329   6.497   6.606   1.274  1.4981 -1.2256 -3.6923
13972TIP3   OH263330   2.181   1.401   2.945  0.0149  0.0965 -0.4364
13972TIP3    H163331   2.111   1.379   3.006 -1.6081 -0.1509 -2.2907
13972TIP3    H263332   2.252   1.434   3.000 -1.3203 -0.2271  1.5606
13973TIP3   OH263333   0.048   2.590   6.007  0.0466 -0.6657 -0.4850
13973TIP3    H163334   0.026   2.678   6.036 -0.8417 -0.4480 -1.7296
13973TIP3    H263335  -0.007   2.533   6.061  0.0227 -0.4064 -0.2336
13974TIP3   OH263336   0.884   1.971  15.547 -0.7132 -0.3530  0.0296
13974TIP3    H163337   0.924   1.901  15.495 -1.3495  0.6632 -1.9010
13974TIP3    H263338   0.790   1.954  15.544 -0.7866 -0.1078  0.6289
13975TIP3   OH263339   1.018   5.421   5.435  0.0622  0.4321 -0.5807
13975TIP3    H163340   1.013   5.329   5.460  1.7202  0.7202  0.9873
13975TIP3    H263341   1.074   5.421   5.357  0.7524  0.1580 -0.1004
13976TIP3   OH263342   0.643   0.083  15.435 -0.3463 -0.1589 -0.6250
13976TIP3    H163343   0.697   0.029  15.493  0.1354  1.4944  0.5899
13976TIP3    H263344   0.700   0.102  15.361 -0.5861 -1.4262 -1.1542
13977TIP3   OH263345   0.138   3.478   3.446 -0.5081 -0.3769  0.3788
13977TIP3    H163346   0.055   3.437   3.468 -1.6367  1.0546 -1.0392
13977TIP3    H263347   0.189   3.474   3.528 -2.6466  0.3762  1.8162
13978TIP3   OH263348   4.019   4.980  15.899 -0.1481  0.0738  1.1139
13978TIP3    H163349   4.077   5.046  15.859  1.3661 -0.1357  2.8035
13978TIP3    H263350   3.931   5.011  15.880  0.4048 -0.0908 -2.3982
13979TIP3   OH263351   0.113   0.197  11.402 -0.3516 -0.5175  0.6349
13979TIP3    H163352   0.181   0.241  11.454  0.9519  0.1209 -1.4877
13979TIP3    H263353   0.061   0.268  11.366 -1.7361 -0.9850  1.6400
13980TIP3   OH263354   4.351   3.601   0.405  0.2915  0.3156  0.2192
13980TIP3    H163355   4.312   3.529   0.454  1.1303 -1.7277 -1.8992
13980TIP3    H263356   4.386   3.660   0.472 -0.5838 -1.1396  2.0437
13981TIP3   OH263357   2.230   4.793  13.363  0.0175  0.5192  0.3300
13981TIP3    H163358   2.224   4.699  13.344 -0.5640  0.8655 -1.4090
13981TIP3    H263359   2.322   4.808  13.381  0.6454  0.0447 -2.1667
13982TIP3   OH263360   1.765   5.797  16.659  0.4630 -0.2816 -0.3417
13982TIP3    H163361   1.810   5.716  16.683  0.0636 -0.5161 -0.3917
13982TIP3    H263362   1.709   5.816  16.734 -1.3606 -1.4170 -1.3626
13983TIP3   OH263363   1.560   1.011   5.989  0.4194 -0.0970 -0.1531
13983TIP3    H163364   1.500   1.073   6.031  2.0556  2.1030 -0.8133
13983TIP3    H263365   1.577   0.944   6.055  0.1344  1.2924  1.3893
13984TIP3   OH263366   2.101   0.524  14.839 -0.2175 -0.0068 -0.0121
13984TIP3    H163367   2.026   0.563  14.794  0.6351  1.4181 -0.2664
13984TIP3    H263368   2.148   0.599  14.875  0.1119 -0.9938  1.7116
13985TIP3   OH263369   4.920   3.739  15.106 -0.2313 -0.0093 -0.2626
13985TIP3    H163370   4.873   3.656  15.098  0.0684 -0.3661  1.4524
13985TIP3    H263371   4.919   3.775  15.017 -1.6528 -1.1325 -0.7432
13986TIP3   OH263372   4.170   6.380  16.260 -0.0023 -0.5689  0.1448
13986TIP3    H163373   4.238   6.352  16.322  0.3525 -0.7405 -0.3147
13986TIP3    H263374   4.193   6.471  16.240  1.4177 -1.2612 -1.6981
13987TIP3   OH263375   2.305   5.475  12.121  0.0847 -0.3145  0.0692
13987TIP3    H163376   2.265   5.557  12.091  0.4102  0.6881  2.1731
13987TIP3    H263377   2.233   5.427  12.163  0.2223 -0.3717  0.2410
13988TIP3   OH263378   3.496   6.638   5.260  0.3626  0.6103  0.3771
13988TIP3    H163379   3.501   6.551   5.220  1.0120  1.1470 -0.7619
13988TIP3    H263380   3.584   6.655   5.292  0.2585  0.8778  0.5257
13989TIP3   OH263381   0.641   0.985   2.714 -0.2967  0.1923 -0.5759
13989TIP3    H163382   0.698   0.971   2.789 -0.9748 -1.3962 -0.3233
13989TIP3    H263383   0.604   1.072   2.728  0.3123  0.3022  0.4417
13990TIP3   OH263384   4.541   5.317  14.719 -0.0570  0.5554  0.5370
13990TIP3    H163385   4.488   5.240  14.740 -0.5802  0.2558 -1.6584
13990TIP3    H263386   4.631   5.285  14.725 -0.1953  0.2601  1.2972
13991TIP3   OH263387   6.380   2.414  15.722 -0.0066  0.4945 -0.2333
13991TIP3    H163388   6.290   2.415  15.755  0.2711 -1.1025  0.6922
13991TIP3    H263389   6.372   2.384  15.632 -0.4094  0.3765 -0.1636
13992TIP3   OH263390   4.340   4.853   4.832 -0.1534 -0.1379 -0.2256
13992TIP3    H163391   4.261   4.893   4.870  0.1430  1.5023 -1.2406
13992TIP3    H263392   4.409   4.917   4.849  0.2304  0.0980 -2.3947
13993TIP3   OH263393   6.131   5.388   0.867  0.0670 -0.2621 -0.6884
13993TIP3    H163394   6.051   5.350   0.903 -0.3212 -0.1167 -1.3951
13993TIP3    H263395   6.147   5.465   0.922 -1.3769  0.8420 -1.7399
13994TIP3   OH263396   6.543   2.760  10.674 -0.2633 -0.5067  0.1005
13994TIP3    H163397   6.457   2.767  10.633  0.9178  0.7553 -2.4751
13994TIP3    H263398   6.580   2.848  10.666  1.2677 -1.0160  1.1122
13995TIP3   OH263399   2.983   6.137  12.543 -0.0770 -0.9577  0.5968
13995TIP3    H163400   3.008   6.225  12.570  1.3031 -0.8637 -0.7891
13995TIP3    H263401   3.047   6.114  12.475 -2.2247 -1.8135 -1.2855
13996TIP3   OH263402   4.617   1.440  14.131 -0.2555 -0.3841 -0.1053
13996TIP3    H163403   4.611   1.535  14.122  0.8288 -0.1929  0.9324
13996TIP3    H263404   4.666   1.427  14.212  0.5762 -1.8238 -0.8089
13997TIP3   OH263405   6.418   5.492   6.149 -0.2827  0.2399  0.2663
13997TIP3    H163406   6.432   5.405   6.111 -1.8954  0.1779 -0.2665
13997TIP3    H263407   6.500   5.513   6.193  0.2009 -1.4700  0.2319
13998TIP3   OH263408   2.819   4.766  12.459 -0.0227  0.0053  0.2480
13998TIP3    H163409   2.914   4.777  12.450 -0.0687  1.2400  1.1028
13998TIP3    H263410   2.809   4.709  12.535  0.0308  0.2399  0.4335
13999TIP3   OH263411   2.984   1.055   3.499  0.5067 -0.5860  0.1679
13999TIP3    H163412   2.900   1.024   3.465  0.9014 -1.2462 -0.2211
13999TIP3    H263413   3.045   1.045   3.426  0.9492 -0.2045  0.4775
14000TIP3   OH263414   4.965   5.271  13.076 -0.4568 -0.1495 -0.0541
14000TIP3    H163415   5.058   5.294  13.077 -0.2914 -0.7995  1.4168
14000TIP3    H263416   4.921   5.353  13.099 -0.1926 -0.0930  0.2541
14001TIP3   OH263417   1.992   3.641   3.466 -0.4901 -0.2105 -0.8245
14001TIP3    H163418   1.961   3.718   3.513 -0.5622 -1.2361  0.9023
14001TIP3    H263419   1.922   3.621   3.404 -1.6738 -0.3567  0.4960
14002TIP3   OH263420   4.649   4.394  11.163  0.1185 -0.3274  0.6750
14002TIP3    H163421   4.621   4.305  11.140  0.7401 -0.6539  1.1831
14002TIP3    H263422   4.744   4.393  11.153  0.3028 -0.1695  2.1925
14003TIP3   OH263423   3.232   5.231   0.513  0.2272  0.9498 -0.3135
14003TIP3    H163424   3.202   5.237   0.422  1.8590 -0.4572 -1.0051
14003TIP3    H263425   3.260   5.140   0.522  1.5525  1.4674  1.1358
14004TIP3   OH263426   0.438   4.753   0.007 -0.2784 -0.5323  0.2873
14004TIP3    H163427   0.388   4.672   0.005  0.4520 -1.0115  1.0526
14004TIP3    H263428   0.529   4.725   0.001 -0.0792  0.3224 -0.9973
14005TIP3   OH263429   3.646   3.335   5.658 -0.2953  0.2690 -0.6459
14005TIP3    H163430   3.563   3.339   5.610 -1.8811 -1.9449  1.6512
14005TIP3    H263431   3.635   3.398   5.729 -1.7984 -2.6533  1.9553
14006TIP3   OH263432   4.955   2.947   2.047 -0.5854 -0.2552 -0.7360
14006TIP3    H163433   5.020   2.994   2.100 -0.6051  0.6744 -1.5012
14006TIP3    H263434   4.896   2.908   2.111  1.1006 -1.7184  0.0131
14007TIP3   OH263435   0.912   1.377  11.660  0.3846 -0.3916 -0.4564
14007TIP3    H163436   0.832   1.379  11.607 -0.1376  1.2680  0.3362
14007TIP3    H263437   0.964   1.451  11.629  0.4752  0.0609  0.7246
14008TIP3   OH263438   2.015   1.201  16.152 -0.5651  0.1668  0.1652
14008TIP3    H163439   1.938   1.257  16.149 -0.7737 -0.0173  1.4976
14008TIP3    H263440   1.992   1.130  16.212  0.1026 -0.7428 -0.6068
14009TIP3   OH263441   3.365   5.013   0.296  0.1521 -0.6164 -0.0505
14009TIP3    H163442   3.354   4.993   0.389  1.4584 -0.5043  0.1424
14009TIP3    H263443   3.450   5.055   0.290  0.1573 -0.7588 -1.3316
14010TIP3   OH263444   5.577   1.167  15.694  0.0319 -0.6888  0.1443
14010TIP3    H163445   5.574   1.247  15.640  1.6173 -0.0206  0.9956
14010TIP3    H263446   5.648   1.116  15.657 -1.3046 -1.9955 -0.7185
14011TIP3   OH263447   0.985   1.789  14.809  0.2032 -0.0792  0.2174
14011TIP3    H163448   0.961   1.696  14.819  0.6628 -0.2006  0.1953
14011TIP3    H263449   0.906   1.836  14.837  0.0544 -0.4711  0.4800
14012TIP3   OH263450   6.126   5.818   1.464  0.1150  0.8076 -0.2971
14012TIP3    H163451   6.178   5.879   1.515 -0.9400  0.6722  0.9710
14012TIP3    H263452   6.088   5.758   1.528 -0.5755  0.1204 -1.3093
14013TIP3   OH263453   4.965   6.191   1.475 -0.3284 -0.0018  0.0387
14013TIP3    H163454   4.893   6.255   1.477  1.0223  1.5935  1.1733
14013TIP3    H263455   4.994   6.191   1.384 -1.3107 -0.1691 -0.2925
14014TIP3   OH263456   6.239   1.357   3.732 -0.2771  0.6314 -0.2727
14014TIP3    H163457   6.264   1.325   3.819 -0.5951  0.1518 -0.3560
14014TIP3    H263458   6.176   1.292   3.700  0.5989  0.2693 -1.2878
14015TIP3   OH263459   5.116   5.737  12.173 -0.6644 -0.0084  0.0803
14015TIP3    H163460   5.045   5.793  12.205 -0.0939  1.2203 -0.7520
14015TIP3    H263461   5.175   5.796  12.127 -0.1115 -1.3231 -0.9574
14016TIP3   OH263462   6.680   2.275  12.689  0.3146 -0.0804  0.2983
14016TIP3    H163463   6.621   2.326  12.746 -0.1511  0.5764 -0.7496
14016TIP3    H263464   6.754   2.334  12.672 -0.1638  0.2240 -0.8114
14017TIP3   OH263465   4.879   3.828  12.905  0.3651  0.0856 -0.3386
14017TIP3    H163466   4.883   3.732  12.908 -0.6166  0.0562  0.8036
14017TIP3    H263467   4.965   3.857  12.934  0.7065 -0.4411 -0.7974
14018TIP3   OH263468   4.843   4.574   4.729  0.3194 -0.5507  0.0898
14018TIP3    H163469   4.791   4.619   4.795  0.0546  0.5258 -0.8226
14018TIP3    H263470   4.898   4.643   4.692  0.0133 -0.9989 -1.2349
14019TIP3   OH263471   0.111   3.071  14.102 -0.0177 -0.5569 -0.1927
14019TIP3    H163472   0.039   3.011  14.122  0.4578 -0.5008  1.8585
14019TIP3    H263473   0.189   3.027  14.134  0.4617  0.7182  0.4514
14020TIP3   OH263474   0.668   4.916  12.676  0.0239 -0.6885  0.8809
14020TIP3    H163475   0.617   4.992  12.649  1.6361  0.0769 -0.1555
14020TIP3    H263476   0.621   4.841  12.639 -0.3543 -0.0129 -0.0439
14021TIP3   OH263477   2.408   2.754  10.623  0.0233  0.3482  0.2240
14021TIP3    H163478   2.493   2.714  10.604 -0.0338  0.4210 -0.1989
14021TIP3    H263479   2.422   2.803  10.704  0.0635 -0.6202  0.8164
14022TIP3   OH263480   3.743   1.210   4.659 -0.0838 -0.5092 -0.2135
14022TIP3    H163481   3.703   1.261   4.589  0.7763  1.0687  0.3923
14022TIP3    H263482   3.703   1.243   4.739 -0.8662 -2.1078  0.1027
14023TIP3   OH263483   4.472   4.910  12.329 -0.4884 -0.2772  0.1118
14023TIP3    H163484   4.471   4.817  12.354  0.4538 -0.8205 -1.6647
14023TIP3    H263485   4.553   4.920  12.278 -0.5830  1.5334  0.2485
14024TIP3   OH263486   4.090   4.365   2.782  0.7307 -0.2375 -0.8104
14024TIP3    H163487   4.080   4.281   2.738  1.7478  0.3696 -2.2470
14024TIP3    H263488   4.184   4.372   2.801  0.3704 -0.4128  1.4063
14025TIP3   OH263489   6.727   1.625  16.825 -0.2367 -0.2696  0.4075
14025TIP3    H163490   6.814   1.665  16.820 -0.0666 -0.7587 -1.4414
14025TIP3    H263491   6.668   1.696  16.847  0.5606  0.2008  1.0532
14026TIP3   OH263492   0.746   1.929  13.336  0.1104 -0.1322  0.4190
14026TIP3    H163493   0.658   1.955  13.365 -0.5449 -2.9659  1.4054
14026TIP3    H263494   0.730   1.876  13.258  1.1627  1.0154 -0.5981
14027TIP3   OH263495   4.332   6.711  12.680 -0.0062 -0.2155  0.2256
14027TIP3    H163496   4.336   6.787  12.737  2.9268  0.2982 -0.4689
14027TIP3    H263497   4.330   6.748  12.591 -0.1581 -0.9392 -0.0808
14028TIP3   OH263498   5.617   6.539   6.292 -0.1559  0.1335  0.5660
14028TIP3    H163499   5.558   6.465   6.279 -1.1785  0.9085  0.6777
14028TIP3    H263500   5.565   6.616   6.270  1.1209  0.7921 -0.2903
14029TIP3   OH263501   3.978   6.321  16.530 -0.1306 -0.4598  0.0406
14029TIP3    H163502   4.007   6.387  16.593 -0.7238 -1.2850  1.2085
14029TIP3    H263503   4.013   6.352  16.446  2.2172 -0.2622  1.0068
14030TIP3   OH263504   0.718   5.432  11.960 -0.2323  0.0488 -0.0156
14030TIP3    H163505   0.654   5.440  12.031 -1.4442  0.3800 -1.1041
14030TIP3    H263506   0.665   5.431  11.880  1.2175  2.6115 -1.1079
14031TIP3   OH263507   2.620   2.668   4.297  0.4717  0.4289  1.0183
14031TIP3    H163508   2.642   2.722   4.220 -0.8764 -2.5019 -1.6340
14031TIP3    H263509   2.554   2.720   4.343 -0.9335  1.0801 -1.5122
14032TIP3   OH263510   3.929   2.548   0.686 -0.3526  0.3088 -0.2498
14032TIP3    H163511   3.954   2.604   0.613  0.8239 -1.0093 -0.9125
14032TIP3    H263512   3.852   2.499   0.654  0.1375 -0.2387 -0.6186
14033TIP3   OH263513   0.363   4.833  14.803  0.0541  0.2956 -0.9007
14033TIP3    H163514   0.329   4.758  14.753 -0.7781  0.8201 -1.1503
14033TIP3    H263515   0.358   4.804  14.894  0.3784 -0.2035 -1.0373
14034TIP3   OH263516   1.350   0.552   0.977 -0.2865 -0.3698 -0.2062
14034TIP3    H163517   1.309   0.467   0.994 -2.4105  0.5332 -0.5514
14034TIP3    H263518   1.428   0.552   1.032 -1.2230 -1.7987  1.2095
14035TIP3   OH263519   1.088   4.716  16.634 -0.1187 -0.1882 -0.8998
14035TIP3    H163520   1.034   4.639  16.615 -3.6196  1.1127  2.3777
14035TIP3    H263521   1.146   4.687  16.705  0.7229 -0.5251 -1.7043
14036TIP3   OH263522   1.945   3.150  15.564 -0.3717  0.1259  0.2510
14036TIP3    H163523   1.893   3.078  15.528 -0.3337  0.6581 -0.9100
14036TIP3    H263524   1.893   3.228  15.545 -0.3721  0.4217  1.4259
14037TIP3   OH263525   5.429   3.252  12.132  0.2753  0.2609 -0.6140
14037TIP3    H163526   5.519   3.233  12.158  0.0564 -0.2615 -0.2042
14037TIP3    H263527   5.435   3.332  12.080  0.8361  0.8657  0.3528
14038TIP3   OH263528   2.617   1.480   3.522 -0.0852  0.4815 -0.0439
14038TIP3    H163529   2.617   1.483   3.618 -2.2199 -0.6831  0.0602
14038TIP3    H263530   2.556   1.549   3.496  1.7148  1.9178 -0.7155
14039TIP3   OH263531   5.212   2.045  16.909  0.6158 -0.1601  0.2846
14039TIP3    H163532   5.165   2.029  16.827 -1.0368 -0.7448  1.2891
14039TIP3    H263533   5.303   2.055  16.883  0.1305 -0.3010 -1.6227
14040TIP3   OH263534   1.628   2.258  13.614  0.2490 -0.1413  0.5755
14040TIP3    H163535   1.673   2.265  13.530  0.3342 -0.2144  0.6143
14040TIP3    H263536   1.575   2.179  13.606 -1.6692  1.1701 -0.3102
14041TIP3   OH263537   2.790   4.177   5.312  0.0161  0.0381  0.4075
14041TIP3    H163538   2.877   4.218   5.315 -0.5533  1.4257 -1.1101
14041TIP3    H263539   2.780   4.148   5.221 -2.1527  2.3130 -0.1619
14042TIP3   OH263540   3.807   2.583  11.698 -0.4919 -0.1269  0.3697
14042TIP3    H163541   3.837   2.672  11.683 -0.7730  0.1444  1.3712
14042TIP3    H263542   3.838   2.534  11.621  1.8864  0.2829  0.9656
14043TIP3   OH263543   0.355   5.758  15.536 -0.1613 -0.4715 -1.0188
14043TIP3    H163544   0.331   5.751  15.628  2.3445  1.9438 -0.0549
14043TIP3    H263545   0.348   5.668  15.503 -0.4451 -1.5421  1.6804
14044TIP3   OH263546   6.333   3.830  12.477  0.0317  0.5842 -0.0997
14044TIP3    H163547   6.270   3.835  12.406 -0.4533  2.5532  0.4126
14044TIP3    H263548   6.302   3.758  12.532  0.2520 -0.7667 -1.6700
14045TIP3   OH263549   0.448   5.718  13.874 -0.2832 -0.4397 -0.5952
14045TIP3    H163550   0.411   5.758  13.796 -0.2798  0.4738 -0.1396
14045TIP3    H263551   0.414   5.629  13.874 -0.9085 -0.2083 -1.2142
14046TIP3   OH263552   6.710   2.958   2.382  0.0442 -0.0086  0.2902
14046TIP3    H163553   6.709   2.872   2.423  0.3339 -0.1345  0.0337
14046TIP3    H263554   6.622   2.994   2.399 -0.1888 -0.4861  0.1133
14047TIP3   OH263555   4.390   2.582   2.366 -0.2721 -0.1685  0.4870
14047TIP3    H163556   4.340   2.501   2.372  2.9751 -2.3743  0.7899
14047TIP3    H263557   4.441   2.573   2.285  1.4583  0.6804  1.4166
14048TIP3   OH263558   4.878   1.829   3.137 -0.3773  0.2212  1.2447
14048TIP3    H163559   4.839   1.742   3.132 -2.0403  0.9983 -0.8141
14048TIP3    H263560   4.839   1.868   3.216 -0.9268 -0.3165  1.2425
14049TIP3   OH263561   3.273   4.678  13.267 -0.2709  0.7216  0.0912
14049TIP3    H163562   3.207   4.715  13.325  0.1831  1.3861  0.1902
14049TIP3    H263563   3.231   4.599  13.231 -0.3904  0.0485  1.6466
14050TIP3   OH263564   5.537   1.332   4.134  0.4118  0.6704 -0.4722
14050TIP3    H163565   5.588   1.340   4.215 -0.7190 -0.5247  0.4213
14050TIP3    H263566   5.529   1.237   4.121  2.3692  0.7568 -3.2209
14051TIP3   OH263567   2.609   5.157  16.310  0.2313 -0.0533 -0.2147
14051TIP3    H163568   2.640   5.086  16.253 -0.7970 -1.1198  0.5107
14051TIP3    H263569   2.655   5.235  16.277  0.1928 -0.7431 -2.0542
14052TIP3   OH263570   0.718   0.711   3.613  0.3892  0.1095  0.0620
14052TIP3    H163571   0.798   0.683   3.567 -1.3487 -2.5614 -1.6052
14052TIP3    H263572   0.689   0.633   3.659 -2.8626  0.0263 -1.8748
14053TIP3   OH263573   0.327   3.608  14.574  0.2876 -0.3144 -0.0607
14053TIP3    H163574   0.285   3.620  14.659 -1.7758 -0.9232 -0.9130
14053TIP3    H263575   0.318   3.693  14.531 -0.6395 -0.5821 -0.4379
14054TIP3   OH263576   1.754   2.019   3.645 -0.0032  0.6474 -0.4072
14054TIP3    H163577   1.778   2.099   3.692 -2.5001  1.9100 -1.1079
14054TIP3    H263578   1.765   1.949   3.709  3.5696  1.2444 -0.1546
14055TIP3   OH263579   4.181   4.168   6.032  0.1153 -0.1038  0.4422
14055TIP3    H163580   4.135   4.228   5.973 -0.4086 -2.1585 -1.3940
14055TIP3    H263581   4.111   4.125   6.082  0.0773 -1.8664 -1.0064
14056TIP3   OH263582   1.254   1.351   6.627  0.5553  0.2163  0.1175
14056TIP3    H163583   1.272   1.334   6.535  0.9130  0.3815  0.1533
14056TIP3    H263584   1.340   1.368   6.666  0.2386  2.1060  0.0731
14057TIP3   OH263585   5.049   2.819   6.790  0.0468 -0.3463 -0.3177
14057TIP3    H163586   5.128   2.872   6.801  0.4671 -1.1957  0.9676
14057TIP3    H263587   4.988   2.853   6.855  0.1934 -1.1717  0.2728
14058TIP3   OH263588   0.427   0.300   0.726  0.5556  0.1854 -0.1100
14058TIP3    H163589   0.431   0.393   0.703 -1.2333  0.1152 -0.8200
14058TIP3    H263590   0.498   0.260   0.675  0.5668  0.9848 -0.7449
14059TIP3   OH263591   2.920   2.798  11.425 -0.8655  0.5449 -0.3278
14059TIP3    H163592   2.999   2.846  11.449 -0.5679 -0.0783 -0.0282
14059TIP3    H263593   2.848   2.850  11.460 -0.4717 -0.0738  1.4807
14060TIP3   OH263594   2.630   3.844   2.486  0.0898  0.0017  0.6156
14060TIP3    H163595   2.566   3.890   2.539  0.8990  0.0483  1.5945
14060TIP3    H263596   2.707   3.900   2.487  1.0255 -1.2198  1.6594
14061TIP3   OH263597   1.415   4.681   0.803  0.3410  0.2584 -0.2737
14061TIP3    H163598   1.407   4.741   0.877  1.5908  0.1488 -0.0167
14061TIP3    H263599   1.458   4.733   0.734  0.8804 -0.1564 -0.2577
14062TIP3   OH263600   5.545   3.084  13.726 -0.1543  0.2771 -0.1248
14062TIP3    H163601   5.512   3.112  13.640  0.8735  0.2456 -0.5359
14062TIP3    H263602   5.617   3.143  13.744  1.2674 -1.2879 -0.4480
14063TIP3   OH263603   4.843   4.503   1.314 -0.0604  0.0706 -0.3205
14063TIP3    H163604   4.762   4.554   1.312 -0.0330  0.1221 -0.1198
14063TIP3    H263605   4.912   4.569   1.317  0.0439  0.0604 -1.7077
14064TIP3   OH263606   4.392   4.248   5.483 -0.2703  0.2987  1.0634
14064TIP3    H163607   4.415   4.334   5.448 -0.1991  0.3373  1.2055
14064TIP3    H263608   4.300   4.256   5.506 -0.5778 -0.0179 -0.0012
14065TIP3   OH263609   5.425   0.872   4.762 -0.4194  0.1980  0.5812
14065TIP3    H163610   5.337   0.902   4.738  0.2807  1.0571 -1.0278
14065TIP3    H263611   5.448   0.809   4.694  0.6461  0.8309  0.3426
14066TIP3   OH263612   6.306   4.425  12.739 -0.0359 -0.0123  0.3161
14066TIP3    H163613   6.362   4.502  12.750  0.4543 -0.2725 -0.3272
14066TIP3    H263614   6.224   4.460  12.705 -0.1400  0.3303  0.9179
14067TIP3   OH263615   3.183   6.739  13.410  0.0286 -0.4673  0.6726
14067TIP3    H163616   3.222   6.777  13.489  2.9112  1.6587 -1.5459
14067TIP3    H263617   3.124   6.808  13.377  0.6644 -0.3519 -0.2425
14068TIP3   OH263618   1.636   3.703   4.447 -1.1853  0.4029  0.5747
14068TIP3    H163619   1.708   3.722   4.388 -0.7688  1.6966  1.4554
14068TIP3    H263620   1.662   3.623   4.492 -0.6408  0.4488  0.3434
14069TIP3   OH263621   0.860   4.816  13.852 -0.0395 -0.1389 -0.6209
14069TIP3    H163622   0.844   4.862  13.769 -0.4945 -0.8948 -0.9651
14069TIP3    H263623   0.918   4.743  13.827  1.9608  1.1066  0.1776
14070TIP3   OH263624   1.464   6.694   1.100  0.4096  0.1175 -0.3411
14070TIP3    H163625   1.494   6.665   1.186  1.0582 -1.7867 -1.1466
14070TIP3    H263626   1.450   6.788   1.109  0.1384 -0.0834  1.9249
14071TIP3   OH263627   0.263   4.327   2.450 -0.0935  0.1478  0.0550
14071TIP3    H163628   0.242   4.234   2.458  0.4802  0.0654  0.7901
14071TIP3    H263629   0.353   4.329   2.417 -0.2090  0.4420 -0.2407
14072TIP3   OH263630   5.057   5.775   0.162 -0.5211  0.8221  0.4820
14072TIP3    H163631   5.067   5.867   0.138  0.4383  0.7920  0.7427
14072TIP3    H263632   5.040   5.777   0.256 -0.8139  0.7415  0.4331
14073TIP3   OH263633   6.133   3.177  13.957 -0.0883  0.2542  0.1474
14073TIP3    H163634   6.143   3.250  13.896 -0.3766 -1.2334 -1.7642
14073TIP3    H263635   6.080   3.212  14.029  1.3210  2.4073  0.2185
14074TIP3   OH263636   1.285   4.954   6.046  0.1885 -0.8287 -0.3246
14074TIP3    H163637   1.369   4.988   6.015  0.7952 -1.4993  0.5410
14074TIP3    H263638   1.284   4.863   6.018  0.0418 -1.0039  0.2336
14075TIP3   OH263639   3.678   5.662  16.837  0.3279  0.3712  0.0506
14075TIP3    H163640   3.685   5.574  16.874  1.6514 -0.1455 -1.3163
14075TIP3    H263641   3.661   5.718  16.913  1.9524 -0.7512  1.3377
14076TIP3   OH263642   3.093   0.592  14.931  0.4533  0.0360  0.2692
14076TIP3    H163643   3.181   0.629  14.939  1.3249 -1.7541 -0.6955
14076TIP3    H263644   3.106   0.499  14.913 -1.6548 -0.6121  1.5763
14077TIP3   OH263645   2.529   5.840   3.278  0.1048  0.5565 -0.6283
14077TIP3    H163646   2.492   5.862   3.193 -0.5761  1.9774 -0.0044
14077TIP3    H263647   2.480   5.894   3.340  0.7175 -0.3033  0.6433
14078TIP3   OH263648   4.288   5.088  16.043  0.0101 -0.1495  0.0492
14078TIP3    H163649   4.338   5.140  15.981  0.0474  0.2329  0.3928
14078TIP3    H263650   4.345   5.014  16.064 -0.2340 -0.5825 -0.7980
14079TIP3   OH263651   5.502   0.943   6.330  0.1745  0.2504  0.3072
14079TIP3    H163652   5.434   0.937   6.263 -0.7461  4.4997  0.5648
14079TIP3    H263653   5.474   0.884   6.399 -2.1443  0.3068 -0.5037
14080TIP3   OH263654   6.640   3.788  13.382  0.2604  0.6663 -0.1154
14080TIP3    H163655   6.701   3.738  13.436  1.8301  3.5037  0.9903
14080TIP3    H263656   6.685   3.796  13.297  0.7957  1.4976  0.2283
14081TIP3   OH263657   5.303   4.852  14.775  0.0917 -0.9264 -0.3321
14081TIP3    H163658   5.352   4.864  14.856  1.0834 -3.2103 -0.5169
14081TIP3    H263659   5.244   4.779  14.792  0.8790 -1.9763 -1.8673
14082TIP3   OH263660   0.150   5.288  16.258 -0.3930 -0.5028 -0.0725
14082TIP3    H163661   0.183   5.268  16.171 -0.7539  0.5080 -0.4569
14082TIP3    H263662   0.082   5.223  16.274 -0.0856 -0.9070 -0.3980
14083TIP3   OH263663   1.746   2.986  15.405  0.3927 -0.2330 -0.6880
14083TIP3    H163664   1.671   2.964  15.460  0.5605 -0.6778 -0.6354
14083TIP3    H263665   1.709   3.042  15.337  0.1760  0.2939 -0.1485
14084TIP3   OH263666   5.564   4.872   4.512  0.1270 -0.0642 -0.0964
14084TIP3    H163667   5.640   4.908   4.558 -1.2566  1.8575  0.8673
14084TIP3    H263668   5.583   4.779   4.501  1.7788 -0.0117  1.8242
14085TIP3   OH263669   4.284   3.636  11.134 -0.0911 -0.6582  0.2566
14085TIP3    H163670   4.366   3.586  11.133  0.2663 -0.0994  0.7957
14085TIP3    H263671   4.262   3.649  11.042 -0.5678 -2.4076  0.0870
14086TIP3   OH263672   6.449   3.307   3.982  0.2429  0.0606 -0.0776
14086TIP3    H163673   6.379   3.366   3.954 -1.3335 -1.0290  1.3287
14086TIP3    H263674   6.501   3.291   3.904 -1.8203 -0.0504 -1.4968
14087TIP3   OH263675   6.021   1.782  13.404  0.3014 -0.0318 -0.1376
14087TIP3    H163676   5.976   1.703  13.435  1.8502 -0.6418  0.6690
14087TIP3    H263677   6.005   1.847  13.472  1.2489 -0.4888  0.5523
14088TIP3   OH263678   4.960   5.568  13.241  0.1167  0.1021  0.2071
14088TIP3    H163679   5.038   5.518  13.217  1.0047  1.5753 -0.1389
14088TIP3    H263680   4.945   5.626  13.167  0.7427  2.2003  1.6235
14089TIP3   OH263681   0.269   6.257   1.073 -0.5141 -0.3003 -0.0206
14089TIP3    H163682   0.215   6.214   1.006  1.0585  0.4568 -1.8865
14089TIP3    H263683   0.321   6.187   1.110 -1.8098 -0.8259  0.8968
14090TIP3   OH263684   3.610   2.246  16.462  0.1603 -0.2214  0.0878
14090TIP3    H163685   3.648   2.171  16.418 -2.0477 -1.4023  0.0433
14090TIP3    H263686   3.573   2.299  16.392 -0.4974 -0.4161  0.2814
14091TIP3   OH263687   6.309   5.784  10.790 -0.1184 -0.0217 -0.5221
14091TIP3    H163688   6.282   5.875  10.804 -3.2568 -1.1969  2.3880
14091TIP3    H263689   6.400   5.781  10.818 -0.4687  1.9231  1.0004
14092TIP3   OH263690   4.884   3.856   0.941 -0.0267  0.0537 -0.6671
14092TIP3    H163691   4.897   3.944   0.977  0.5125 -0.3992  0.2747
14092TIP3    H263692   4.930   3.857   0.857  0.9694  0.3219 -0.1345
14093TIP3   OH263693   3.538   0.298  15.934  0.2945  0.2320  0.3094
14093TIP3    H163694   3.447   0.275  15.951  0.5427 -1.3579 -0.3575
14093TIP3    H263695   3.535   0.349  15.853  0.1156 -1.0741 -0.5308
14094TIP3   OH263696   3.335   3.935   0.866 -0.0489 -0.1187  0.8836
14094TIP3    H163697   3.249   3.971   0.888 -0.2000 -1.0036  1.7816
14094TIP3    H263698   3.318   3.845   0.840  0.3615  0.3384 -1.1222
14095TIP3   OH263699   3.891   1.032   2.912  0.2956 -0.3096  0.2632
14095TIP3    H163700   3.902   1.006   2.820  0.1464  0.3901  0.0479
14095TIP3    H263701   3.797   1.049   2.921  0.7921  4.1828 -0.7129
14096TIP3   OH263702   1.448   4.809  15.324  0.4869 -0.1318 -0.1774
14096TIP3    H163703   1.512   4.842  15.261  0.1165 -0.1323 -0.5584
14096TIP3    H263704   1.397   4.886  15.349  0.6257 -0.1340  0.1151
14097TIP3   OH263705   6.353   3.597   6.534  0.3044  0.5208  0.1126
14097TIP3    H163706   6.440   3.581   6.570 -0.6580 -1.9147  1.5366
14097TIP3    H263707   6.346   3.539   6.458  0.0942  1.1254 -0.3475
14098TIP3   OH263708   0.268   3.257  12.589 -0.8075 -0.4665 -0.1262
14098TIP3    H163709   0.273   3.216  12.503 -0.4535  0.7381 -0.7001
14098TIP3    H263710   0.360   3.273  12.613 -0.8955 -0.9674  0.5589
14099TIP3   OH263711   5.678   6.507  14.173 -0.5110 -0.0333 -0.3036
14099TIP3    H163712   5.755   6.508  14.116 -0.3831 -0.4539 -0.1435
14099TIP3    H263713   5.604   6.521  14.114 -0.6152 -2.7642 -0.9575
14100TIP3   OH263714   6.607   6.277  14.351 -0.1604 -0.2960 -0.0878
14100TIP3    H163715   6.615   6.371  14.336  0.1097 -0.2980  0.0333
14100TIP3    H263716   6.659   6.261  14.430  0.2233 -0.6284 -0.4026
14101TIP3   OH263717   1.941   4.653  12.561  0.1895 -0.0903 -0.7730
14101TIP3    H163718   1.991   4.635  12.641  0.4057 -1.0938 -1.1240
14101TIP3    H263719   1.958   4.745  12.543 -0.7853  0.4776  0.9752
14102TIP3   OH263720   5.369   3.124  14.335 -0.5015  0.3019  0.2999
14102TIP3    H163721   5.327   3.210  14.347 -0.2566  0.3426  0.9377
14102TIP3    H263722   5.296   3.063  14.326 -0.6907  0.7767 -1.9238
14103TIP3   OH263723   2.923   4.375  15.375 -0.0616  0.0481  0.7332
14103TIP3    H163724   2.962   4.435  15.439  2.5332 -0.0273 -0.6390
14103TIP3    H263725   2.981   4.299  15.376  0.0299  0.0381 -1.6403
14104TIP3   OH263726   5.525   5.131   0.230  0.1808 -0.3792 -0.0376
14104TIP3    H163727   5.459   5.174   0.284 -0.9413  0.7270 -2.1856
14104TIP3    H263728   5.501   5.038   0.233  0.6485 -0.4806  1.9655
14105TIP3   OH263729   1.562   2.840  13.482  0.7764 -0.7867 -0.3540
14105TIP3    H163730   1.596   2.777  13.419  1.0334 -2.4744  1.3740
14105TIP3    H263731   1.633   2.853  13.545  0.2160  0.1215  0.1195
14106TIP3   OH263732   4.400   6.138   4.774 -0.3335 -0.1922 -0.0093
14106TIP3    H163733   4.313   6.121   4.737  0.7073 -1.6131 -1.9618
14106TIP3    H263734   4.455   6.160   4.699  0.6831  2.4014  1.3819
14107TIP3   OH263735   1.830   0.130   0.894  0.1139  0.1778  0.0900
14107TIP3    H163736   1.788   0.200   0.944 -0.6494  0.2802 -0.6832
14107TIP3    H263737   1.859   0.068   0.961 -2.4143 -0.5396  0.6145
14108TIP3   OH263738   0.384   0.556  13.774 -0.0029  0.0562 -0.5337
14108TIP3    H163739   0.324   0.482  13.764  2.4503 -1.8587 -2.1279
14108TIP3    H263740   0.342   0.627  13.725 -2.0065 -0.4536  0.3107
14109TIP3   OH263741   1.990   5.719  10.919  0.7449  0.0021  0.4102
14109TIP3    H163742   2.038   5.801  10.932 -2.0130  2.2699 -2.2059
14109TIP3    H263743   2.011   5.693  10.830  0.6084 -1.5406  0.7932
14110TIP3   OH263744   5.494   3.696  10.493 -0.0554 -0.1282  0.1235
14110TIP3    H163745   5.540   3.617  10.522 -1.9144 -1.2161  0.2416
14110TIP3    H263746   5.542   3.768  10.535  0.0213 -1.3675  2.2787
14111TIP3   OH263747   3.017   4.207   3.081  0.1650 -0.0950  0.7779
14111TIP3    H163748   3.089   4.196   3.018 -0.5653  1.8926 -0.5270
14111TIP3    H263749   3.059   4.244   3.158  0.7182 -0.0891  0.4847
14112TIP3   OH263750   1.552   4.640  14.586  0.2126  0.2899  0.5064
14112TIP3    H163751   1.476   4.600  14.545  0.1875  0.2454  0.5967
14112TIP3    H263752   1.627   4.597  14.544  0.1809 -0.1783  0.9345
14113TIP3   OH263753   6.382   4.714  12.104 -0.6464 -0.0092 -0.1342
14113TIP3    H163754   6.333   4.632  12.108 -1.3414  0.4259  0.4361
14113TIP3    H263755   6.471   4.689  12.128 -0.7278 -0.6859 -0.4898
14114TIP3   OH263756   0.086   0.106  13.550  0.0377  0.6257  0.0831
14114TIP3    H163757   0.163   0.140  13.596  1.2782 -1.0432 -0.6231
14114TIP3    H263758   0.116   0.022  13.514 -2.2270 -0.1950  0.0114
14115TIP3   OH263759   3.366   3.786  12.695  0.6635 -0.2880 -0.1957
14115TIP3    H163760   3.337   3.787  12.786  1.2486  0.2291 -0.0060
14115TIP3    H263761   3.300   3.836  12.647  0.5877 -0.1899  0.0137
14116TIP3   OH263762   3.794   5.134  14.972  0.1383 -0.0076  0.0577
14116TIP3    H163763   3.846   5.213  14.984 -1.5687  1.0200  1.2020
14116TIP3    H263764   3.850   5.063  15.002  1.6436  0.7667 -0.8471
14117TIP3   OH263765   3.210   2.968   5.490  0.7632 -0.1652 -0.0667
14117TIP3    H163766   3.276   2.907   5.457  1.2434  0.6616 -0.6719
14117TIP3    H263767   3.257   3.021   5.555  0.7562  0.5517 -0.6385
14118TIP3   OH263768   6.144   4.139  14.052 -0.0585  0.3644  0.4288
14118TIP3    H163769   6.169   4.103  14.138  2.0452  0.9638  0.1288
14118TIP3    H263770   6.127   4.231  14.069  0.3794  0.4875  0.2009
14119TIP3   OH263771   6.134   5.403  12.126  0.5394 -0.0274  0.4611
14119TIP3    H163772   6.152   5.417  12.033  1.6305 -0.2911  0.6193
14119TIP3    H263773   6.107   5.311  12.132  0.6090 -0.0495  0.4309
14120TIP3   OH263774   4.536   6.320   4.935  0.2050 -0.2108  0.0750
14120TIP3    H163775   4.492   6.270   5.004  0.7673 -0.5220  0.2166
14120TIP3    H263776   4.534   6.262   4.858  0.0476 -0.0771 -0.0230
14121TIP3   OH263777   0.154   6.230  16.822 -0.2446  0.2806 -0.2693
14121TIP3    H163778   0.063   6.250  16.845 -0.3373 -0.2544 -0.1552
14121TIP3    H263779   0.161   6.136  16.836  0.4629  0.3970  0.1911
14122TIP3   OH263780   1.133   5.620   4.241  1.0349  0.1343 -0.3977
14122TIP3    H163781   1.134   5.710   4.208  0.6745 -0.3170 -1.7149
14122TIP3    H263782   1.131   5.566   4.162 -0.0840 -1.0067  0.3739
14123TIP3   OH263783   3.108   2.934  13.610  0.1296  0.4570 -0.1522
14123TIP3    H163784   3.112   2.884  13.692 -1.8152 -0.4892 -0.5774
14123TIP3    H263785   3.189   2.911  13.565  0.3023 -0.5873  0.6351
14124TIP3   OH263786   5.403   2.165   3.189  0.6156  0.0525  0.5775
14124TIP3    H163787   5.324   2.197   3.144  0.1200  0.3907  1.6517
14124TIP3    H263788   5.468   2.157   3.119 -0.5562 -0.9030 -0.4646
14125TIP3   OH263789   0.048   0.430   3.621 -1.0619  0.1494  0.1666
14125TIP3    H163790   0.002   0.363   3.672  0.5485 -1.1909 -0.0410
14125TIP3    H263791   0.139   0.424   3.650 -0.6013  1.1959 -0.9710
14126TIP3   OH263792   1.566   3.675  15.640  0.5127  0.2880 -0.2184
14126TIP3    H163793   1.650   3.711  15.669  1.1797 -1.3617 -0.0194
14126TIP3    H263794   1.585   3.635  15.555  0.0597 -0.5630  0.0698
14127TIP3   OH263795   3.155   2.839  16.684  0.5563 -0.0888  0.0234
14127TIP3    H163796   3.196   2.894  16.617 -1.1940  1.8601  0.4606
14127TIP3    H263797   3.181   2.878  16.767 -1.6196  0.8685  0.3190
14128TIP3   OH263798   5.037   5.127  15.553 -0.3680  0.4144 -0.0768
14128TIP3    H163799   5.114   5.084  15.516  0.2714  1.7727 -0.4047
14128TIP3    H263800   5.060   5.143  15.645 -0.8267 -0.4028  0.1941
14129TIP3   OH263801   0.962   0.044  13.647  0.6895  0.3853  0.1456
14129TIP3    H163802   0.959  -0.001  13.731 -0.5104  0.2747  0.0691
14129TIP3    H263803   0.903  -0.006  13.591  2.5060 -0.3506 -1.2004
14130TIP3   OH263804   0.015   5.816   0.152  0.0440  0.3621 -0.3996
14130TIP3    H163805  -0.075   5.814   0.122 -0.4411  0.2649  1.0022
14130TIP3    H263806   0.015   5.763   0.231  1.2820  0.5645 -0.2445
14131TIP3   OH263807   4.234   6.057  15.625  0.0141 -0.0415  0.3732
14131TIP3    H163808   4.232   5.995  15.699 -0.0712  0.6607  0.9748
14131TIP3    H263809   4.150   6.104  15.632 -0.7041 -1.0223 -1.1080
14132TIP3   OH263810   0.224   1.650  14.532 -0.4736 -0.0428  0.0751
14132TIP3    H163811   0.222   1.574  14.474 -0.8315  0.4190 -0.5343
14132TIP3    H263812   0.170   1.625  14.607  1.0675 -1.1405  0.8680
14133TIP3   OH263813   0.784   0.264   2.253 -0.3098  0.2282 -0.1990
14133TIP3    H163814   0.824   0.336   2.204  3.3925 -2.0616 -0.9444
14133TIP3    H263815   0.812   0.278   2.343  0.1832 -0.0915 -0.2975
14134TIP3   OH263816   1.655   6.155   5.333 -0.4463  0.1544 -0.4353
14134TIP3    H163817   1.615   6.094   5.271  0.2297 -1.7221  0.8709
14134TIP3    H263818   1.584   6.178   5.393 -0.0609 -1.9489  0.9523
14135TIP3   OH263819   2.083   4.148  11.323 -0.5174 -0.4601  0.0133
14135TIP3    H163820   2.133   4.229  11.332 -1.4753  0.2642 -0.8553
14135TIP3    H263821   2.025   4.165  11.249 -1.5272 -1.5341  0.5333
14136TIP3   OH263822   0.250   4.441  15.511 -0.6197 -0.8244 -0.0705
14136TIP3    H163823   0.242   4.530  15.545 -0.0960 -0.6601 -0.3733
14136TIP3    H263824   0.258   4.453  15.416 -0.5035 -1.1937 -0.1076
14137TIP3   OH263825   6.029   2.762   2.777  0.2074 -0.4475  0.7500
14137TIP3    H163826   6.042   2.736   2.686  0.4151 -0.1767  0.7022
14137TIP3    H263827   6.019   2.679   2.824 -0.8253 -0.5746  0.3440
14138TIP3   OH263828   3.120   3.749   4.537 -0.5444 -0.0944 -0.3078
14138TIP3    H163829   3.045   3.789   4.493 -0.2013 -0.6522 -1.4516
14138TIP3    H263830   3.081   3.689   4.601 -1.1079 -1.0531 -1.5076
14139TIP3   OH263831   6.061   6.442   4.047  0.2159  0.3533  0.5509
14139TIP3    H163832   6.068   6.529   4.086  0.4149  0.2115  0.8383
14139TIP3    H263833   6.146   6.401   4.064 -0.5913 -0.7114  2.4339
14140TIP3   OH263834   1.741   1.281   0.111  0.3067  0.1744 -0.0540
14140TIP3    H163835   1.816   1.340   0.104 -0.0993  0.5346 -1.9298
14140TIP3    H263836   1.691   1.314   0.186  0.7524  1.4178 -0.2879
14141TIP3   OH263837   4.006   0.316  10.741 -0.4124 -0.0224 -0.0163
14141TIP3    H163838   4.012   0.342  10.833  1.6737  1.7154 -0.5534
14141TIP3    H263839   4.096   0.317  10.710 -1.2309  1.8940 -2.6999
14142TIP3   OH263840   3.527   1.771   3.068  0.2867 -0.3227 -0.2939
14142TIP3    H163841   3.621   1.786   3.082 -0.1063  1.3556  0.7348
14142TIP3    H263842   3.521   1.747   2.975  1.6308  0.5636 -0.6517
14143TIP3   OH263843   2.593   3.786  16.431 -0.0377 -0.2870 -0.3636
14143TIP3    H163844   2.521   3.813  16.375 -0.2602  0.0663  0.0868
14143TIP3    H263845   2.575   3.694  16.451  0.3158 -0.5696 -1.2781
14144TIP3   OH263846   3.192   6.206   0.149 -0.4608  0.1903  0.2849
14144TIP3    H163847   3.183   6.228   0.241 -0.8649  0.4068  0.1958
14144TIP3    H263848   3.283   6.177   0.140  0.0365  1.6235  0.4476
14145TIP3   OH263849   6.270   4.964  12.349 -0.1750 -0.0389 -0.1958
14145TIP3    H163850   6.284   4.889  12.407 -0.7271  0.6125  0.8192
14145TIP3    H263851   6.357   4.998  12.331 -0.0358  0.3558  1.1058
14146TIP3   OH263852   3.820   0.335   3.813 -0.0672 -0.2737  0.3453
14146TIP3    H163853   3.898   0.334   3.757 -0.1606 -2.6492  0.1464
14146TIP3    H263854   3.845   0.280   3.887 -1.3251 -0.4604  0.6375
14147TIP3   OH263855   5.808   3.188  13.734  0.2531  0.3147  0.1431
14147TIP3    H163856   5.825   3.280  13.755  0.0785  0.2062  0.7833
14147TIP3    H263857   5.888   3.158  13.691  1.2657  0.1284  2.0641
14148TIP3   OH263858   3.000   0.624   2.308 -0.3829 -0.1911 -0.2348
14148TIP3    H163859   3.011   0.676   2.388 -1.6445  0.1304 -0.2479
14148TIP3    H263860   2.918   0.655   2.270 -0.9705 -1.8825 -0.4662
14149TIP3   OH263861   6.602   3.158  12.128  0.3278  0.7391 -0.0619
14149TIP3    H163862   6.530   3.169  12.066  0.6545  2.0669 -0.2462
14149TIP3    H263863   6.633   3.069  12.114 -0.1366  0.7473 -1.2475
14150TIP3   OH263864   2.899   0.724   1.631 -0.3252  0.0397 -0.0422
14150TIP3    H163865   2.844   0.655   1.593 -1.8637  1.6875 -0.9643
14150TIP3    H263866   2.852   0.805   1.612  2.7501  1.6441 -1.4590
14151TIP3   OH263867   6.795   2.473  11.309 -0.1633  0.1424 -0.4317
14151TIP3    H163868   6.816   2.389  11.350  1.5876  0.7432  0.0191
14151TIP3    H263869   6.749   2.450  11.228  0.4048 -1.2514 -0.3888
14152TIP3   OH263870   4.785   5.311   3.508  0.0379  0.1118  0.2509
14152TIP3    H163871   4.740   5.388   3.474  1.2174  1.4205  1.5172
14152TIP3    H263872   4.877   5.326   3.488  0.3457 -0.7134  0.9760
14153TIP3   OH263873   4.091   0.542   3.054 -0.3941 -0.6310  0.0912
14153TIP3    H163874   4.030   0.611   3.028  2.0463  1.6307 -0.0908
14153TIP3    H263875   4.158   0.543   2.985  0.7807 -1.7478  1.1618
14154TIP3   OH263876   1.861   2.487  15.647 -0.0976 -0.3233 -0.3503
14154TIP3    H163877   1.881   2.394  15.639  0.7891  0.0363 -4.5146
14154TIP3    H263878   1.939   2.531  15.612 -1.1138  1.9076  0.0597
14155TIP3   OH263879   5.733   1.863   0.501 -0.0789  0.0684  0.4603
14155TIP3    H163880   5.762   1.946   0.540  2.0237 -1.5186  2.5841
14155TIP3    H263881   5.802   1.840   0.440 -0.6790 -0.1292 -0.1566
14156TIP3   OH263882   3.681   4.880  11.550 -0.8123  0.3424  0.6148
14156TIP3    H163883   3.675   4.789  11.519  0.4801  0.9522 -1.6300
14156TIP3    H263884   3.644   4.877  11.638  1.4440 -2.8872  1.6762
14157TIP3   OH263885   2.862   1.762   1.844  0.1723  0.0038  0.5963
14157TIP3    H163886   2.768   1.749   1.828  0.1309  1.5147 -0.5636
14157TIP3    H263887   2.871   1.753   1.939 -0.9794 -1.0514  0.6326
14158TIP3   OH263888   6.107   2.230   5.129 -0.7638 -0.1032 -0.1934
14158TIP3    H163889   6.076   2.293   5.065  1.1451  1.2577  0.1224
14158TIP3    H263890   6.184   2.271   5.168 -0.0067 -2.2265  0.7373
14159TIP3   OH263891   0.966   4.808  16.429 -0.7530 -0.3265 -0.2231
14159TIP3    H163892   1.034   4.783  16.492 -0.0285 -1.2669 -1.3318
14159TIP3    H263893   1.014   4.854  16.359 -1.5229  0.5911 -0.1727
14160TIP3   OH263894   2.742   1.566  16.932  0.1061  0.0513 -0.0187
14160TIP3    H163895   2.740   1.632  16.863  1.0285 -0.2266 -0.3121
14160TIP3    H263896   2.730   1.483  16.887 -1.3132  0.0043  0.3755
14161TIP3   OH263897   3.489   0.297  10.959 -0.0582 -0.1079 -0.0872
14161TIP3    H163898   3.526   0.385  10.953  0.5567 -0.4450 -2.6407
14161TIP3    H263899   3.554   0.241  10.916 -1.3297 -1.4860 -0.3100
14162TIP3   OH263900   0.114   0.528  12.777  0.5093  0.2137  0.1255
14162TIP3    H163901   0.125   0.481  12.694  1.0754  1.4573 -0.5372
14162TIP3    H263902   0.133   0.463  12.845 -1.8213 -1.3618 -0.6212
14163TIP3   OH263903   2.726   0.419  11.651 -0.0474 -0.2587 -0.3788
14163TIP3    H163904   2.632   0.410  11.636 -0.1090 -0.0363 -0.1434
14163TIP3    H263905   2.734   0.422  11.747  0.0841  0.9021 -0.4213
14164TIP3   OH263906   0.947   0.849   4.661  0.2534  0.1256 -0.1132
14164TIP3    H163907   0.973   0.840   4.569 -1.5880 -0.6054 -0.6197
14164TIP3    H263908   0.880   0.918   4.660 -1.3300 -1.3237  0.2801
14165TIP3   OH263909   6.418   5.329   3.597  0.5086  0.1974 -0.6640
14165TIP3    H163910   6.436   5.396   3.662  1.8491  0.8094 -1.6151
14165TIP3    H263911   6.394   5.251   3.648  0.2740  1.0071  0.4908
14166TIP3   OH263912   5.458   2.946  12.465  0.4171  0.4825 -0.2927
14166TIP3    H163913   5.536   2.950  12.410  0.9011 -0.7940  0.2495
14166TIP3    H263914   5.426   2.856  12.453 -1.2179  1.1017 -0.8297
14167TIP3   OH263915   4.776   6.050  13.204 -0.0966 -0.0499  0.3335
14167TIP3    H163916   4.857   5.999  13.191  0.2696  0.5288  0.2952
14167TIP3    H263917   4.743   6.021  13.288  1.0885  0.9334  1.1788
14168TIP3   OH263918   2.673   5.962  12.668 -0.2703 -0.1476  0.3066
14168TIP3    H163919   2.741   5.905  12.706 -1.3629 -1.4336  0.4044
14168TIP3    H263920   2.667   6.036  12.729  0.5304 -0.3796  0.6844
14169TIP3   OH263921   6.309   6.038  14.648  1.2535 -0.1028 -0.3345
14169TIP3    H163922   6.243   6.103  14.671 -1.8673 -1.9699 -3.0978
14169TIP3    H263923   6.393   6.083  14.662 -0.5015  2.5589  2.9649
14170TIP3   OH263924   5.752   2.604   1.433  0.0942 -0.4431 -0.1951
14170TIP3    H163925   5.694   2.589   1.357  0.8031  1.3047 -1.1479
14170TIP3    H263926   5.696   2.649   1.496  0.2020  0.5971 -0.8232
14171TIP3   OH263927   3.390   1.668   2.511  0.4237  0.0403  0.3783
14171TIP3    H163928   3.447   1.648   2.585 -0.0468  0.1871  0.7832
14171TIP3    H263929   3.321   1.603   2.515 -0.3558  0.8791  0.8817
14172TIP3   OH263930   3.606   0.671  15.628  0.2081 -0.0101  0.0822
14172TIP3    H163931   3.525   0.641  15.670  1.0084 -1.3032  0.7662
14172TIP3    H263932   3.652   0.591  15.605  0.6663  0.6868 -1.6311
14173TIP3   OH263933   2.170   5.539  15.864 -0.3896  0.2895 -0.3105
14173TIP3    H163934   2.084   5.512  15.834 -1.2043  1.6578  0.7017
14173TIP3    H263935   2.196   5.609  15.805  0.4132 -0.6567 -1.1138
14174TIP3   OH263936   6.344   4.531  15.122  0.2386  0.0934 -0.5680
14174TIP3    H163937   6.325   4.442  15.092 -1.0035  0.0004  0.4381
14174TIP3    H263938   6.297   4.588  15.061  1.9916  0.1678 -1.9485
14175TIP3   OH263939   4.230   6.786   5.647 -0.4178  0.3994  0.4792
14175TIP3    H163940   4.190   6.873   5.653 -1.4859  0.0506 -0.9408
14175TIP3    H263941   4.192   6.749   5.567  0.0735 -1.3434  1.0289
14176TIP3   OH263942   1.577   3.509   5.649 -0.1703  0.0339  0.2117
14176TIP3    H163943   1.573   3.459   5.731  0.1288 -1.4651 -0.6650
14176TIP3    H263944   1.535   3.453   5.584  2.8553 -0.5070 -1.4605
14177TIP3   OH263945   0.012   1.736  15.149  0.4186  0.1063 -0.0771
14177TIP3    H163946   0.047   1.776  15.229 -0.1365  0.3345  0.0589
14177TIP3    H263947   0.010   1.808  15.086 -1.1117  0.4628  0.3339
14178TIP3   OH263948   4.267   5.717  11.169  0.8451 -0.1836 -0.4986
14178TIP3    H163949   4.287   5.809  11.155 -0.1343 -0.0804 -1.2953
14178TIP3    H263950   4.189   5.700  11.116 -1.2148 -0.5909  2.4653
14179TIP3   OH263951   3.997   3.645  16.826 -0.4821 -1.1376  0.0517
14179TIP3    H163952   3.984   3.571  16.767 -1.1344 -1.2070  0.2791
14179TIP3    H263953   3.912   3.657  16.869 -1.0774  1.1471 -1.5950
14180TIP3   OH263954   2.168   4.890   2.989 -0.3559  0.2104  0.1468
14180TIP3    H163955   2.177   4.893   2.893 -0.6785 -0.8298  0.0723
14180TIP3    H263956   2.098   4.827   3.005  1.2051 -1.3713  1.1233
14181TIP3   OH263957   2.408   1.718  12.269  0.0651 -0.0364 -0.3603
14181TIP3    H163958   2.340   1.651  12.273 -1.4592  1.4812  2.1334
14181TIP3    H263959   2.459   1.697  12.191 -1.5845 -2.8447 -0.7948
14182TIP3   OH263960   3.071   3.917   5.159  0.0802  0.6162 -0.3151
14182TIP3    H163961   3.149   3.890   5.111  0.4416  0.2276  0.4825
14182TIP3    H263962   3.042   3.838   5.204  0.5605  1.2906  1.2314
14183TIP3   OH263963   2.105   3.000  12.906  0.0965 -0.7302  0.1429
14183TIP3    H163964   2.013   2.979  12.892 -0.2180  0.6396 -0.0573
14183TIP3    H263965   2.106   3.095  12.919  1.5116 -0.6815 -0.1028
14184TIP3   OH263966   5.308   1.576   5.689  0.8507  0.4320 -0.2028
14184TIP3    H163967   5.383   1.578   5.748  0.1864  0.5946  0.6558
14184TIP3    H263968   5.253   1.505   5.722  0.1950  0.8975 -0.2676
14185TIP3   OH263969   0.533   3.334   1.191 -0.3216  0.0898  0.2158
14185TIP3    H163970   0.444   3.309   1.215  0.1272 -0.1463  1.7234
14185TIP3    H263971   0.532   3.430   1.191 -0.4410  0.0906  0.7597
14186TIP3   OH263972   0.133   5.023   4.413  0.3926 -0.0693 -0.0039
14186TIP3    H163973   0.115   4.933   4.389 -2.3931  0.3972  0.0087
14186TIP3    H263974   0.134   5.022   4.509 -3.4358  0.3973  0.1795
14187TIP3   OH263975   3.265   2.719  16.283  0.0941  0.6422  0.0914
14187TIP3    H163976   3.241   2.658  16.213 -0.3896 -0.0152  0.8156
14187TIP3    H263977   3.226   2.802  16.257  0.1001  0.4568 -0.5211
14188TIP3   OH263978   3.241   4.144   1.876 -0.1844  0.7998  0.3018
14188TIP3    H163979   3.312   4.081   1.886  1.3795  2.0925 -1.8126
14188TIP3    H263980   3.166   4.092   1.847  0.2632 -0.4027  1.2125
14189TIP3   OH263981   4.952   1.247   2.926 -0.4146  0.1001 -0.0486
14189TIP3    H163982   4.962   1.315   2.860 -0.7241 -0.9747 -1.2292
14189TIP3    H263983   5.035   1.200   2.925 -0.1650  0.4884  0.8328
14190TIP3   OH263984   5.473   5.880  10.144  0.6823  0.4877  0.4414
14190TIP3    H163985   5.486   5.860  10.237  0.5991 -2.2215 -0.0677
14190TIP3    H263986   5.561   5.888  10.108  0.9338 -2.8903 -0.0268
14191TIP3   OH263987   3.928   4.690   2.313  0.0691  0.1580  0.4237
14191TIP3    H163988   3.941   4.714   2.405 -0.1688 -0.3770  0.6008
14191TIP3    H263989   3.888   4.767   2.273 -0.5820  0.1047  0.9607
14192TIP3   OH263990   5.429   4.815  17.155  0.5018  0.3080 -0.3585
14192TIP3    H163991   5.384   4.891  17.194  1.1237  0.6522 -0.3038
14192TIP3    H263992   5.430   4.750  17.225 -1.4308 -0.3524 -0.8930
14193TIP3   OH263993   0.034   5.431  12.591 -0.1404 -0.0770 -0.4830
14193TIP3    H163994  -0.000   5.515  12.561  0.7441  0.3354 -0.3726
14193TIP3    H263995  -0.029   5.401  12.656  0.2996  1.2413  0.5996
14194TIP3   OH263996   6.125   5.754  15.278 -0.3373  0.4614  0.4506
14194TIP3    H163997   6.148   5.842  15.246 -0.6643 -0.2840 -2.0868
14194TIP3    H263998   6.144   5.697  15.204 -1.9595 -1.3666  1.3640
14195TIP3   OH263999   0.380   5.754   3.599 -0.2092 -0.0269 -0.0063
14195TIP3    H164000   0.289   5.771   3.577 -0.4544 -1.4141 -0.1196
14195TIP3    H264001   0.383   5.758   3.695 -0.1804  0.9480 -0.0369
14196TIP3   OH264002   2.794   0.003   1.171  0.3698 -0.3974 -0.2896
14196TIP3    H164003   2.729  -0.045   1.121 -0.6962 -0.0549  0.7205
14196TIP3    H264004   2.780   0.095   1.148 -0.0003 -0.2563  0.4680
14197TIP3   OH264005   1.046   5.162  12.283  0.4990  0.1441 -0.0312
14197TIP3    H164006   1.087   5.245  12.304  0.4202  0.2772 -0.4017
14197TIP3    H264007   0.984   5.182  12.213  1.5582 -0.4815 -1.1937
14198TIP3   OH264008   6.560   1.702  13.004  0.2012  0.2222  0.0540
14198TIP3    H164009   6.499   1.764  13.044  0.7448  1.2574 -0.6678
14198TIP3    H264010   6.614   1.756  12.947  0.6072 -0.9533 -0.7002
14199TIP3   OH264011   4.321   3.466  16.202  0.1695  0.7647 -0.2474
14199TIP3    H164012   4.338   3.488  16.110  2.4157 -2.0568 -0.6514
14199TIP3    H264013   4.266   3.387  16.198  2.0571 -0.6756  0.6829
14200TIP3   OH264014   2.354   2.825   1.116 -0.0519  0.2587 -0.3377
14200TIP3    H164015   2.373   2.734   1.093 -0.9192 -0.0530  0.1544
14200TIP3    H264016   2.430   2.853   1.167 -1.2695 -1.3033  2.4988
14201TIP3   OH264017   4.930   0.160  11.607 -0.3183  0.5167 -0.1966
14201TIP3    H164018   4.874   0.102  11.659 -1.1573  0.0595 -1.5439
14201TIP3    H264019   4.930   0.242  11.655 -0.5010 -0.0858  0.8705
14202TIP3   OH264020   6.146   4.561  14.385  0.4427 -0.8688 -0.0146
14202TIP3    H164021   6.126   4.645  14.343  1.4027 -0.9436 -0.6652
14202TIP3    H264022   6.199   4.585  14.461 -1.7265 -0.6945  1.5104
14203TIP3   OH264023   1.040   1.287  14.133 -0.1339  0.4935 -0.1892
14203TIP3    H164024   1.102   1.360  14.136 -0.2589  0.5687  0.9882
14203TIP3    H264025   0.990   1.301  14.052  0.0727  1.5086 -0.1517
14204TIP3   OH264026   4.064   5.108  11.251 -0.1653 -0.1442 -0.0346
14204TIP3    H164027   4.089   5.198  11.272 -0.5286  0.4440 -1.9206
14204TIP3    H264028   3.968   5.107  11.257 -0.2402 -0.0981 -1.0613
14205TIP3   OH264029   6.548   6.186   1.181  0.4525  0.0467 -0.2031
14205TIP3    H164030   6.533   6.252   1.114 -1.5014 -0.7509 -0.6156
14205TIP3    H264031   6.545   6.235   1.264 -1.3234  0.4906 -0.4792
14206TIP3   OH264032   3.352   3.907  15.435  0.3470 -0.7161 -0.2482
14206TIP3    H164033   3.438   3.877  15.467  1.0523  0.1258 -1.2588
14206TIP3    H264034   3.289   3.846  15.474  1.2665 -0.5813  1.5785
14207TIP3   OH264035   2.436   5.892   3.029  0.1335  0.2817 -0.1698
14207TIP3    H164036   2.343   5.873   3.015  0.2444 -1.1899  0.7984
14207TIP3    H264037   2.444   5.986   3.014 -1.7378  0.6481  0.8080
14208TIP3   OH264038   4.228   5.893   2.441  0.6612  0.1377  0.3179
14208TIP3    H164039   4.170   5.816   2.439  1.9547 -0.8662  0.2605
14208TIP3    H264040   4.212   5.933   2.527 -0.0208 -0.1930  0.3535
14209TIP3   OH264041   6.623   1.186  13.514 -0.2126 -0.6507 -0.1163
14209TIP3    H164042   6.692   1.188  13.581 -0.2359  0.5050 -0.1091
14209TIP3    H264043   6.574   1.106  13.532 -0.4837 -0.1499  1.5223
14210TIP3   OH264044   0.978   4.810  12.859 -0.0280  0.1738 -0.2055
14210TIP3    H164045   0.951   4.854  12.778 -2.1820  0.5195  0.6160
14210TIP3    H264046   0.986   4.881  12.923  1.8466 -0.0707 -0.1254
14211TIP3   OH264047   3.878   6.083   4.543 -0.1979 -0.0881 -0.3099
14211TIP3    H164048   3.924   6.016   4.593 -1.4297 -0.7771 -0.0692
14211TIP3    H264049   3.882   6.162   4.598  0.7554 -0.1092 -0.3402
14212TIP3   OH264050   5.758   2.945   2.587  0.1464 -0.5870 -0.1925
14212TIP3    H164051   5.823   2.954   2.656  1.1872  0.0002 -1.2204
14212TIP3    H264052   5.782   2.865   2.541  0.8363  0.2141 -1.2616
14213TIP3   OH264053   6.467   3.582   2.300  0.1628 -0.5580  0.0540
14213TIP3    H164054   6.441   3.603   2.210 -0.3636  0.7840  0.4909
14213TIP3    H264055   6.550   3.629   2.313 -0.3525  0.2320  0.6211
14214TIP3   OH264056   5.889   2.917  15.119 -0.1840 -0.1610  0.8539
14214TIP3    H164057   5.886   2.922  15.024 -0.6645  0.1332  0.8797
14214TIP3    H264058   5.978   2.888  15.139 -0.3459 -1.1063  0.2836
14215TIP3   OH264059   3.347   6.171   0.397 -0.5905  0.8820 -0.2573
14215TIP3    H164060   3.437   6.153   0.425 -0.8817  0.7105  0.6281
14215TIP3    H264061   3.343   6.266   0.388 -0.6068  0.9981  0.8116
14216TIP3   OH264062   6.346   6.277  12.352 -0.4109 -0.9162  0.5215
14216TIP3    H164063   6.323   6.360  12.311  0.5832  0.2846  2.2266
14216TIP3    H264064   6.427   6.250  12.309  1.4625  1.0997  2.4803
14217TIP3   OH264065   5.864   6.168  13.225 -0.4007 -0.7557  0.0424
14217TIP3    H164066   5.845   6.084  13.266  0.2654 -1.6892 -1.4777
14217TIP3    H264067   5.872   6.148  13.132  1.0605  0.7590 -0.2012
14218TIP3   OH264068   0.921   6.607   4.760  0.2510  0.2155 -0.1617
14218TIP3    H164069   0.931   6.577   4.850 -0.4517  0.8249  0.1319
14218TIP3    H264070   0.835   6.574   4.733  0.5302 -0.1028 -0.6633
14219TIP3   OH264071   6.443   1.618   5.559 -0.3072 -0.4781  0.5724
14219TIP3    H164072   6.414   1.591   5.646 -2.9579 -0.1929 -0.1190
14219TIP3    H264073   6.534   1.644   5.571  0.5763 -3.7711  2.5097
14220TIP3   OH264074   1.449   2.630  12.125  0.5693  0.2201  0.3658
14220TIP3    H164075   1.438   2.535  12.120 -1.6116  0.4987 -1.7027
14220TIP3    H264076   1.535   2.647  12.087  0.4990 -0.8469 -0.3042
14221TIP3   OH264077   4.631   1.587  14.401  0.4863 -0.0026  0.0537
14221TIP3    H164078   4.682   1.602  14.322 -0.0508 -0.2106 -0.3390
14221TIP3    H264079   4.676   1.638  14.469 -0.2361  1.9686 -0.8462
14222TIP3   OH264080   5.094   6.745   5.061  0.2407 -0.0857  0.0070
14222TIP3    H164081   5.092   6.725   5.155 -0.8900  1.0252  0.2520
14222TIP3    H264082   5.137   6.670   5.021 -0.9178 -1.4511  1.2162
14223TIP3   OH264083   4.966   3.055   1.385 -0.4135 -0.0865 -0.1968
14223TIP3    H164084   4.993   3.031   1.296 -1.4313  0.1902 -0.5866
14223TIP3    H264085   4.970   3.151   1.386 -1.0124 -0.0617 -0.1405
14224TIP3   OH264086   5.562   6.229   3.253 -0.2763 -0.2556  0.2075
14224TIP3    H164087   5.591   6.222   3.344 -1.8547 -0.9390  0.6798
14224TIP3    H264088   5.501   6.156   3.241 -1.5700  0.9342 -0.8238
14225TIP3   OH264089   4.901   2.239   2.000  0.3549 -0.2128  0.2029
14225TIP3    H164090   4.922   2.280   1.916  0.7902  0.0736  0.4543
14225TIP3    H264091   4.942   2.294   2.066  0.5532 -0.7883  0.5717
14226TIP3   OH264092   3.704   3.263  12.094 -0.0239 -0.0641  0.4099
14226TIP3    H164093   3.618   3.245  12.054  0.5107 -1.9436  0.0172
14226TIP3    H264094   3.764   3.267  12.021  0.2457  1.4277  0.6737
14227TIP3   OH264095   1.455   2.876   2.010 -0.1588  0.6448 -0.2996
14227TIP3    H164096   1.414   2.935   2.073 -1.5733  0.1125 -0.6950
14227TIP3    H264097   1.427   2.788   2.037  0.4164  0.2963 -0.8133
14228TIP3   OH264098   3.426   6.449  16.053  0.6226 -0.0659  0.2478
14228TIP3    H164099   3.484   6.482  15.984 -1.2587  0.5404 -1.1159
14228TIP3    H264100   3.344   6.495  16.039 -0.0147 -0.4150  2.5374
14229TIP3   OH264101   1.939   0.727  12.529  0.0066 -0.1908 -0.2402
14229TIP3    H164102   1.917   0.777  12.608 -0.9146 -0.0701 -0.5576
14229TIP3    H264103   1.908   0.638  12.547  0.2783 -0.2918 -0.2623
14230TIP3   OH264104   4.979   2.471  11.125 -0.1732  0.0446 -0.1348
14230TIP3    H164105   4.886   2.453  11.112 -0.4171  0.5426  0.8198
14230TIP3    H264106   4.985   2.500  11.216  1.2003 -1.9154  0.4787
14231TIP3   OH264107   2.871   4.756  14.512  0.3091 -0.1088  0.1080
14231TIP3    H164108   2.859   4.663  14.532  0.4326  0.0749  1.0752
14231TIP3    H264109   2.833   4.767  14.424  1.2057 -1.2672 -0.4393
14232TIP3   OH264110   4.931   1.587  13.385  0.5605 -0.7157  1.1795
14232TIP3    H164111   4.848   1.634  13.385  1.1334  0.4295 -0.6764
14232TIP3    H264112   4.918   1.515  13.324  1.3341  0.4138 -0.4204
14233TIP3   OH264113   1.788   1.680  12.571 -0.3023 -0.4653 -1.0871
14233TIP3    H164114   1.788   1.593  12.612 -0.3249 -0.3705 -0.8820
14233TIP3    H264115   1.860   1.677  12.508  1.2262  0.1063  0.5295
14234TIP3   OH264116   0.147   2.507  12.603  0.2875 -0.4048 -0.5234
14234TIP3    H164117   0.167   2.599  12.618  0.3019 -0.3473 -0.8997
14234TIP3    H264118   0.172   2.464  12.685 -0.9833  0.1114  0.1788
14235TIP3   OH264119   3.027   0.786   3.264 -0.4809 -0.4242 -0.5283
14235TIP3    H164120   3.104   0.739   3.232 -0.0012 -0.3909  0.5498
14235TIP3    H264121   2.966   0.786   3.190 -0.4463 -2.6240 -0.6083
14236TIP3   OH264122   3.627   3.049   5.152 -0.1319  0.8650  0.0660
14236TIP3    H164123   3.673   2.969   5.179  2.0856  2.3575  1.0565
14236TIP3    H264124   3.563   3.064   5.222 -1.0281 -0.3417 -0.4562
14237TIP3   OH264125   4.448   2.883  13.452 -0.4731  0.2831  0.2472
14237TIP3    H164126   4.511   2.900  13.522 -0.3327 -0.3176  0.2715
14237TIP3    H264127   4.409   2.968  13.434  0.3630  0.6776  0.2232
14238TIP3   OH264128   1.264   4.626   2.506 -0.1165  0.3037  1.3614
14238TIP3    H164129   1.214   4.704   2.481  0.4551  0.2299 -0.1432
14238TIP3    H264130   1.236   4.607   2.595 -2.3224  0.6102  0.7997
14239TIP3   OH264131   0.772   6.332  14.240 -0.3431  0.5694 -0.3487
14239TIP3    H164132   0.682   6.348  14.212 -0.5063 -0.2952 -0.3517
14239TIP3    H264133   0.818   6.308  14.159 -0.3818 -0.0994 -0.1795
14240TIP3   OH264134   0.175   4.405  11.358 -0.1097  0.1076 -0.1991
14240TIP3    H164135   0.211   4.375  11.442  0.2000 -1.0085 -0.7062
14240TIP3    H264136   0.169   4.325  11.305 -2.3370  0.4367 -0.5203
14241TIP3   OH264137   0.028   0.784   4.122  0.2225 -0.4166  0.0193
14241TIP3    H164138  -0.066   0.771   4.108 -0.1001 -1.7303  2.7469
14241TIP3    H264139   0.037   0.879   4.131 -1.1769 -0.3544  1.3164
14242TIP3   OH264140   4.679   3.672  10.447  0.3606 -0.4254 -0.1308
14242TIP3    H164141   4.707   3.759  10.420  0.7444  0.2121  2.0970
14242TIP3    H264142   4.590   3.685  10.481  0.5421 -0.8329  0.5211
14243TIP3   OH264143   4.772   3.356   4.295  0.4221  0.2253  0.3421
14243TIP3    H164144   4.791   3.328   4.384  0.5025 -1.5324 -0.1968
14243TIP3    H264145   4.677   3.369   4.294  0.4517  0.4950  0.7362
14244TIP3   OH264146   0.292   1.338  12.079  0.1649 -0.2246 -0.1973
14244TIP3    H164147   0.383   1.310  12.072 -0.1066 -1.3728  0.6452
14244TIP3    H264148   0.241   1.259  12.063 -0.6686  0.1915  0.3017
14245TIP3   OH264149   2.603   2.087   1.033  0.3179  0.0423  0.2213
14245TIP3    H164150   2.621   2.175   1.065 -0.1253 -0.0184  0.6444
14245TIP3    H264151   2.510   2.087   1.011  0.1985 -0.4596  0.6985
14246TIP3   OH264152   1.954   3.628  13.203 -0.2017 -0.2076 -0.1782
14246TIP3    H164153   1.941   3.542  13.243  0.2710 -1.2105 -2.0599
14246TIP3    H264154   2.040   3.622  13.162  0.5832  1.7758  1.0385
14247TIP3   OH264155   3.132   1.706   5.190 -0.2942 -0.3313  0.3330
14247TIP3    H164156   3.163   1.746   5.271  0.9349 -0.1319 -0.2140
14247TIP3    H264157   3.177   1.755   5.120 -0.3768 -1.2937 -0.4148
14248TIP3   OH264158   5.823   2.464  10.794  0.5469 -0.2001 -0.0334
14248TIP3    H164159   5.823   2.529  10.723  1.5289  1.1344  1.1238
14248TIP3    H264160   5.876   2.392  10.761  2.2783  1.0604 -0.1538
14249TIP3   OH264161   2.604   0.170   1.851  0.3683  0.1209 -0.2651
14249TIP3    H164162   2.644   0.213   1.926  1.3540 -0.7424 -0.2748
14249TIP3    H264163   2.607   0.236   1.781  0.9308  0.3797 -0.0005
14250TIP3   OH264164   5.938   2.607  17.177  0.4406  0.2287  0.1386
14250TIP3    H164165   5.915   2.543  17.110  0.6660  0.0545  0.2275
14250TIP3    H264166   5.864   2.606  17.238 -0.0037  0.7578 -0.3746
14251TIP3   OH264167   5.879   5.891   2.771  0.2023 -0.0033  0.1206
14251TIP3    H164168   5.846   5.899   2.860  0.9651 -0.3377  0.4441
14251TIP3    H264169   5.879   5.797   2.753 -0.7397  0.1109 -0.5484
14252TIP3   OH264170   1.049   1.108  11.712 -0.4110  0.4101  0.1374
14252TIP3    H164171   1.142   1.118  11.690 -0.3902  0.9695  0.4453
14252TIP3    H264172   1.016   1.044  11.649 -0.3316  1.8825 -1.4982
14253TIP3   OH264173   4.530   4.567   6.713  0.1854 -0.1016  0.0360
14253TIP3    H164174   4.543   4.509   6.638  0.0970 -0.1027  0.0212
14253TIP3    H264175   4.449   4.535   6.754 -0.4113  0.6179 -0.5424
14254TIP3   OH264176   6.223   1.349  15.051  0.0460 -0.0085 -0.2410
14254TIP3    H164177   6.234   1.412  15.123 -0.5992 -1.4117  1.1650
14254TIP3    H264178   6.132   1.359  15.025  0.0828 -0.0110 -0.3693
14255TIP3   OH264179   4.378   0.736  14.119  0.1274  0.0294  0.4320
14255TIP3    H164180   4.369   0.823  14.080  0.1734 -0.2685 -0.2475
14255TIP3    H264181   4.301   0.688  14.090 -0.3901  0.1266  1.5848
14256TIP3   OH264182   3.564   2.554  12.787 -0.0864 -0.1633 -0.4595
14256TIP3    H164183   3.471   2.565  12.806 -0.4501 -0.6544 -1.8476
14256TIP3    H264184   3.581   2.614  12.714  0.0518 -1.9296 -1.9477
14257TIP3   OH264185   6.140   3.642   1.419 -0.0360  0.8485  0.6029
14257TIP3    H164186   6.075   3.712   1.425 -1.3408  0.0619 -2.5557
14257TIP3    H264187   6.217   3.684   1.382  0.4227  1.2473  1.9424
14258TIP3   OH264188   3.923   1.344   3.179  0.3545 -0.4216  0.1477
14258TIP3    H164189   3.902   1.375   3.267  0.5342 -1.5759  0.6166
14258TIP3    H264190   3.846   1.367   3.127  0.7098  1.2994  0.3116
14259TIP3   OH264191   0.846   5.529   3.690 -0.1994  0.1551 -0.0113
14259TIP3    H164192   0.814   5.594   3.628  1.4861  0.1014 -0.9757
14259TIP3    H264193   0.795   5.546   3.770  1.0339  3.5412  0.2112
14260TIP3   OH264194   5.356   0.825  15.106 -0.6836  0.1840  0.1594
14260TIP3    H164195   5.348   0.874  15.024 -0.4940 -0.1066 -0.0326
14260TIP3    H264196   5.444   0.788  15.104 -0.9089 -0.3639  0.1918
14261TIP3   OH264197   2.643   4.613  11.368 -0.1643  0.8121  0.6262
14261TIP3    H164198   2.695   4.665  11.429 -0.0706 -0.0462  1.3043
14261TIP3    H264199   2.560   4.600  11.412 -0.6478  1.4316 -0.0780
14262TIP3   OH264200   6.514   3.918   4.956  0.1748  0.0821  0.4567
14262TIP3    H164201   6.517   3.833   4.999 -0.1461 -0.7947 -1.1527
14262TIP3    H264202   6.602   3.930   4.920  0.4777  0.8620  1.4066
14263TIP3   OH264203   5.914   6.292   2.278 -0.5370 -0.1356 -0.1145
14263TIP3    H164204   5.912   6.289   2.182  1.1889  0.9577 -0.2362
14263TIP3    H264205   6.007   6.298   2.300 -0.9162 -0.0115  1.6209
14264TIP3   OH264206   0.779   6.716   5.186 -0.1084  0.1143 -0.2139
14264TIP3    H164207   0.753   6.663   5.261 -0.1757  0.6385  0.1411
14264TIP3    H264208   0.702   6.715   5.128 -0.8306  1.3717  0.6700
14265TIP3   OH264209   4.052   0.488   2.606 -0.4800 -0.2196  0.5972
14265TIP3    H164210   4.143   0.461   2.594 -0.1964  0.9270 -0.0312
14265TIP3    H264211   4.056   0.584   2.607 -1.5534 -0.1609  1.6287
14266TIP3   OH264212   6.094   3.832  11.890  0.0632 -0.0210 -0.0237
14266TIP3    H164213   6.158   3.823  11.820 -0.6134 -1.6913 -0.4719
14266TIP3    H264214   6.146   3.853  11.968  1.1243 -0.9907 -0.4487
14267TIP3   OH264215   2.466   0.128   1.272 -0.1128  0.7614  0.4156
14267TIP3    H164216   2.463   0.035   1.249 -0.4229  0.2842  2.2748
14267TIP3    H264217   2.473   0.173   1.187  2.3317 -1.0189 -0.4264
14268TIP3   OH264218   6.119   0.041  12.012  0.6813  0.0628  0.4371
14268TIP3    H164219   6.120   0.009  11.922  1.3279 -0.6756  0.7066
14268TIP3    H264220   6.087   0.132  12.004  0.9397  0.0775 -0.5491
14269TIP3   OH264221   5.624   3.752   5.851  0.1372  0.3172  0.5862
14269TIP3    H164222   5.657   3.767   5.763 -0.2648  1.5415  0.6234
14269TIP3    H264223   5.668   3.673   5.880  3.2636  1.9393  0.7126
14270TIP3   OH264224   1.772   2.554   5.345 -0.0161  0.3346 -0.1137
14270TIP3    H164225   1.740   2.501   5.272 -0.6947  0.3162  0.1879
14270TIP3    H264226   1.693   2.575   5.396  0.1213  2.2253 -0.5966
14271TIP3   OH264227   4.441   2.344   1.221 -0.0537 -0.2697 -0.4819
14271TIP3    H164228   4.528   2.309   1.240  0.7651  1.8680  0.0277
14271TIP3    H264229   4.406   2.369   1.306  0.0891  1.5295 -0.8943
14272TIP3   OH264230   4.609   6.210  14.610  0.2219  0.6120  0.1846
14272TIP3    H164231   4.686   6.202  14.667  0.0868 -0.6540  0.2272
14272TIP3    H264232   4.554   6.276  14.652  0.9226  0.9510  0.5829
14273TIP3   OH264233   5.407   0.660   2.926 -0.1486 -0.2559 -0.7350
14273TIP3    H164234   5.356   0.601   2.870 -1.7344 -0.0709  0.4289
14273TIP3    H264235   5.451   0.603   2.988 -1.1199 -0.2941 -0.0550
14274TIP3   OH264236   6.470   0.101  14.104  0.3279 -0.3984  0.4747
14274TIP3    H164237   6.550   0.101  14.158 -0.2166  0.5146  1.3106
14274TIP3    H264238   6.461   0.011  14.075  1.5614 -0.5613  0.5259
14275TIP3   OH264239   6.796   5.387   2.711  0.5850 -0.1524 -0.0156
14275TIP3    H164240   6.873   5.360   2.761  1.8005  1.7649 -0.7029
14275TIP3    H264241   6.757   5.457   2.763  0.9445  0.7652 -0.9238
14276TIP3   OH264242   0.495   5.435  12.109  0.1339 -0.4056 -0.5465
14276TIP3    H164243   0.413   5.386  12.099  1.0171 -1.8065 -1.3600
14276TIP3    H264244   0.520   5.421  12.200  0.9820 -2.5930 -1.0472
14277TIP3   OH264245   4.036   1.849  15.857  0.4334 -0.3441  0.0555
14277TIP3    H164246   3.952   1.816  15.890  0.3661 -0.9519 -0.6867
14277TIP3    H264247   4.056   1.792  15.783 -0.5007  2.2996 -2.4173
14278TIP3   OH264248   1.276   4.299  15.555  0.1501 -0.3714  0.2434
14278TIP3    H164249   1.307   4.271  15.469  1.4714 -0.3107  0.6717
14278TIP3    H264250   1.189   4.260  15.563 -0.2313  0.0903 -1.3328
14279TIP3   OH264251   2.956   1.130   6.263  0.4386 -0.1056  0.7208
14279TIP3    H164252   3.040   1.164   6.233  0.5356 -1.9566 -1.3607
14279TIP3    H264253   2.979   1.069   6.334  0.8689 -0.6701  0.1008
14280TIP3   OH264254   4.968   0.155   4.915  0.2833 -0.3185 -0.7221
14280TIP3    H164255   4.886   0.125   4.874 -0.3546  1.4172 -0.8316
14280TIP3    H264256   4.999   0.080   4.965 -1.6374 -0.8870 -0.3003
14281TIP3   OH264257   0.829   4.392  11.013  0.4620 -0.1865 -0.2546
14281TIP3    H164258   0.868   4.353  10.935 -0.4940 -1.0413 -0.3228
14281TIP3    H264259   0.790   4.474  10.981  1.8008  0.4644 -0.2606
14282TIP3   OH264260   0.123   1.511   6.008  0.9057  0.0454 -0.5782
14282TIP3    H164261   0.130   1.417   6.019  4.0325  0.2786  0.2288
14282TIP3    H264262   0.106   1.545   6.096 -0.5966  0.2755 -0.9200
14283TIP3   OH264263   3.859   2.546   4.949 -0.3919  0.2229 -0.0637
14283TIP3    H164264   3.891   2.573   5.035  3.0008  0.7317 -1.3185
14283TIP3    H264265   3.893   2.457   4.937 -2.1540 -0.4599 -0.3268
14284TIP3   OH264266   4.944   1.010  16.805 -0.8850 -0.0333  0.5114
14284TIP3    H164267   5.020   1.060  16.837  0.4239 -1.4232 -0.2988
14284TIP3    H264268   4.956   1.005  16.710 -1.6358 -0.8409  0.4425
14285TIP3   OH264269   2.495   2.003  11.249 -0.3179 -0.0926 -0.2897
14285TIP3    H164270   2.465   1.969  11.165 -0.8174  0.0099 -0.1526
14285TIP3    H264271   2.542   2.084  11.227 -3.0757  1.6359 -0.2304
14286TIP3   OH264272   5.002   6.087   2.195  0.3060 -0.2252  0.2460
14286TIP3    H164273   4.989   6.111   2.104  0.5424  0.1249  0.3011
14286TIP3    H264274   5.045   6.002   2.192  2.6141  0.8869 -0.0348
14287TIP3   OH264275   1.987   6.367  12.522  0.2181 -0.7871  0.3943
14287TIP3    H164276   2.062   6.420  12.493  0.1968 -0.4334  0.9699
14287TIP3    H264277   2.025   6.300  12.578 -0.0941  0.7682  2.5802
14288TIP3   OH264278   6.270   3.553   1.653 -0.5912  0.3871 -1.2642
14288TIP3    H164279   6.343   3.492   1.666 -0.4785  0.9364  1.3672
14288TIP3    H264280   6.255   3.553   1.559  3.0887  0.5601 -2.0266
14289TIP3   OH264281   5.524   3.046  16.712  0.0178  0.4047  0.0630
14289TIP3    H164282   5.443   3.091  16.686 -0.5675  0.0871  1.3049
14289TIP3    H264283   5.566   3.025  16.629 -1.4678  0.0310 -0.6311
14290TIP3   OH264284   3.013   2.030   1.510 -0.0755 -0.5106 -0.1331
14290TIP3    H164285   3.105   2.010   1.491  0.1472  0.7658 -0.4682
14290TIP3    H264286   2.969   2.022   1.425 -0.4118 -1.7690  0.1450
14291TIP3   OH264287   0.283   2.252  13.913 -0.0543  0.2558  0.3855
14291TIP3    H164288   0.197   2.294  13.924  0.1745  0.7201  0.4552
14291TIP3    H264289   0.344   2.311  13.958  0.3596  0.1413 -0.0189
14292TIP3   OH264290   2.269   1.003  11.304  0.0698  0.1649 -0.5131
14292TIP3    H164291   2.178   0.999  11.332  0.6211  2.5458  2.1083
14292TIP3    H264292   2.280   1.092  11.269  2.0862  1.3717  2.6968
14293TIP3   OH264293   3.828   1.061  14.053 -0.2733 -0.3512  0.0916
14293TIP3    H164294   3.838   1.133  14.116  2.7342 -1.1061  0.6160
14293TIP3    H264295   3.892   0.996  14.081 -0.5986 -1.8180 -2.3205
14294TIP3   OH264296   0.066   2.207  16.959  0.0948 -0.2750  0.3585
14294TIP3    H164297   0.149   2.231  16.919  0.1261 -1.3492 -0.2451
14294TIP3    H264298   0.013   2.287  16.953  1.1326  0.4844  0.9403
14295TIP3   OH264299   5.198   1.147  11.461 -0.2741 -0.1637  0.3899
14295TIP3    H164300   5.241   1.129  11.545 -0.8449 -1.8612  0.3604
14295TIP3    H264301   5.265   1.129  11.395  0.1489  1.0896  0.4515
14296TIP3   OH264302   5.235   4.048   0.423 -0.1140 -0.0853 -0.2809
14296TIP3    H164303   5.171   4.084   0.362  1.3048 -0.2191 -1.9124
14296TIP3    H264304   5.229   3.953   0.412 -2.3264 -0.3982  2.4463
14297TIP3   OH264305   2.896   3.169   3.184  0.1818  0.0810  0.3106
14297TIP3    H164306   2.833   3.135   3.248 -0.9694 -0.6115 -1.1207
14297TIP3    H264307   2.939   3.242   3.229 -2.0965  0.9970  1.1698
14298TIP3   OH264308   3.359   4.708   5.411  0.0055 -0.2910  0.2095
14298TIP3    H164309   3.353   4.626   5.363  1.3577 -0.8082  0.8795
14298TIP3    H264310   3.378   4.774   5.344  0.3903 -0.7680 -0.1574
14299TIP3   OH264311   0.180   0.679  16.264 -0.0723  0.5648 -0.1380
14299TIP3    H164312   0.202   0.611  16.327 -0.7055 -0.5457 -1.0978
14299TIP3    H264313   0.135   0.746  16.316  0.3093  0.1379  0.7590
14300TIP3   OH264314   4.844   6.332   1.010 -0.3357 -0.9518 -0.7101
14300TIP3    H164315   4.902   6.257   1.018  0.4807 -0.2814 -0.2294
14300TIP3    H264316   4.850   6.358   0.918 -0.2562 -1.1875 -0.7710
14301TIP3   OH264317   3.421   1.407   2.902  0.5012  0.0654 -0.6091
14301TIP3    H164318   3.432   1.373   2.813  2.6081 -1.1578  0.0566
14301TIP3    H264319   3.440   1.500   2.894  1.3309 -0.1505 -1.3462
14302TIP3   OH264320   2.333   1.366  14.255  0.1386  0.5849  0.2007
14302TIP3    H164321   2.317   1.276  14.226 -1.4099  1.0905 -0.6615
14302TIP3    H264322   2.426   1.380  14.241  0.4336 -0.9190  0.4729
14303TIP3   OH264323   3.049   0.371   2.205 -0.4944  0.6583  0.2848
14303TIP3    H164324   3.091   0.334   2.283 -0.2458  1.0707  0.3489
14303TIP3    H264325   3.045   0.465   2.222 -0.6768  0.7191 -0.0875
14304TIP3   OH264326   1.714   0.375  12.442 -0.0125  0.0613  0.0139
14304TIP3    H164327   1.799   0.393  12.402  0.0944 -1.0383 -0.2859
14304TIP3    H264328   1.678   0.303  12.390  0.6421 -2.2350  2.5488
14305TIP3   OH264329   2.948   2.349  13.957 -0.2449 -0.3224 -0.4105
14305TIP3    H164330   2.864   2.348  14.001 -1.2677 -2.7050 -2.1940
14305TIP3    H264331   2.932   2.304  13.873  2.8786 -1.2810 -0.6311
14306TIP3   OH264332   3.041   2.610  13.975 -0.4933  0.1140  0.0113
14306TIP3    H164333   3.019   2.517  13.971 -2.1105  0.5006 -1.8168
14306TIP3    H264334   3.078   2.622  14.062 -3.5813 -1.5563  1.7549
14307TIP3   OH264335   5.636   0.004   4.465 -0.2967  0.0821  0.2836
14307TIP3    H164336   5.625   0.031   4.374  0.7269  0.5481  0.2770
14307TIP3    H264337   5.578   0.061   4.515 -0.0908  0.5306  0.0138
14308TIP3   OH264338   5.267   6.555   0.549  0.2540 -0.7635 -0.1867
14308TIP3    H164339   5.240   6.473   0.510 -0.4923 -0.9337  0.6617
14308TIP3    H264340   5.189   6.588   0.594  1.0427 -0.5467  1.0865
14309TIP3   OH264341   4.827   3.198  12.355 -0.4963  0.3566 -0.3649
14309TIP3    H164342   4.906   3.231  12.397 -0.5370 -0.5990  0.5037
14309TIP3    H264343   4.855   3.117  12.312 -1.2460 -0.6949  1.0530
14310TIP3   OH264344   2.937   4.595   1.089  0.2189  0.1210  0.6737
14310TIP3    H164345   2.929   4.513   1.138 -0.1508 -0.1296  0.2016
14310TIP3    H264346   2.855   4.603   1.041  0.6197  0.3093  0.0109
14311TIP3   OH264347   6.090   4.084  15.734  0.1079  0.0272 -0.8370
14311TIP3    H164348   6.067   4.162  15.683  0.5446  0.8514  0.1717
14311TIP3    H264349   6.153   4.116  15.799  1.7174 -1.5463 -1.5484
14312TIP3   OH264350   0.308   6.223   3.424  0.5283 -0.2985 -0.3142
14312TIP3    H164351   0.390   6.272   3.416 -0.1273  1.0633  0.9465
14312TIP3    H264352   0.240   6.287   3.404 -0.2364 -1.7217 -2.6438
14313TIP3   OH264353   5.989   3.084  13.001 -0.2650 -0.0029 -0.0808
14313TIP3    H164354   5.959   2.994  13.013  0.1597 -0.1357  0.0087
14313TIP3    H264355   5.973   3.126  13.085  0.0453 -0.1450  0.0487
14314TIP3   OH264356   3.673   0.993   1.381 -0.1726 -0.0745  0.2289
14314TIP3    H164357   3.739   0.973   1.448  0.5287  2.4561  0.4149
14314TIP3    H264358   3.592   1.007   1.430  0.0389  0.5031  0.4179
14315TIP3   OH264359   0.439   4.381  14.441 -0.1110  0.1412  0.6378
14315TIP3    H164360   0.400   4.300  14.406 -0.1356  0.8982 -1.1683
14315TIP3    H264361   0.505   4.350  14.503 -1.1362 -1.2274  1.1229
14316TIP3   OH264362   3.121   4.481  16.370  0.0825 -0.7322  0.2809
14316TIP3    H164363   3.064   4.452  16.441  0.9395  0.1361  1.3641
14316TIP3    H264364   3.199   4.514  16.414  0.3198  0.5401 -1.0215
14317TIP3   OH264365   1.423   3.514  14.134  0.1430  0.0877  0.4768
14317TIP3    H164366   1.372   3.527  14.214 -2.7321  0.9646 -1.3125
14317TIP3    H264367   1.357   3.508  14.065  2.4957  0.0053 -1.9295
14318TIP3   OH264368   2.328   2.841  13.059 -0.1553 -0.0704  0.4745
14318TIP3    H164369   2.274   2.919  13.050 -1.1380 -0.9246 -1.5977
14318TIP3    H264370   2.324   2.820  13.153 -1.7391  1.0527  0.7028
14319TIP3   OH264371   2.858   3.912  11.786 -0.2967  0.0888 -0.5362
14319TIP3    H164372   2.897   4.000  11.792  0.1363 -0.0740 -0.9068
14319TIP3    H264373   2.892   3.866  11.863  0.8760 -0.2913 -1.2543
14320TIP3   OH264374   5.462   1.619   3.836  0.3677 -0.0589 -0.2975
14320TIP3    H164375   5.444   1.559   3.908 -0.3854  0.7940  0.2484
14320TIP3    H264376   5.556   1.639   3.845  0.5077 -0.7668 -0.1867
14321TIP3   OH264377   5.524   4.183  14.897  0.2526  0.4753 -0.2250
14321TIP3    H164378   5.551   4.116  14.959 -1.8689 -0.5002 -0.2674
14321TIP3    H264379   5.553   4.266  14.936 -2.3588  0.0719  2.9463
14322TIP3   OH264380   5.867   5.626  16.269  0.4017 -0.2252 -0.2293
14322TIP3    H164381   5.907   5.693  16.325  2.5347  0.3757 -2.2857
14322TIP3    H264382   5.896   5.649  16.180 -2.2642 -1.4993 -1.5504
14323TIP3   OH264383   3.614   5.296  16.052 -0.0291  0.2257  0.3899
14323TIP3    H164384   3.532   5.320  16.097 -0.0326 -0.2048  0.6270
14323TIP3    H264385   3.682   5.308  16.119  0.0976  0.5524  0.2021
14324TIP3   OH264386   2.989   2.708  15.019  0.0527  0.5241 -0.1204
14324TIP3    H164387   3.029   2.625  15.041 -2.0855 -0.1853  1.3509
14324TIP3    H264388   2.939   2.690  14.939 -1.7317 -0.1435  1.0682
14325TIP3   OH264389   3.861   4.778   2.903 -0.0027  0.4499 -0.3125
14325TIP3    H164390   3.803   4.745   2.972 -0.0722  0.9858 -0.1095
14325TIP3    H264391   3.804   4.831   2.847 -0.2842 -1.1709 -1.6649
14326TIP3   OH264392   1.694   6.790   6.052 -0.5683 -0.2953 -0.1908
14326TIP3    H164393   1.750   6.730   6.101  1.8444  1.4860 -0.5278
14326TIP3    H264394   1.707   6.765   5.960  0.2575  0.4849 -0.3146
14327TIP3   OH264395   2.402   6.773   5.022  0.1310 -0.1810  0.4121
14327TIP3    H164396   2.425   6.799   4.933  1.7887 -1.2060  0.4929
14327TIP3    H264397   2.334   6.835   5.048 -0.7594 -0.1674 -1.7229
14328TIP3   OH264398   0.687   0.316   6.335  0.2431  0.3992  0.1686
14328TIP3    H164399   0.621   0.264   6.288  0.4888  0.5377 -0.3354
14328TIP3    H264400   0.761   0.256   6.346  0.4003  0.5406 -0.1188
14329TIP3   OH264401   2.613   0.406   2.749 -0.3846  0.1938  0.0104
14329TIP3    H164402   2.570   0.349   2.685 -1.3400  1.5301 -0.5924
14329TIP3    H264403   2.628   0.350   2.825  0.8475 -1.4600 -1.3748
14330TIP3   OH264404   6.081   6.220  15.014 -0.9053 -0.1339 -0.0407
14330TIP3    H164405   6.137   6.297  15.010 -0.1504 -0.5240  1.8397
14330TIP3    H264406   6.081   6.185  14.925 -1.2196  1.9650 -0.9189
14331TIP3   OH264407   2.299   4.808   4.929  0.3918  0.0808  0.6993
14331TIP3    H164408   2.303   4.759   4.846  4.0365  0.4873  0.4626
14331TIP3    H264409   2.313   4.741   4.996  4.4484  0.4167  0.4270
14332TIP3   OH264410   4.305   5.943  13.074  0.3166  0.0625 -0.5939
14332TIP3    H164411   4.230   5.913  13.024 -0.2371 -2.1309  1.4226
14332TIP3    H264412   4.377   5.887  13.046  0.1543 -0.7457  0.5541
14333TIP3   OH264413   3.454   2.822   2.484  0.3993  0.1104 -0.4436
14333TIP3    H164414   3.543   2.791   2.470  0.3220 -0.2655 -0.1289
14333TIP3    H264415   3.436   2.879   2.410  0.9724  0.3423 -0.4083
14334TIP3   OH264416   3.082   1.554   4.780 -0.8087  0.1546  0.0102
14334TIP3    H164417   3.131   1.589   4.706  0.3952  0.3089  0.8433
14334TIP3    H264418   3.004   1.609   4.785 -0.2917  0.9431 -0.3968
14335TIP3   OH264419   6.394   0.293  13.201 -0.4246 -0.2302  0.4141
14335TIP3    H164420   6.453   0.218  13.205  0.3624  0.2804 -1.0206
14335TIP3    H264421   6.329   0.276  13.269 -0.0212 -2.0017  0.3994
14336TIP3   OH264422   5.149   3.835   3.085  0.1507 -0.5471  0.0407
14336TIP3    H164423   5.081   3.875   3.139 -0.5214 -2.5583  0.7761
14336TIP3    H264424   5.231   3.863   3.126 -0.2976 -0.3714  0.8464
14337TIP3   OH264425   6.224   0.692   2.087 -0.6236  0.2890  0.2695
14337TIP3    H164426   6.144   0.738   2.112 -1.1475 -1.0927  1.2945
14337TIP3    H264427   6.215   0.678   1.993 -0.9848  1.2410  0.1517
14338TIP3   OH264428   4.499   3.170  15.708 -0.1749 -0.0775  0.5435
14338TIP3    H164429   4.534   3.082  15.700 -2.0202 -0.8447  0.3852
14338TIP3    H264430   4.576   3.225  15.723  0.8657 -1.9024  2.3907
14339TIP3   OH264431   6.143   0.714   4.204 -0.1527  0.3536  0.0290
14339TIP3    H164432   6.223   0.756   4.171  0.3742  0.2459  1.1360
14339TIP3    H264433   6.168   0.623   4.219  0.3696  0.8821  2.9783
14340TIP3   OH264434   6.627   3.275   0.233 -0.0456  0.1413 -0.4533
14340TIP3    H164435   6.560   3.292   0.299  0.4702 -0.7698  0.3193
14340TIP3    H264436   6.579   3.240   0.158 -0.5749  0.7375 -0.4014
14341TIP3   OH264437   2.349   5.559  16.066  0.2126 -0.8583 -0.1725
14341TIP3    H164438   2.285   5.574  15.997 -0.4676 -0.3036  0.5517
14341TIP3    H264439   2.302   5.505  16.130  0.2789  0.0025  0.6212
14342TIP3   OH264440   0.838   5.062  13.693  0.4140  0.1753 -0.5716
14342TIP3    H164441   0.753   5.103  13.708 -0.0898 -0.9917 -0.1510
14342TIP3    H264442   0.893   5.094  13.765  0.2189  0.5974 -0.6065
14343TIP3   OH264443   0.856   0.557  16.224 -0.5786  0.0852  0.6128
14343TIP3    H164444   0.876   0.650  16.239 -0.5830 -0.0195  1.2749
14343TIP3    H264445   0.919   0.530  16.157 -2.3080  1.2654 -1.6658
14344TIP3   OH264446   5.586   6.709   1.043  0.4000 -0.4357 -0.4490
14344TIP3    H164447   5.639   6.753   1.109  0.7648 -1.1728 -0.2444
14344TIP3    H264448   5.642   6.707   0.965 -0.3271  1.1698 -1.0655
14345TIP3   OH264449   3.271   0.882   6.003 -0.3178  0.2768  0.0789
14345TIP3    H164450   3.246   0.832   6.080  0.7788  0.1267  0.3598
14345TIP3    H264451   3.198   0.942   5.988 -0.3959  0.5577  1.4479
14346TIP3   OH264452   6.147   3.028  13.269  0.4122  0.0806  0.3164
14346TIP3    H164453   6.224   3.021  13.211 -1.6680  0.8708 -2.8096
14346TIP3    H264454   6.110   2.940  13.269 -0.2192  0.3323 -0.5762
14347TIP3   OH264455   3.117   1.626  16.821  0.2476  0.2758  0.1839
14347TIP3    H164456   3.075   1.584  16.896  1.7410 -0.3963  0.6885
14347TIP3    H264457   3.056   1.614  16.748 -1.2509  0.9603  1.2760
14348TIP3   OH264458   3.482   1.056  11.619 -0.0907  0.0584  0.0327
14348TIP3    H164459   3.572   1.086  11.612 -0.5100  1.6177  0.9909
14348TIP3    H264460   3.447   1.066  11.530  1.2103 -2.5553 -0.8812
14349TIP3   OH264461   0.673   0.898   4.421  0.0401 -0.3418  0.0018
14349TIP3    H164462   0.746   0.950   4.388 -0.3313  0.7346  0.8060
14349TIP3    H264463   0.597   0.955   4.411 -0.3055 -0.5155  1.3539
14350TIP3   OH264464   3.387   3.847  11.754 -0.4940  0.4200  0.1048
14350TIP3    H164465   3.445   3.777  11.784  0.4285  0.3463 -1.7559
14350TIP3    H264466   3.402   3.918  11.816 -2.1516 -1.2474  2.6209
14351TIP3   OH264467   4.588   2.403   4.568 -0.2761 -0.1294  0.3296
14351TIP3    H164468   4.647   2.328   4.557  0.9162  0.6354  1.2790
14351TIP3    H264469   4.596   2.451   4.486 -0.0147 -0.3325  0.2322
14352TIP3   OH264470   2.487   1.584  15.048 -0.0060  0.0745  0.4475
14352TIP3    H164471   2.424   1.608  14.980 -0.2305 -1.1637  0.1931
14352TIP3    H264472   2.445   1.610  15.130 -0.3393  0.3376  0.1958
14353TIP3   OH264473   0.586   5.361  16.222 -0.2085 -0.1593  0.5808
14353TIP3    H164474   0.631   5.285  16.258 -0.7003 -1.2785 -1.0819
14353TIP3    H264475   0.589   5.349  16.128 -1.9044  0.9430  0.3347
14354TIP3   OH264476   4.185   0.414   4.557 -0.2728  0.4513  0.1409
14354TIP3    H164477   4.154   0.472   4.626  0.7242 -0.9057  1.7972
14354TIP3    H264478   4.123   0.341   4.557 -0.0042  0.2197 -0.1099
14355TIP3   OH264479   5.250   5.702   1.702 -0.5477  0.1301 -0.3892
14355TIP3    H164480   5.316   5.770   1.687 -1.0184  1.0785  1.4862
14355TIP3    H264481   5.183   5.746   1.755 -1.4786 -1.4775 -0.1899
14356TIP3   OH264482   3.140   1.218  15.563 -0.3904  0.1147 -0.0222
14356TIP3    H164483   3.224   1.208  15.607  0.1851 -0.4675 -1.1915
14356TIP3    H264484   3.100   1.295  15.604  0.0744 -0.4415  1.5193
14357TIP3   OH264485   2.691   6.476   2.747  0.0345 -0.0703  0.0854
14357TIP3    H164486   2.639   6.397   2.733 -0.8276  0.3434  0.8488
14357TIP3    H264487   2.781   6.448   2.735 -0.3209 -0.9138 -0.7817
14358TIP3   OH264488   1.945   1.003   3.791 -0.2989 -0.1021 -1.1904
14358TIP3    H164489   1.912   0.933   3.847 -0.4961  1.0564  0.1952
14358TIP3    H264490   1.910   1.083   3.829  2.9838  1.1151 -0.3775
14359TIP3   OH264491   2.469   5.463  14.434  0.5102 -0.4121 -0.6078
14359TIP3    H164492   2.468   5.559  14.429  0.1968 -0.4373 -1.1243
14359TIP3    H264493   2.535   5.443  14.501 -1.2060  0.2397  1.3847
14360TIP3   OH264494   4.026   5.362   2.469  0.4666 -0.5046 -0.7655
14360TIP3    H164495   3.934   5.338   2.483  1.0591 -2.4917  0.1072
14360TIP3    H264496   4.068   5.345   2.553  1.9767 -1.4390 -1.6629
14361TIP3   OH264497   2.664   2.140  14.405 -0.1934  0.1658 -0.2931
14361TIP3    H164498   2.696   2.050  14.413  1.3442  0.7374  0.2217
14361TIP3    H264499   2.644   2.166  14.495 -0.1137  0.5315 -0.3826
14362TIP3   OH264500   4.675   4.895   3.798 -0.6761  0.3708 -0.1980
14362TIP3    H164501   4.707   4.806   3.815  0.8245  0.6019 -1.5882
14362TIP3    H264502   4.691   4.942   3.880 -1.2359 -0.5575  0.4609
14363TIP3   OH264503   5.578   5.506  14.577 -0.2837 -0.3547  0.0155
14363TIP3    H164504   5.668   5.525  14.605 -0.4481 -0.1165  0.3856
14363TIP3    H264505   5.584   5.497  14.482  0.1664 -0.5277  0.0553
14364TIP3   OH264506   3.623   0.609   3.098  0.0671  0.0298  0.2591
14364TIP3    H164507   3.650   0.562   3.020  1.2074  1.0650 -0.0037
14364TIP3    H264508   3.558   0.672   3.067  0.3851  0.3153  0.1578
14365TIP3   OH264509   0.425   6.048   1.152 -0.8240  0.2680  0.2356
14365TIP3    H164510   0.377   5.975   1.112  1.4176 -0.4897 -1.3026
14365TIP3    H264511   0.440   6.019   1.242  0.0891 -1.2641 -0.3626
14366TIP3   OH264512   4.173   0.177  11.433 -0.0958  0.0763 -0.0287
14366TIP3    H164513   4.125   0.215  11.507 -0.9980  0.9212 -1.0274
14366TIP3    H264514   4.105   0.150  11.371  0.6464 -0.7332 -0.5197
14367TIP3   OH264515   4.904   3.226  11.774  0.1409 -0.9446 -0.2129
14367TIP3    H164516   4.887   3.221  11.868 -1.4458  1.0263 -0.3117
14367TIP3    H264517   4.823   3.263  11.738  1.8584  1.5178 -1.8874
14368TIP3   OH264518   1.354   1.553   5.001 -0.1930 -0.5262  0.1044
14368TIP3    H164519   1.400   1.472   5.026 -0.5470 -0.7642  0.0003
14368TIP3    H264520   1.385   1.571   4.913 -1.2758 -1.4278 -0.4914
14369TIP3   OH264521   2.501   6.086   4.124 -0.6803 -0.0000 -0.4859
14369TIP3    H164522   2.441   6.024   4.166 -0.0246  0.7609  1.7300
14369TIP3    H264523   2.565   6.031   4.080 -0.9008 -0.8951  0.2573
14370TIP3   OH264524   2.692   1.048  11.365  0.4961 -0.3958 -0.0322
14370TIP3    H164525   2.627   1.005  11.421  0.7719 -1.1395 -0.2748
14370TIP3    H264526   2.712   0.983  11.298  3.5124 -1.2398  1.5481
14371TIP3   OH264527   0.873   4.288  13.781 -0.7053  0.2061 -0.1535
14371TIP3    H164528   0.859   4.276  13.687 -0.2074  0.0661 -0.2111
14371TIP3    H264529   0.937   4.220  13.805  0.4355  1.2911 -0.0344
14372TIP3   OH264530   3.123   1.256  16.865  0.0256  0.0508  0.3762
14372TIP3    H164531   3.029   1.271  16.876  0.3091  0.9241  2.0101
14372TIP3    H264532   3.148   1.204  16.941  1.0091  0.6096  0.4544
14373TIP3   OH264533   1.420   6.219  15.191 -0.3533  0.2558 -0.0463
14373TIP3    H164534   1.362   6.143  15.187 -0.1051  0.1003 -2.4259
14373TIP3    H264535   1.427   6.248  15.100  2.6584  0.7641  0.2434
14374TIP3   OH264536   1.296   4.087  13.333 -0.1831 -0.4559  0.2103
14374TIP3    H164537   1.327   4.154  13.393  0.2515  0.2336 -0.7522
14374TIP3    H264538   1.240   4.134  13.271  0.8024 -0.7925 -0.9899
14375TIP3   OH264539   3.885   5.004   2.152  0.1428 -0.5359 -0.1259
14375TIP3    H164540   3.840   5.004   2.236 -0.3907 -1.0967 -0.4086
14375TIP3    H264541   3.910   5.096   2.138  1.5483 -0.6570  1.3215
14376TIP3   OH264542   0.193   5.523  15.021  0.3603  0.8202 -0.2814
14376TIP3    H164543   0.116   5.568  15.056 -0.4019 -0.2957 -0.4795
14376TIP3    H264544   0.203   5.558  14.933 -0.7376  0.0247 -0.7448
14377TIP3   OH264545   1.038   1.560   1.124 -0.4257  0.0264  0.2974
14377TIP3    H164546   1.046   1.508   1.044 -3.0735 -0.6806  0.3779
14377TIP3    H264547   1.095   1.516   1.187  3.3346  1.7709 -1.5744
14378TIP3   OH264548   0.436   1.469  15.424 -0.6395  0.8012  0.7429
14378TIP3    H164549   0.382   1.548  15.425 -0.3455  1.0716 -1.0052
14378TIP3    H264550   0.399   1.415  15.354 -0.7207 -0.5542  1.7905
14379TIP3   OH264551   6.535   2.496   1.450  0.2165 -0.5716  1.2553
14379TIP3    H164552   6.457   2.493   1.394  0.9838 -1.8033  0.2005
14379TIP3    H264553   6.564   2.587   1.444  0.2347 -0.6413 -0.3321
14380TIP3   OH264554   1.377   0.171   1.204  0.3896 -0.6690 -0.3018
14380TIP3    H164555   1.348   0.213   1.285  0.2709 -0.1220 -0.6253
14380TIP3    H264556   1.330   0.217   1.135 -0.3510 -1.8386 -0.6225
14381TIP3   OH264557   3.245   6.517   2.729  0.2759  0.0346 -1.0105
14381TIP3    H164558   3.321   6.572   2.708  0.7644 -0.0434  0.4624
14381TIP3    H264559   3.188   6.574   2.781 -0.3923 -0.1079 -1.5614
14382TIP3   OH264560   5.315   1.154  15.801  0.1827  0.0073  0.0622
14382TIP3    H164561   5.296   1.220  15.734 -0.8038  0.0157  0.3357
14382TIP3    H264562   5.404   1.125  15.782 -0.4189 -0.7272 -1.9123
14383TIP3   OH264563   3.499   1.042   3.253 -0.3002 -0.6297 -0.4549
14383TIP3    H164564   3.515   1.135   3.263 -1.6586 -0.4544  0.4007
14383TIP3    H264565   3.575   1.000   3.292 -0.5346  0.1350  0.8851
14384TIP3   OH264566   6.460   1.659  13.320  0.1839  0.1640  0.0189
14384TIP3    H164567   6.464   1.574  13.277  0.5477  1.1493 -2.0106
14384TIP3    H264568   6.420   1.717  13.255 -0.1904  1.5171  1.4022
14385TIP3   OH264569   0.248   1.660   2.798 -0.3447 -0.2412 -0.2372
14385TIP3    H164570   0.223   1.666   2.706 -0.7447  0.7286 -0.0848
14385TIP3    H264571   0.181   1.605   2.838 -0.2119 -0.6028 -0.5084
14386TIP3   OH264572   5.316   4.052  14.704  0.3956 -0.5615  0.3793
14386TIP3    H164573   5.308   4.057  14.799  1.2981 -1.4576  0.5192
14386TIP3    H264574   5.379   4.121  14.681  0.0309 -0.2190  0.4107
14387TIP3   OH264575   1.328   1.704   3.813 -0.1927  0.8103 -0.2058
14387TIP3    H164576   1.392   1.771   3.836  0.2057  0.0817  0.8908
14387TIP3    H264577   1.244   1.751   3.808 -0.1843  1.1827  2.0342
14388TIP3   OH264578   3.520   4.419  15.125 -0.2242 -0.0062 -0.3697
14388TIP3    H164579   3.610   4.423  15.158 -1.0877 -0.4374  2.2201
14388TIP3    H264580   3.468   4.462  15.192 -2.4831 -3.6393  0.4638
14389TIP3   OH264581   6.164   5.090   0.853  0.3719  0.4517  0.2249
14389TIP3    H164582   6.079   5.125   0.882  0.4478 -0.2564  1.3474
14389TIP3    H264583   6.226   5.119   0.920  1.3521  2.2684 -1.3465
14390TIP3   OH264584   2.161   5.335  12.563 -0.2724 -0.0129  0.1351
14390TIP3    H164585   2.085   5.375  12.605 -0.3754  0.0521 -0.1148
14390TIP3    H264586   2.236   5.373  12.609 -0.4143 -1.5355  1.7219
14391TIP3   OH264587   1.789   2.213   5.151 -0.0583 -0.4846 -0.3927
14391TIP3    H164588   1.721   2.209   5.218 -0.8138 -1.5865 -1.1981
14391TIP3    H264589   1.792   2.305   5.125 -2.0557 -0.6006 -1.1494
14392TIP3   OH264590   2.198   2.362   0.395  0.1986  0.3608  0.1105
14392TIP3    H164591   2.222   2.303   0.323  1.8189 -0.8046  1.5150
14392TIP3    H264592   2.145   2.430   0.354 -0.5834 -1.3145 -1.8296
14393TIP3   OH264593   6.724   1.178  15.689 -0.5797  0.4698  0.8963
14393TIP3    H164594   6.814   1.147  15.678  0.2392  2.8384  0.3731
14393TIP3    H264595   6.687   1.176  15.601 -0.0029  2.3339  0.5757
14394TIP3   OH264596   2.271   0.156   3.199  0.0202  0.7868  0.4593
14394TIP3    H164597   2.309   0.076   3.235  1.4097  1.2003 -0.0481
14394TIP3    H264598   2.210   0.185   3.267 -2.3832 -1.9574 -0.3345
14395TIP3   OH264599   4.801   6.341  10.611  0.4199  0.6833  0.3581
14395TIP3    H164600   4.783   6.324  10.518  1.0809  3.7502 -0.4447
14395TIP3    H264601   4.717   6.368  10.647 -0.0210 -1.3110  0.9246
14396TIP3   OH264602   5.479   0.135  13.144 -0.6262  0.3025  0.3305
14396TIP3    H164603   5.497   0.198  13.214  0.7569  0.0825  0.2097
14396TIP3    H264604   5.538   0.161  13.073 -2.9467  1.3605 -1.3476
14397TIP3   OH264605   0.255   1.484  14.947  0.1034 -0.0814  0.3660
14397TIP3    H164606   0.275   1.390  14.954  1.1748  0.2033  1.3187
14397TIP3    H264607   0.197   1.490  14.871 -1.3185 -1.7200  1.2297
14398TIP3   OH264608   2.995   3.455  13.779  0.2228  0.2582 -0.3104
14398TIP3    H164609   3.076   3.458  13.728  1.0146 -0.3278  0.8509
14398TIP3    H264610   3.015   3.397  13.852 -0.5122  1.8512  1.2415
14399TIP3   OH264611   6.479   1.480   2.044 -0.1449  0.3615  0.4314
14399TIP3    H164612   6.527   1.547   2.091 -1.7276  1.1758  0.9465
14399TIP3    H264613   6.462   1.412   2.109  1.9268 -0.8523 -0.2189
14400TIP3   OH264614   0.807   1.973  12.154  0.0668  0.1709 -0.3442
14400TIP3    H164615   0.735   1.952  12.093  0.8063 -0.2522 -1.1003
14400TIP3    H264616   0.866   1.898  12.146 -0.3365 -0.4131  1.7269
14401TIP3   OH264617   3.824   0.380  14.857  0.6348  0.5115  0.8021
14401TIP3    H164618   3.907   0.394  14.811  0.9852  1.5838  1.7255
14401TIP3    H264619   3.766   0.448  14.823  0.4404  0.3910  0.8920
14402TIP3   OH264620   1.088   1.538   5.935 -0.0641  0.2776  0.4793
14402TIP3    H164621   1.040   1.462   5.967 -1.5249  1.1146  0.4048
14402TIP3    H264622   1.045   1.561   5.853  1.8427 -0.1725 -0.7030
14403TIP3   OH264623   6.026   5.583   2.775 -0.1450  0.5628 -0.3500
14403TIP3    H164624   6.070   5.500   2.756  0.6227  0.7224  0.6786
14403TIP3    H264625   5.945   5.558   2.819 -0.5284  0.3193 -1.1707
14404TIP3   OH264626   2.362   6.237  13.673  0.2422  0.4222  0.0191
14404TIP3    H164627   2.420   6.266  13.743 -1.1897 -0.1192  1.5238
14404TIP3    H264628   2.397   6.276  13.594  2.1541  0.7560  0.9776
14405TIP3   OH264629   2.093   1.121   6.280  0.3063 -0.0127  0.1928
14405TIP3    H164630   2.157   1.093   6.345  0.1125  0.5724  0.6473
14405TIP3    H264631   2.114   1.213   6.263 -0.4266  0.1993  0.3802
14406TIP3   OH264632   4.111   2.607  12.808  0.0773 -0.3165  0.5695
14406TIP3    H164633   4.136   2.631  12.897  0.5170 -1.8732  0.8822
14406TIP3    H264634   4.083   2.516  12.813 -0.4533 -0.2590 -0.7849
14407TIP3   OH264635   1.522   1.995   0.076  0.3882 -0.0530 -0.0606
14407TIP3    H164636   1.430   2.001   0.050  0.4446 -0.2506 -0.3102
14407TIP3    H264637   1.561   1.936   0.012  0.5275 -0.5626  0.4803
14408TIP3   OH264638   5.169   0.263  12.814 -0.1177  0.1351  0.2021
14408TIP3    H164639   5.228   0.315  12.868 -1.3113  0.4092  1.2866
14408TIP3    H264640   5.081   0.285  12.846 -0.7534 -1.1148 -0.6011
14409TIP3   OH264641   2.969   0.809  11.411  0.0868  0.6344  0.2688
14409TIP3    H164642   2.892   0.752  11.410 -0.7271  1.6933  0.3289
14409TIP3    H264643   3.043   0.749  11.421 -0.6890 -0.4447 -0.2068
14410TIP3   OH264644   6.233   1.024  15.275  0.3600  0.0110  0.3193
14410TIP3    H164645   6.245   1.098  15.215  0.0190  1.4449  1.9113
14410TIP3    H264646   6.309   0.968  15.260  0.0062  0.0114 -1.8018
14411TIP3   OH264647   1.573   4.628   3.434  0.3193  0.6589  0.1024
14411TIP3    H164648   1.511   4.673   3.376  2.0316  3.3834  0.2445
14411TIP3    H264649   1.611   4.697   3.487  3.5115 -0.8568  0.0048
14412TIP3   OH264650   3.725   3.851   3.561  0.3471 -0.6761  0.0472
14412TIP3    H164651   3.748   3.804   3.481  2.2467 -0.7716  0.5997
14412TIP3    H264652   3.673   3.788   3.612 -1.1260 -0.5142 -1.1935
14413TIP3   OH264653   2.617   4.242   6.245 -0.2528 -0.4175  0.4516
14413TIP3    H164654   2.592   4.235   6.338 -3.9080 -0.7253 -0.4004
14413TIP3    H264655   2.696   4.188   6.237  0.3485 -0.1445  3.4062
14414TIP3   OH264656   2.465   6.210  11.748 -0.6817 -0.3535 -0.2722
14414TIP3    H164657   2.552   6.188  11.781  0.3515 -0.1763 -2.6392
14414TIP3    H264658   2.440   6.290  11.794  0.0046 -0.9040  1.0844
14415TIP3   OH264659   3.490   3.400  12.396  0.1933 -0.7950 -0.2817
14415TIP3    H164660   3.516   3.323  12.446 -0.2933 -0.4362  0.5489
14415TIP3    H264661   3.573   3.442  12.371  0.4424 -0.7841  0.5430
14416TIP3   OH264662   6.344   5.220  15.908  0.1032 -0.3399 -0.1167
14416TIP3    H164663   6.419   5.164  15.884 -0.2868 -0.3814 -1.2993
14416TIP3    H264664   6.280   5.159  15.943 -0.1260 -0.5874 -0.9373
14417TIP3   OH264665   3.104   1.184   5.933 -0.1320 -0.4699 -0.7142
14417TIP3    H164666   3.019   1.217   5.961 -0.0352 -1.3938  0.8232
14417TIP3    H264667   3.084   1.121   5.864 -0.5962  0.1409 -1.1428
14418TIP3   OH264668   2.599   2.152  16.091  0.2402  0.2342 -0.6058
14418TIP3    H164669   2.661   2.148  16.164 -0.6748 -2.1099  0.1091
14418TIP3    H264670   2.573   2.061  16.075 -1.2119  0.8940 -2.4741
14419TIP3   OH264671   1.074   1.723  14.545 -0.2704  0.5661 -0.3094
14419TIP3    H164672   0.988   1.749  14.579  0.4236  0.7777  1.4190
14419TIP3    H264673   1.125   1.804  14.546  0.7820 -0.0612  1.4758
14420TIP3   OH264674   2.371   0.665   5.531  0.8564 -0.9855  0.1225
14420TIP3    H164675   2.277   0.655   5.549  1.3533 -3.3547  1.9510
14420TIP3    H264676   2.398   0.739   5.585  0.0488 -0.2293 -0.4845
14421TIP3   OH264677   2.183   6.228   1.837  0.0125 -0.2023 -0.1019
14421TIP3    H164678   2.264   6.250   1.882 -1.1679  0.6531  1.7135
14421TIP3    H264679   2.146   6.155   1.886 -1.7742  1.3667  1.0350
14422TIP3   OH264680   1.118   6.769  16.895  0.1771 -0.6738 -0.0377
14422TIP3    H164681   1.038   6.821  16.886  0.4391 -0.2975 -0.1978
14422TIP3    H264682   1.161   6.776  16.809  1.0761  0.2782  0.4632
14423TIP3   OH264683   3.796   5.491   0.693 -0.2580  0.1878 -0.5844
14423TIP3    H164684   3.881   5.516   0.727 -1.1671  0.1095  1.9033
14423TIP3    H264685   3.736   5.558   0.725 -1.6392 -1.5176  0.6063
14424TIP3   OH264686   0.318   6.376  11.314  0.0971 -0.1965  0.7468
14424TIP3    H164687   0.329   6.404  11.223 -2.4554  1.9472  0.9748
14424TIP3    H264688   0.332   6.281  11.311  1.1188 -0.0588 -1.6427
14425TIP3   OH264689   5.808   1.165  12.819  0.4206  0.1583 -0.3349
14425TIP3    H164690   5.841   1.198  12.735 -2.2600  2.9052 -0.4969
14425TIP3    H264691   5.722   1.129  12.798 -0.4488  1.2206  1.2423
14426TIP3   OH264692   1.411   2.813   2.847  0.1330  0.7125  0.0882
14426TIP3    H164693   1.367   2.747   2.900  0.2193  1.0963  0.6462
14426TIP3    H264694   1.346   2.837   2.780  0.3087 -0.3462 -0.4851
14427TIP3   OH264695   1.142   5.878  14.137 -0.4264  0.9600  0.3008
14427TIP3    H164696   1.167   5.794  14.177  1.8903  1.0939 -0.7214
14427TIP3    H264697   1.145   5.861  14.043  0.1160  2.1787  0.0817
14428TIP3   OH264698   1.798   3.362  11.463  0.3707  0.0126 -0.0101
14428TIP3    H164699   1.744   3.284  11.475  0.5112 -0.3802 -1.5961
14428TIP3    H264700   1.874   3.348  11.518 -0.8152  0.2824  1.7681
14429TIP3   OH264701   0.065   1.168   0.828 -0.2005  0.4816 -0.2673
14429TIP3    H164702   0.098   1.185   0.917  0.9942  3.2304 -1.1071
14429TIP3    H264703  -0.024   1.202   0.829 -0.1449  0.6280 -0.1493
14430TIP3   OH264704   4.830   6.062   4.839 -0.5534  0.4358  0.2285
14430TIP3    H164705   4.760   6.005   4.806 -1.2902  1.9455 -0.9595
14430TIP3    H264706   4.853   6.117   4.764  0.3798  1.4573  1.2313
14431TIP3   OH264707   6.492   1.767  15.402 -0.3987  0.2265 -0.4982
14431TIP3    H164708   6.584   1.777  15.425  0.2903 -0.7952 -2.5410
14431TIP3    H264709   6.462   1.693  15.455  1.0079 -1.7799 -2.2902
14432TIP3   OH264710   2.317   4.394   2.107  0.8331 -0.2926  0.1980
14432TIP3    H164711   2.347   4.464   2.050 -2.4198  1.3189  0.2685
14432TIP3    H264712   2.397   4.346   2.130  3.2970  3.5060  0.3780
14433TIP3   OH264713   1.862   6.412  14.789  0.4065 -0.1839  0.3098
14433TIP3    H164714   1.945   6.365  14.783  1.5413  1.5975  1.2026
14433TIP3    H264715   1.882   6.489  14.842 -1.3584  1.3065 -1.0508
14434TIP3   OH264716   4.467   6.614  16.968  0.5304  0.1730 -0.1480
14434TIP3    H164717   4.534   6.584  17.030 -0.1382 -0.5791  0.2397
14434TIP3    H264718   4.384   6.599  17.014  0.0449  0.0306 -1.0482
14435TIP3   OH264719   1.378   6.165  15.915  0.0660  0.3965  0.3186
14435TIP3    H164720   1.425   6.158  15.998 -1.2109 -4.1727  0.9107
14435TIP3    H264721   1.436   6.125  15.851 -1.8611 -3.5872  0.7322
14436TIP3   OH264722   0.535   6.792  14.585 -0.0569 -0.1222  0.4596
14436TIP3    H164723   0.544   6.878  14.544 -0.4531 -0.8200 -1.1818
14436TIP3    H264724   0.547   6.730  14.513 -2.1794 -1.3931  1.1131
14437TIP3   OH264725   2.047   1.340  12.349 -0.4028 -0.5506 -0.6843
14437TIP3    H164726   2.053   1.278  12.421 -1.8046  2.0345  1.8545
14437TIP3    H264727   2.133   1.381  12.344 -0.8141  0.5898  0.9000
14438TIP3   OH264728   3.558   0.391   3.741 -0.0093 -0.5172 -0.2996
14438TIP3    H164729   3.651   0.370   3.732 -0.1543 -0.8471 -1.1495
14438TIP3    H264730   3.522   0.378   3.653 -1.0361 -1.2691  0.2075
14439TIP3   OH264731   1.672   3.499   4.133  0.3251  0.8698  0.0741
14439TIP3    H164732   1.766   3.511   4.121  0.0704  1.5581 -1.4102
14439TIP3    H264733   1.635   3.587   4.128 -0.5326  0.4822 -0.6606
14440TIP3   OH264734   2.107   1.432   3.895 -0.7160  0.4952 -0.3448
14440TIP3    H164735   2.041   1.500   3.886 -2.3323 -1.1259 -1.6936
14440TIP3    H264736   2.056   1.353   3.917  1.2919  0.1725  4.2532
14441TIP3   OH264737   1.675   5.142  15.440  0.0716  0.6785 -0.0607
14441TIP3    H164738   1.679   5.114  15.349 -1.9591 -1.5599  0.4370
14441TIP3    H264739   1.763   5.177  15.458  1.8304 -2.3584 -1.8369
14442TIP3   OH264740   5.237   6.489   1.768 -0.2380  0.0836 -0.2209
14442TIP3    H164741   5.268   6.541   1.841 -0.1941 -1.4046  0.8615
14442TIP3    H264742   5.198   6.411   1.808  0.5644 -1.1905 -1.7956
14443TIP3   OH264743   1.799   2.023   4.544  0.0356  0.2258 -0.5037
14443TIP3    H164744   1.880   1.999   4.499 -1.4550 -0.9123 -2.7594
14443TIP3    H264745   1.824   2.097   4.600  2.5561  0.0910 -1.3196
14444TIP3   OH264746   4.294   2.476  16.477 -0.2111  0.1707 -0.0896
14444TIP3    H164747   4.351   2.455  16.551 -1.5301  0.2827  1.0015
14444TIP3    H264748   4.274   2.391  16.437  2.3196  0.2801 -1.7861
14445TIP3   OH264749   0.678   1.402  11.498  0.1459  0.2074  0.1808
14445TIP3    H164750   0.725   1.483  11.478  1.0802 -0.5569 -0.8134
14445TIP3    H264751   0.697   1.344  11.424 -0.9895 -0.7190  0.5885
14446TIP3   OH264752   5.715   2.894   1.667  0.9170 -0.1366  0.2246
14446TIP3    H164753   5.779   2.864   1.603  0.8224  1.4300 -0.6321
14446TIP3    H264754   5.744   2.981   1.692 -1.1523  0.8521 -0.5979
14447TIP3   OH264755   0.793   3.233   0.759 -0.3405  0.1346 -0.5664
14447TIP3    H164756   0.880   3.272   0.745 -0.0682 -0.3980 -0.3690
14447TIP3    H264757   0.736   3.280   0.698 -0.2093  1.4789  0.3150
14448TIP3   OH264758   2.968   2.360  14.709 -0.2302 -0.1756 -0.0331
14448TIP3    H164759   2.992   2.367  14.617  0.8710  2.7788  0.3744
14448TIP3    H264760   3.050   2.371  14.757 -1.0313  0.2521  1.3127
14449TIP3   OH264761   5.045   5.155  15.255  0.4165  0.0580  0.1008
14449TIP3    H164762   5.088   5.228  15.211  2.3162 -0.7125  0.5848
14449TIP3    H264763   5.108   5.126  15.321 -0.4136 -1.7916  0.1492
14450TIP3   OH264764   0.419   6.690   6.143 -0.7801 -0.1652  0.1935
14450TIP3    H164765   0.434   6.602   6.175  0.0247 -1.1123 -2.5468
14450TIP3    H264766   0.324   6.695   6.129 -0.5899 -1.6186 -2.1118
14451TIP3   OH264767   6.564   0.084  13.295 -0.2882  0.2156 -0.2763
14451TIP3    H164768   6.600   0.150  13.354 -0.2069 -0.2577  0.2085
14451TIP3    H264769   6.632   0.069  13.230 -0.9587  1.8785 -1.4445
14452TIP3   OH264770   5.466   1.927   6.381 -0.3836  0.2655  0.0550
14452TIP3    H164771   5.440   1.991   6.315  1.9626  0.4773 -0.7473
14452TIP3    H264772   5.390   1.868   6.388 -2.0573  2.3026 -0.1608
14453TIP3   OH264773   5.230   0.215  17.024  0.0310 -0.5026  0.3521
14453TIP3    H164774   5.221   0.141  16.964 -0.3159 -0.7047  0.6502
14453TIP3    H264775   5.234   0.292  16.967 -1.4412 -0.5885  0.1112
14454TIP3   OH264776   6.500   3.933   0.298  0.5040  0.3172  0.2409
14454TIP3    H164777   6.451   3.884   0.231  1.3164 -1.0427  0.6025
14454TIP3    H264778   6.456   3.911   0.380  0.5749  0.6084  0.3583
14455TIP3   OH264779   6.132   4.646   3.242  0.3625 -0.2113 -0.6345
14455TIP3    H164780   6.049   4.635   3.195  0.6391 -0.1336 -1.1466
14455TIP3    H264781   6.197   4.657   3.173  1.4487 -4.1577 -0.4733
14456TIP3   OH264782   5.754   4.299   0.508 -0.0043  0.0864 -0.3196
14456TIP3    H164783   5.724   4.262   0.591  0.7384  1.2657  0.5019
14456TIP3    H264784   5.724   4.237   0.442 -2.3093  0.0747  0.6441
14457TIP3   OH264785   4.990   1.565  14.285 -0.6441  0.5752 -0.7806
14457TIP3    H164786   5.047   1.588  14.358 -0.2788 -0.3514 -0.7725
14457TIP3    H264787   4.994   1.642  14.227 -0.6535  1.1666 -0.0166
14458TIP3   OH264788   2.172   3.304   2.833 -0.2840  0.4019  0.6383
14458TIP3    H164789   2.093   3.333   2.878 -0.1262 -0.2581  1.3639
14458TIP3    H264790   2.186   3.215   2.864  0.0818  0.0900 -0.3940
14459TIP3   OH264791   4.813   3.222   2.232  0.1280  0.7199 -0.0575
14459TIP3    H164792   4.720   3.235   2.248 -0.0493 -0.3008 -0.1849
14459TIP3    H264793   4.818   3.187   2.143  0.1891 -3.3557  1.3367
14460TIP3   OH264794   0.804   6.745  13.448 -0.8008  0.2436 -0.2162
14460TIP3    H164795   0.764   6.805  13.385  0.5345 -0.4274 -1.7370
14460TIP3    H264796   0.880   6.708  13.403 -0.6248 -1.3464  1.2729
14461TIP3   OH264797   6.688   3.119   2.648  0.0376  0.2069 -0.5598
14461TIP3    H164798   6.629   3.095   2.577  0.8085 -0.9552 -0.8332
14461TIP3    H264799   6.759   3.055   2.643 -0.6506 -0.9191  2.2272
14462TIP3   OH264800   6.639   1.542  12.677  0.2894 -0.5568 -0.6629
14462TIP3    H164801   6.705   1.548  12.608  0.7273  1.7700 -0.1358
14462TIP3    H264802   6.587   1.622  12.667 -1.5690 -1.6652 -0.1694
14463TIP3   OH264803   4.007   5.876  15.485 -0.2061  0.0555 -0.0078
14463TIP3    H164804   3.983   5.787  15.459 -1.8612  0.8727 -1.5853
14463TIP3    H264805   3.983   5.882  15.577 -0.0672 -1.1365  0.1152
14464TIP3   OH264806   3.403   1.690   5.497 -0.3823 -0.3599 -0.1617
14464TIP3    H164807   3.417   1.784   5.509  0.3862 -0.2740 -1.4942
14464TIP3    H264808   3.309   1.680   5.486 -0.5526  0.1440  0.7605
14465TIP3   OH264809   3.861   5.716  11.812  0.3145 -0.6976 -0.1165
14465TIP3    H164810   3.856   5.666  11.894  0.7640  0.2193  0.5002
14465TIP3    H264811   3.848   5.652  11.743 -1.9489 -1.2112  0.7144
14466TIP3   OH264812   0.149   5.150  13.150  0.0413 -0.3954  0.0543
14466TIP3    H164813   0.138   5.141  13.055  0.9322  0.0575 -0.1064
14466TIP3    H264814   0.146   5.244  13.165  1.9331 -0.3233  0.1859
14467TIP3   OH264815   0.333   0.602  12.640 -0.1077 -0.4482 -0.0061
14467TIP3    H164816   0.263   0.583  12.702  0.6263 -1.2526  0.6081
14467TIP3    H264817   0.376   0.681  12.675 -0.3516 -0.2831 -0.0772
14468TIP3   OH264818   0.825   1.488  13.550 -0.3791 -0.0612 -0.1360
14468TIP3    H164819   0.741   1.451  13.523 -0.8101  1.4537 -1.0512
14468TIP3    H264820   0.865   1.519  13.468  1.5351 -1.5646  0.1449
14469TIP3   OH264821   2.572   3.057  14.126 -0.0143 -0.6125  0.6571
14469TIP3    H164822   2.536   3.067  14.213 -0.2104 -1.3998  0.6716
14469TIP3    H264823   2.497   3.068  14.067  0.0813 -0.2837  0.5938
14470TIP3   OH264824   6.277   2.333  12.089  0.6012 -0.0239 -0.0954
14470TIP3    H164825   6.213   2.264  12.071 -1.5123  1.5025  1.0908
14470TIP3    H264826   6.313   2.310  12.175 -1.7947  1.4016  1.4075
14471TIP3   OH264827   1.636   0.379   5.381 -0.3663 -0.0680  0.9997
14471TIP3    H164828   1.677   0.318   5.321 -0.9352  0.9262 -0.4568
14471TIP3    H264829   1.709   0.417   5.431  0.1147 -0.8358  0.8973
14472TIP3   OH264830   3.721   1.203  11.459 -0.1527  0.3375 -0.1810
14472TIP3    H164831   3.661   1.227  11.388 -1.2411 -2.9225 -0.5217
14472TIP3    H264832   3.798   1.169  11.414  1.2925  2.7325  0.2841
14473TIP3   OH264833   3.502   1.318   6.315  0.0634 -0.3493 -0.2799
14473TIP3    H164834   3.480   1.259   6.243 -2.2279 -0.7566  0.6618
14473TIP3    H264835   3.520   1.260   6.389  1.3908  0.0836 -0.2467
14474TIP3   OH264836   5.346   4.658  12.157 -0.9954 -0.2748 -0.0979
14474TIP3    H164837   5.396   4.590  12.112 -1.4490 -0.4982 -0.2644
14474TIP3    H264838   5.280   4.686  12.093 -0.7546  0.3821 -0.0604
14475TIP3   OH264839   3.652   6.689   2.428 -0.1966 -0.0286 -0.3595
14475TIP3    H164840   3.722   6.629   2.455  0.9525  1.0999 -0.7288
14475TIP3    H264841   3.582   6.675   2.493  0.8958 -0.2326  0.8204
14476TIP3   OH264842   1.819   3.601  14.793 -0.0318  0.5082 -0.2164
14476TIP3    H164843   1.745   3.572  14.741 -0.0515 -1.4258  0.7939
14476TIP3    H264844   1.896   3.575  14.742 -0.0073 -2.9656  1.3100
14477TIP3   OH264845   5.343   2.251   3.875 -0.2681 -0.0284  0.3047
14477TIP3    H164846   5.265   2.256   3.819  0.0322  0.5595 -0.0677
14477TIP3    H264847   5.397   2.324   3.847  1.1425 -1.3362 -0.5523
14478TIP3   OH264848   0.854   1.404   5.367 -0.4508  0.3027 -1.0647
14478TIP3    H164849   0.899   1.474   5.414 -0.6324  0.7103 -1.5028
14478TIP3    H264850   0.915   1.330   5.371 -0.5506  0.2614 -0.0044
14479TIP3   OH264851   5.932   1.258   4.202  0.4033 -0.1178 -0.3165
14479TIP3    H164852   5.950   1.194   4.271 -0.0094 -0.5286 -0.5820
14479TIP3    H264853   5.994   1.329   4.218  0.1091 -0.0655  0.6703
14480TIP3   OH264854   4.228   6.231  12.463 -0.1188  0.1550 -0.6599
14480TIP3    H164855   4.174   6.170  12.514 -0.4626  0.6560 -0.4097
14480TIP3    H264856   4.292   6.265  12.526 -0.5355  0.7647 -0.5528
14481TIP3   OH264857   3.624   6.719   2.150  0.4149 -0.1696  0.2013
14481TIP3    H164858   3.680   6.661   2.100  0.4465 -0.9166  1.0909
14481TIP3    H264859   3.668   6.729   2.235 -0.0075  0.4789  0.3503
14482TIP3   OH264860   3.265   0.499   0.138 -0.2807  0.0156 -0.0029
14482TIP3    H164861   3.291   0.467   0.052 -0.2637 -0.5335  0.2005
14482TIP3    H264862   3.344   0.540   0.174 -0.1545 -0.1822 -0.0530
14483TIP3   OH264863   3.479   5.015   3.558  0.0905 -0.1400  0.2454
14483TIP3    H164864   3.396   4.996   3.515  0.0675  1.0385 -0.2489
14483TIP3    H264865   3.528   4.933   3.552 -0.1399 -0.1733 -1.5007
14484TIP3   OH264866   4.829   1.545   2.996 -0.1716  0.0045  0.9055
14484TIP3    H164867   4.774   1.483   3.044  0.0766  0.1371  1.3793
14484TIP3    H264868   4.769   1.592   2.938 -0.4336 -0.3587  0.8820
14485TIP3   OH264869   4.452   1.958   0.512  0.6662 -0.0301  0.4386
14485TIP3    H164870   4.527   2.006   0.477 -0.1604  1.5296  0.7297
14485TIP3    H264871   4.400   1.935   0.435  1.2680 -0.8388  0.2631
14486TIP3   OH264872   0.317   2.809   1.663  0.4920 -0.4699  0.1872
14486TIP3    H164873   0.392   2.835   1.610  0.1818 -1.5709 -0.8474
14486TIP3    H264874   0.351   2.802   1.752  1.1689  0.8246  0.0533
14487TIP3   OH264875   2.255   5.564  14.132  0.4422  0.0905 -0.3230
14487TIP3    H164876   2.196   5.551  14.058  2.2264 -3.7540 -1.2879
14487TIP3    H264877   2.196   5.571  14.208 -1.3828 -2.7386 -1.3135
14488TIP3   OH264878   6.607   0.566   0.496 -0.5987 -0.3041 -0.3684
14488TIP3    H164879   6.559   0.604   0.569 -2.0014 -1.8360 -0.4288
14488TIP3    H264880   6.575   0.476   0.491  0.2970 -0.5649 -2.1570
14489TIP3   OH264881   5.147   1.112  12.405  0.5914  0.0408 -0.5087
14489TIP3    H164882   5.191   1.181  12.454  1.2308 -0.6626 -0.0762
14489TIP3    H264883   5.135   1.040  12.467 -2.1066  0.5510 -0.3192
14490TIP3   OH264884   4.552   2.995   6.548 -0.3343  0.0065 -0.2055
14490TIP3    H164885   4.570   2.905   6.576 -0.7898  0.8691  3.3216
14490TIP3    H264886   4.457   3.005   6.557 -0.4461  0.5403 -1.7031
14491TIP3   OH264887   6.456   6.200   3.683 -0.1232 -0.0219  0.0070
14491TIP3    H164888   6.538   6.198   3.634 -0.0829 -3.0099  0.0384
14491TIP3    H264889   6.483   6.213   3.774  0.2514 -0.1939 -0.0770
14492TIP3   OH264890   3.899   5.395  17.155 -0.0009 -0.3654  0.4290
14492TIP3    H164891   3.953   5.475  17.152 -0.5800  0.0757  1.2494
14492TIP3    H264892   3.957   5.329  17.193 -0.1002  0.1816  1.5763
14493TIP3   OH264893   1.382   1.994   1.288  0.1103  0.1454 -0.4518
14493TIP3    H164894   1.475   2.003   1.271  0.1460  0.1397 -0.2616
14493TIP3    H264895   1.350   2.084   1.296  0.0094  0.1585 -0.9980
14494TIP3   OH264896   5.344   1.469  15.734  0.3044  0.6697  0.2114
14494TIP3    H164897   5.434   1.502  15.741  0.0603  1.7546 -1.3757
14494TIP3    H264898   5.345   1.411  15.658 -0.6878  1.9945 -0.8505
14495TIP3   OH264899   4.723   0.108   5.630 -0.6418 -0.1450  0.0364
14495TIP3    H164900   4.691   0.073   5.713 -1.5499 -2.1008 -1.0635
14495TIP3    H264901   4.644   0.133   5.582 -0.3491 -1.5100 -1.2370
14496TIP3   OH264902   0.839   1.470  11.269  0.1363  0.2615  0.2824
14496TIP3    H164903   0.906   1.401  11.280 -1.1774 -1.1298 -0.1151
14496TIP3    H264904   0.879   1.531  11.207  0.8517 -0.8154 -0.3669
14497TIP3   OH264905   2.386   0.343   3.609 -0.0387  0.2314  0.3443
14497TIP3    H164906   2.419   0.364   3.522 -0.3087 -0.9412 -0.0713
14497TIP3    H264907   2.352   0.425   3.643 -0.4427  0.6024 -0.8920
14498TIP3   OH264908   4.235   4.016   0.571 -1.1619  0.2091 -0.1384
14498TIP3    H164909   4.230   4.111   0.586 -1.5346  0.5935 -2.3288
14498TIP3    H264910   4.198   3.977   0.650 -2.4614  1.9572  0.1639
14499TIP3   OH264911   4.707   4.727  10.360 -0.4456 -0.3766 -0.2231
14499TIP3    H164912   4.630   4.764  10.402  0.1882  0.7277  0.0084
14499TIP3    H264913   4.694   4.632  10.365 -1.4362 -0.2206  0.4565
14500TIP3   OH264914   1.945   1.824   0.501 -0.1875  0.4290 -0.0539
14500TIP3    H164915   1.891   1.891   0.544 -2.1629 -1.9079  1.3867
14500TIP3    H264916   1.888   1.788   0.433  0.0447 -1.1359  0.5481
14501TIP3   OH264917   1.790   1.159   5.813 -0.5070 -0.6454 -0.1585
14501TIP3    H164918   1.774   1.147   5.907  2.4771  1.2840  0.7334
14501TIP3    H264919   1.761   1.078   5.773 -1.8568 -1.5381  2.4261
14502TIP3   OH264920   5.967   2.807  16.000  0.3529  0.6165 -0.1723
14502TIP3    H164921   5.941   2.894  16.030  0.9359  0.8176 -0.2452
14502TIP3    H264922   6.059   2.800  16.023  0.4832  0.2865 -0.7750
14503TIP3   OH264923   0.673   0.457  15.671  0.4672 -0.5372 -0.0611
14503TIP3    H164924   0.605   0.524  15.661  2.6376  1.4887 -2.6130
14503TIP3    H264925   0.742   0.501  15.720  1.6815 -1.0404 -1.2670
14504TIP3   OH264926   5.862   6.527  13.799 -0.3239 -0.4955  0.0300
14504TIP3    H164927   5.953   6.520  13.769 -0.1220  1.0039  0.2098
14504TIP3    H264928   5.844   6.621  13.799 -0.5771 -0.4139  3.7527
14505TIP3   OH264929   6.551   4.257  17.160 -0.1591  0.1972 -0.5988
14505TIP3    H164930   6.613   4.299  17.101 -0.8412  1.6985 -0.2811
14505TIP3    H264931   6.587   4.271  17.248  0.0619 -0.6941 -0.5295
14506TIP3   OH264932   5.694   0.767   4.060 -0.4971 -0.3937  0.2559
14506TIP3    H164933   5.627   0.821   4.102 -2.2273 -0.4227 -2.2597
14506TIP3    H264934   5.768   0.827   4.046 -0.9594  0.3266  0.8227
14507TIP3   OH264935   4.869   1.933  16.496 -0.2140 -0.2198  0.1952
14507TIP3    H164936   4.792   1.969  16.453 -0.5760 -1.5064 -0.2805
14507TIP3    H264937   4.859   1.838  16.488  1.9176 -0.4163 -0.7711
14508TIP3   OH264938   1.632   0.639  13.554  0.2828 -0.1985  0.0827
14508TIP3    H164939   1.722   0.640  13.520  0.7208 -0.4693  1.1803
14508TIP3    H264940   1.613   0.546  13.569 -0.2219 -0.1500 -0.2358
14509TIP3   OH264941   4.404   6.629   0.412 -0.0957 -0.0864  0.2478
14509TIP3    H164942   4.343   6.648   0.484  1.5291 -0.1444  1.7067
14509TIP3    H264943   4.453   6.552   0.442  2.3677  1.3875  0.2891
14510TIP3   OH264944   0.238   5.945  10.767  0.0449  0.3345  0.2120
14510TIP3    H164945   0.261   6.038  10.769 -1.2703  0.6731  0.6603
14510TIP3    H264946   0.268   5.915  10.681 -0.7540  1.5290 -0.5215
14511TIP3   OH264947   6.601   4.230   2.781 -0.2423  0.7068  0.0160
14511TIP3    H164948   6.607   4.150   2.833 -3.1292  0.4643  0.1165
14511TIP3    H264949   6.566   4.201   2.697 -1.3494  1.8290  0.0648
14512TIP3   OH264950   3.842   2.317   2.830 -0.2180  0.3900 -0.5876
14512TIP3    H164951   3.761   2.360   2.858  0.6752  2.7546 -1.4718
14512TIP3    H264952   3.861   2.353   2.744  3.0152  1.7567  0.5487
14513TIP3   OH264953   2.118   6.692   4.819 -0.3445  0.2515 -0.0738
14513TIP3    H164954   2.113   6.597   4.820 -0.3617  0.2581  0.7574
14513TIP3    H264955   2.109   6.718   4.910 -0.9220  1.0774 -0.3487
14514TIP3   OH264956   3.227   5.433  13.964 -0.1533 -0.0992  0.0123
14514TIP3    H164957   3.201   5.480  13.884 -1.0509 -0.1651  0.2565
14514TIP3    H264958   3.174   5.353  13.963 -1.2198  0.5525  1.3708
14515TIP3   OH264959   4.176   4.048   4.962 -0.2537 -0.1232  0.6860
14515TIP3    H164960   4.141   4.054   5.050  1.7515  2.7102  1.4314
14515TIP3    H264961   4.268   4.075   4.970  0.5121 -1.4890 -2.0141
14516TIP3   OH264962   4.406   1.537   1.821 -0.4109  0.9493 -0.5533
14516TIP3    H164963   4.456   1.590   1.883 -0.1158 -0.2071  0.2102
14516TIP3    H264964   4.331   1.592   1.798 -0.5282  1.4015  0.8189
14517TIP3   OH264965   6.470   5.136   6.303 -0.1214  0.1437 -0.4550
14517TIP3    H164966   6.550   5.085   6.303  0.8187  1.5496 -0.6209
14517TIP3    H264967   6.460   5.164   6.212  0.2549  1.5113 -0.1001
14518TIP3   OH264968   4.341   2.796   4.600 -0.5606 -0.3720  0.0078
14518TIP3    H164969   4.361   2.823   4.510 -1.7033 -0.2651 -0.2251
14518TIP3    H264970   4.377   2.867   4.654  0.4294 -0.6004 -0.3364
14519TIP3   OH264971   4.238   0.920  13.553 -0.1764  0.0626 -0.3841
14519TIP3    H164972   4.269   1.006  13.523 -1.3260  0.4180 -0.6033
14519TIP3    H264973   4.148   0.914  13.521  0.7059 -2.3980 -2.8124
14520TIP3   OH264974   5.192   2.248  14.660  0.4112 -0.2817 -0.0710
14520TIP3    H164975   5.210   2.236  14.753  1.1930 -0.4333 -0.2371
14520TIP3    H264976   5.264   2.204  14.616  0.9319  1.1669 -0.7324
14521TIP3   OH264977   6.610   1.310   0.849  0.3257  0.4235  0.4139
14521TIP3    H164978   6.570   1.339   0.767  0.3672  1.4707  0.7447
14521TIP3    H264979   6.552   1.242   0.881 -0.0200  0.4292 -0.1854
14522TIP3   OH264980   1.970   2.974   4.238 -0.8734 -0.0561  0.2958
14522TIP3    H164981   2.045   3.005   4.290  0.2027 -0.9194 -0.6875
14522TIP3    H264982   1.982   3.014   4.152  0.0481 -2.3184 -0.7230
14523TIP3   OH264983   0.363   0.222   5.194 -0.3269  0.2478 -0.7381
14523TIP3    H164984   0.268   0.210   5.190 -0.7058  2.4732  0.1206
14523TIP3    H264985   0.381   0.243   5.285  0.4620  3.1326 -1.4480
14524TIP3   OH264986   5.542   3.724   3.322 -0.7363 -0.5168  0.1345
14524TIP3    H164987   5.526   3.668   3.246 -2.2890 -0.3342  0.3054
14524TIP3    H264988   5.600   3.793   3.288 -2.2028  0.1371 -1.1786
14525TIP3   OH264989   0.378   3.690  15.372  0.3603  0.0939 -0.2813
14525TIP3    H164990   0.396   3.648  15.288 -0.1951  0.2369 -0.4768
14525TIP3    H264991   0.284   3.710  15.369 -0.0690 -1.4599  1.0633
14526TIP3   OH264992   6.719   6.635   5.081  0.5089  0.1611  0.2385
14526TIP3    H164993   6.643   6.690   5.099  0.9038  0.6441  0.4399
14526TIP3    H264994   6.682   6.554   5.046 -0.1223  0.2494  0.6851
14527TIP3   OH264995   5.319   3.150   1.196 -0.0728 -0.0169 -0.5639
14527TIP3    H164996   5.326   3.241   1.168  1.4056  0.3199  0.8059
14527TIP3    H264997   5.231   3.144   1.235  0.3102  1.2076  0.5650
14528TIP3   OH264998   3.217   4.091  12.678 -0.5068  0.7003 -0.5166
14528TIP3    H164999   3.298   4.055  12.714 -1.7915  0.0639  1.9439
14528TIP3    H265000   3.193   4.030  12.608  0.6841  0.4236 -0.7062
14529TIP3   OH265001   5.110   4.629   1.318  0.3548  0.2190 -0.9305
14529TIP3    H165002   5.147   4.637   1.406  0.9105 -1.0095 -1.0365
14529TIP3    H265003   5.122   4.716   1.279 -2.1281  1.5747  1.0243
14530TIP3   OH265004   1.505   3.888  16.657 -0.5179  0.6945 -0.4903
14530TIP3    H165005   1.556   3.811  16.632  0.8075  0.8663  1.4647
14530TIP3    H265006   1.515   3.949  16.584  0.7798  0.0818 -0.8453
14531TIP3   OH265007   4.335   4.216   1.462 -0.7556  0.4442  0.1958
14531TIP3    H165008   4.371   4.198   1.549 -2.6606  0.0404  0.9514
14531TIP3    H265009   4.343   4.311   1.451 -1.9516  0.7257  1.5292
14532TIP3   OH265010   5.372   3.041  15.814 -0.4447 -0.4625  0.3190
14532TIP3    H165011   5.457   3.070  15.849 -0.4360  0.2762 -0.3001
14532TIP3    H265012   5.383   2.947  15.801  0.7662 -0.1639 -1.0662
14533TIP3   OH265013   5.799   5.149   0.233  0.5838 -0.1363 -0.0500
14533TIP3    H165014   5.840   5.163   0.148  0.9472 -2.3679 -0.3092
14533TIP3    H265015   5.707   5.132   0.212  0.8757 -1.7399 -0.1431
14534TIP3   OH265016   6.212   3.709   5.341 -0.8804  0.2998 -0.2669
14534TIP3    H165017   6.288   3.695   5.283 -1.5428  2.0671 -1.6751
14534TIP3    H265018   6.137   3.708   5.282 -1.6918  1.1286  0.7205
14535TIP3   OH265019   4.120   3.434   2.821  0.0540 -0.3023 -0.3630
14535TIP3    H165020   4.058   3.503   2.842  0.5571  0.3092 -0.8335
14535TIP3    H265021   4.086   3.394   2.741 -0.7849 -1.3004  0.4587
14536TIP3   OH265022   2.757   3.334  13.335  0.0392 -0.1223  0.0350
14536TIP3    H165023   2.778   3.321  13.428 -1.0990 -1.4734  0.1250
14536TIP3    H265024   2.724   3.424  13.331  1.9356  0.6426  0.5672
14537TIP3   OH265025   5.511   2.243   2.574  0.0952 -0.3558  0.0159
14537TIP3    H165026   5.480   2.161   2.538  2.2762 -1.3589  0.2987
14537TIP3    H265027   5.520   2.226   2.668  1.3094 -0.0746 -0.0327
14538TIP3   OH265028   3.540   0.488  13.517  0.1267 -0.2447  0.0441
14538TIP3    H165029   3.475   0.417  13.518  0.6461 -0.7175  1.0609
14538TIP3    H265030   3.621   0.448  13.547  1.0169  0.2575 -1.5615
14539TIP3   OH265031   0.026   1.221  13.722 -0.4633 -0.6565 -0.3026
14539TIP3    H165032   0.065   1.143  13.759  0.4038  0.1940  0.6100
14539TIP3    H265033  -0.008   1.270  13.797  0.6725  0.7337 -0.6503
14540TIP3   OH265034   0.547   3.668  11.346 -0.3831 -0.1490  0.1850
14540TIP3    H165035   0.627   3.713  11.315 -1.1324  0.7337 -0.5270
14540TIP3    H265036   0.530   3.602  11.279  1.1564 -2.1182  1.6163
14541TIP3   OH265037   5.225   0.939  16.087  0.1640  0.1609  0.4967
14541TIP3    H165038   5.239   0.953  15.993 -0.4501 -0.5444  0.2862
14541TIP3    H265039   5.158   0.871  16.091  1.7562 -1.4430  1.4456
14542TIP3   OH265040   1.682   4.796  16.663 -0.6168  0.3416  0.4774
14542TIP3    H165041   1.605   4.740  16.670  0.9944 -1.8072  2.4136
14542TIP3    H265042   1.699   4.825  16.753  2.0387 -1.0468  0.5186
14543TIP3   OH265043   3.162   4.584   2.275  0.2638  0.5631 -0.2451
14543TIP3    H165044   3.094   4.567   2.340  0.8227  1.5695  0.6425
14543TIP3    H265045   3.184   4.497   2.241 -1.2888  0.1961 -0.3977
14544TIP3   OH265046   3.246   4.390   2.656 -0.4674  0.3803 -0.2315
14544TIP3    H165047   3.184   4.446   2.702 -0.6927  0.3466 -0.4907
14544TIP3    H265048   3.329   4.438   2.660 -0.5013  0.4128  0.1379
14545TIP3   OH265049   1.231   5.057   5.440 -0.2092 -0.2867 -0.1557
14545TIP3    H165050   1.219   5.041   5.534 -0.7625 -0.2347 -0.2157
14545TIP3    H265051   1.150   5.026   5.400 -1.1144  2.1087 -0.3477
14546TIP3   OH265052   3.579   3.490   0.519 -0.2059  0.3572 -0.0630
14546TIP3    H165053   3.587   3.584   0.537  1.3672  0.2698 -0.1309
14546TIP3    H265054   3.665   3.465   0.486 -0.5644 -1.1415  0.0648
14547TIP3   OH265055   0.391   3.563  16.893  0.4739  0.1701  0.5574
14547TIP3    H165056   0.328   3.576  16.964 -1.2960  0.5424 -0.9863
14547TIP3    H265057   0.341   3.518  16.825  2.5169 -1.5402  0.0939
14548TIP3   OH265058   1.708   3.169   3.807 -0.1031  0.4370  0.1399
14548TIP3    H165059   1.756   3.234   3.860  0.0428 -0.5222  1.2216
14548TIP3    H265060   1.772   3.100   3.789 -0.4988  0.1642 -0.2470
14549TIP3   OH265061   4.423   3.367   3.999  0.0514  0.0449 -0.5017
14549TIP3    H165062   4.334   3.404   4.002  0.4496  1.1078 -1.3537
14549TIP3    H265063   4.415   3.291   3.942 -0.5241 -0.5147  0.2929
14550TIP3   OH265064   1.908   6.472  13.848  0.0987 -0.3114 -0.5939
14550TIP3    H165065   1.884   6.454  13.939  1.4969  0.0416 -0.1266
14550TIP3    H265066   1.969   6.402  13.825 -1.8003 -1.6245 -1.9941
14551TIP3   OH265067   2.570   6.470  13.120 -0.1217  0.3452 -0.2240
14551TIP3    H165068   2.502   6.528  13.154 -0.1874  0.6810 -0.8921
14551TIP3    H265069   2.611   6.521  13.049  0.4570 -0.0626 -0.1889
14552TIP3   OH265070   1.620   5.004   4.540  0.0749 -0.0867  1.0543
14552TIP3    H165071   1.619   5.054   4.459 -0.0697 -0.0084  1.1031
14552TIP3    H265072   1.711   4.976   4.551  0.1784  0.2595  1.0846
14553TIP3   OH265073   0.809   2.807   4.806 -0.2880 -0.8188 -0.4201
14553TIP3    H165074   0.748   2.873   4.774 -0.5806 -0.1119  1.4602
14553TIP3    H265075   0.886   2.816   4.749  0.5285  2.6509  0.9353
14554TIP3   OH265076   3.020   5.221  16.961  0.1372 -0.5062  0.2111
14554TIP3    H165077   2.996   5.214  17.054  0.3923 -0.5190  0.2790
14554TIP3    H265078   3.083   5.150  16.948  0.0868 -0.5155  0.0228
14555TIP3   OH265079   4.303   6.303   2.704 -0.6167 -0.6201 -0.5695
14555TIP3    H165080   4.209   6.285   2.694 -0.4256 -1.1477 -1.4685
14555TIP3    H265081   4.331   6.335   2.619  0.0119 -0.3981 -0.2845
14556TIP3   OH265082   5.427   4.681  15.202 -0.2093  0.0385  0.1996
14556TIP3    H165083   5.347   4.655  15.247 -0.6983  1.3516  0.1268
14556TIP3    H265084   5.442   4.772  15.229  1.5645 -0.3356  0.6486
14557TIP3   OH265085   0.624   5.277   4.887 -0.4761 -0.1762 -0.1970
14557TIP3    H165086   0.647   5.367   4.914 -0.0246 -0.1340 -0.7066
14557TIP3    H265087   0.704   5.227   4.903 -1.2104 -0.8534  1.6390
14558TIP3   OH265088   3.402   4.858  15.175  0.4815  0.2845  0.2513
14558TIP3    H165089   3.319   4.887  15.214  0.1573  1.0277 -0.9209
14558TIP3    H265090   3.382   4.846  15.082  1.3623 -0.8907  0.1867
14559TIP3   OH265091   0.932   4.110   5.443  0.0854 -0.0935 -0.0938
14559TIP3    H165092   0.903   4.019   5.443 -0.1879 -0.0797  2.4430
14559TIP3    H265093   1.027   4.105   5.442  0.0809 -0.4443  0.7422
14560TIP3   OH265094   3.175   1.918   3.195 -0.2503 -0.0110 -1.1499
14560TIP3    H165095   3.166   2.010   3.172 -1.2805  0.2588  0.2416
14560TIP3    H265096   3.212   1.919   3.283 -0.0792 -0.9334 -1.2039
14561TIP3   OH265097   0.337   6.236  13.723 -0.1009 -0.6526 -0.7052
14561TIP3    H165098   0.361   6.329  13.722  0.6464 -0.8301 -0.0974
14561TIP3    H265099   0.246   6.234  13.691 -0.2731  0.3318 -0.2982
14562TIP3   OH265100   4.497   1.965   0.019 -0.4529 -0.1476 -0.2684
14562TIP3    H165101   4.467   1.912  -0.055  2.9696 -2.0261 -0.4951
14562TIP3    H265102   4.565   2.022  -0.017  0.9021 -0.7167  1.2728
14563TIP3   OH265103   2.214   3.239   5.649  0.1540 -0.2206 -0.1100
14563TIP3    H165104   2.287   3.284   5.691  0.2031  0.7310 -1.1688
14563TIP3    H265105   2.136   3.283   5.682  0.0369 -1.1859  0.9602
14564TIP3   OH265106   0.154   3.490  16.722  0.2582 -0.2551 -0.4134
14564TIP3    H165107   0.125   3.422  16.783  2.2936 -0.1694  0.7479
14564TIP3    H265108   0.075   3.540  16.703 -0.5753 -0.5899  1.8268
14565TIP3   OH265109   4.093   2.562   2.127  0.0006  0.1534  0.0019
14565TIP3    H165110   4.030   2.633   2.139  0.4042  0.4379  0.5067
14565TIP3    H265111   4.072   2.525   2.041 -1.8242 -0.7684  0.8006
14566TIP3   OH265112   0.156   5.584   2.319  0.2530  0.1261  0.2916
14566TIP3    H165113   0.190   5.494   2.326 -1.6180 -0.7888 -1.2899
14566TIP3    H265114   0.066   5.578   2.350 -0.3322  1.1468 -1.1243
14567TIP3   OH265115   3.300   1.807   4.149  0.0913  0.0320 -0.3136
14567TIP3    H165116   3.283   1.741   4.083 -2.4942  0.3419 -0.0545
14567TIP3    H265117   3.225   1.802   4.208  1.1298  1.4103  1.2081
14568TIP3   OH265118   1.086   1.614  13.024 -0.1487  0.6082  0.1521
14568TIP3    H165119   1.076   1.519  13.025 -0.2245  0.6178  1.0153
14568TIP3    H265120   1.141   1.632  12.947 -1.9511  0.0719 -1.3345
14569TIP3   OH265121   2.326   5.218   3.536 -0.6798 -0.1852 -0.5474
14569TIP3    H165122   2.402   5.229   3.478  0.1805  1.2085  0.7428
14569TIP3    H265123   2.254   5.196   3.477  0.7982 -2.1318 -1.7753
14570TIP3   OH265124   6.451   4.959  11.166 -0.1426 -0.0807 -0.3070
14570TIP3    H165125   6.544   4.973  11.184  0.4313 -0.6437 -2.5368
14570TIP3    H265126   6.406   5.016  11.228  1.6928  0.4711  0.5868
14571TIP3   OH265127   4.245   0.546  11.381 -0.1130 -0.5481  0.7651
14571TIP3    H165128   4.295   0.464  11.376  1.9866  0.7601 -1.7106
14571TIP3    H265129   4.194   0.548  11.300  0.9377  1.1737  0.0995
14572TIP3   OH265130   1.393   0.076  13.580  0.2712  0.1406  0.0420
14572TIP3    H165131   1.385   0.018  13.656 -0.9060 -0.0963 -0.2516
14572TIP3    H265132   1.395   0.018  13.505 -2.3119  0.4546 -0.3626
14573TIP3   OH265133   4.477   0.264   0.293 -0.2104 -0.6574  0.1333
14573TIP3    H165134   4.393   0.219   0.300  0.5118 -1.9825  0.6188
14573TIP3    H265135   4.491   0.274   0.199  0.2310 -2.7357 -0.0820
14574TIP3   OH265136   5.321   3.796  14.488 -0.1481  0.0933 -0.0485
14574TIP3    H165137   5.325   3.888  14.515 -3.1319  0.5639 -0.8308
14574TIP3    H265138   5.227   3.775  14.486  0.3011 -2.3102 -2.0243
14575TIP3   OH265139   0.474   0.016  11.325  0.4491 -0.5904 -0.0118
14575TIP3    H165140   0.437   0.025  11.237  0.4340 -0.5751 -0.0034
14575TIP3    H265141   0.411   0.060  11.382  0.3497 -0.7929  0.0345
14576TIP3   OH265142   5.350   3.901  11.526  0.5945  0.0499  0.2341
14576TIP3    H165143   5.327   3.975  11.469  0.1159  1.3541  2.0152
14576TIP3    H265144   5.276   3.841  11.518  1.0101 -0.3034 -1.2796
14577TIP3   OH265145   6.704   2.298   5.090 -0.1312 -0.0655  0.1468
14577TIP3    H165146   6.642   2.369   5.103 -1.5193 -1.4508  1.4821
14577TIP3    H265147   6.701   2.248   5.172  3.8831  0.6166  0.9470
14578TIP3   OH265148   4.393   6.323  16.861  0.2192 -0.6017  0.3832
14578TIP3    H165149   4.398   6.414  16.834 -2.0830 -1.4088 -3.5912
14578TIP3    H265150   4.307   6.314  16.902 -0.0640 -1.1831 -0.3203
14579TIP3   OH265151   6.623   2.148   4.043  0.2190 -0.3187  0.0999
14579TIP3    H165152   6.629   2.226   4.098  1.1462 -0.2812 -0.0364
14579TIP3    H265153   6.678   2.083   4.088  1.2216 -0.1982 -0.9018
14580TIP3   OH265154   1.932   4.666  11.021  0.7121  0.3223 -0.2989
14580TIP3    H165155   1.980   4.589  11.053  0.9413 -0.6096 -2.6460
14580TIP3    H265156   1.952   4.735  11.085  1.2208 -1.3120  1.4028
14581TIP3   OH265157   4.506   4.152  11.548  0.2781 -0.2292  0.1559
14581TIP3    H165158   4.459   4.069  11.556 -0.1338  0.0759  1.0389
14581TIP3    H265159   4.497   4.176  11.456 -1.1965 -0.2609  0.2682
14582TIP3   OH265160   3.788   1.821  16.548 -0.2261 -0.6052 -0.3946
14582TIP3    H165161   3.727   1.815  16.474 -2.0842  1.7982  0.7810
14582TIP3    H265162   3.807   1.914  16.556 -0.2422 -0.7415  2.1990
14583TIP3   OH265163   2.262   2.425   2.437 -0.1343 -0.1750 -0.0866
14583TIP3    H165164   2.203   2.471   2.497 -2.4360 -1.9864 -0.8043
14583TIP3    H265165   2.314   2.369   2.494 -1.1317 -0.6516  0.3842
14584TIP3   OH265166   4.193   0.512   3.310  0.1647 -0.4735 -0.2212
14584TIP3    H165167   4.136   0.533   3.236 -2.0943  1.6374  1.9700
14584TIP3    H265168   4.258   0.583   3.311 -0.6316  0.2585  0.5794
14585TIP3   OH265169   2.425   2.317  15.902 -0.1548  0.3886 -0.3835
14585TIP3    H165170   2.492   2.273  15.955 -0.8316 -1.4957 -0.9810
14585TIP3    H265171   2.384   2.379  15.961  0.0908 -0.6083  0.8864
14586TIP3   OH265172   2.114   1.142   4.015  0.0612 -0.4599  0.1518
14586TIP3    H165173   2.105   1.118   4.107 -0.4810 -0.6259  0.0578
14586TIP3    H265174   2.107   1.060   3.967  0.4116 -0.3830 -0.0386
14587TIP3   OH265175   4.034   4.542  16.579 -0.2540  0.4126 -0.3797
14587TIP3    H165176   4.011   4.612  16.518 -1.5688  1.2597  0.9920
14587TIP3    H265177   4.127   4.555  16.597 -0.2664  1.2442 -0.8551
14588TIP3   OH265178   2.439   4.325   1.676  0.4270 -0.4246  0.0569
14588TIP3    H165179   2.374   4.265   1.713 -0.5368  0.2968 -0.4078
14588TIP3    H265180   2.440   4.399   1.737 -2.2123  1.4338 -1.9184
14589TIP3   OH265181   6.373   2.534   6.962  0.1361  0.4480 -0.2992
14589TIP3    H165182   6.376   2.573   6.875 -0.4743  2.0717  0.3650
14589TIP3    H265183   6.464   2.533   6.991  0.1825  1.3389 -0.3776
14590TIP3   OH265184   2.037   1.301   2.173 -0.1387 -0.1324  0.2069
14590TIP3    H165185   1.959   1.331   2.220 -0.6758 -0.9995 -0.1029
14590TIP3    H265186   2.012   1.217   2.136  1.5273 -1.3225  1.6331
14591TIP3   OH265187   1.809   2.459   5.021 -0.0788 -0.2966 -0.4681
14591TIP3    H165188   1.822   2.554   5.017  0.5218 -0.3961 -1.0940
14591TIP3    H265189   1.756   2.440   4.944  0.1177 -0.5168 -0.5490
14592TIP3   OH265190   3.651   4.351   4.845 -0.6706 -0.6063  0.0573
14592TIP3    H165191   3.726   4.306   4.884 -1.3854 -0.9283  1.0827
14592TIP3    H265192   3.684   4.438   4.824  0.4680 -1.2624 -1.0960
14593TIP3   OH265193   6.552   3.226   5.212 -0.3485  1.0554 -0.2225
14593TIP3    H165194   6.494   3.279   5.157 -1.3187 -0.5620 -0.8388
14593TIP3    H265195   6.502   3.146   5.228  1.6086 -0.2927 -0.5183
14594TIP3   OH265196   2.353   5.858   5.576 -0.0596  0.5192 -0.2843
14594TIP3    H165197   2.398   5.779   5.607 -1.3480 -0.0796  0.1304
14594TIP3    H265198   2.298   5.885   5.650  0.0196  1.5484 -0.5816
14595TIP3   OH265199   2.883   4.029   3.247  0.7766  0.3838 -0.4020
14595TIP3    H165200   2.800   3.992   3.215  0.3583  0.0604  1.0023
14595TIP3    H265201   2.901   4.102   3.187 -1.1191  1.1744 -0.0747
14596TIP3   OH265202   6.516   1.089   6.090  0.2410  0.1462  0.7632
14596TIP3    H165203   6.582   1.079   6.022  0.6598  2.2962  0.7813
14596TIP3    H265204   6.566   1.102   6.171 -0.2385 -0.4708  1.1701
14597TIP3   OH265205   3.030   4.854  11.305 -0.1856  0.6686 -0.2665
14597TIP3    H165206   3.003   4.763  11.295 -0.7132  0.7884 -0.0249
14597TIP3    H265207   3.014   4.893  11.219 -1.5367  0.9097  0.0559
14598TIP3   OH265208   3.956   0.925   3.480 -0.1919  0.1638 -0.2533
14598TIP3    H165209   4.030   0.866   3.491  1.0236  1.4188 -1.3374
14598TIP3    H265210   3.949   0.972   3.563 -1.8801 -2.1718  1.0457
14599TIP3   OH265211   4.914   1.614  15.870  0.4079 -0.3076  0.5277
14599TIP3    H165212   4.988   1.675  15.873  0.1977  0.0618 -0.7862
14599TIP3    H265213   4.951   1.529  15.893  1.4135 -0.2534 -0.7634
14600TIP3   OH265214   5.221   5.629  17.181  0.7218 -0.2589  0.1772
14600TIP3    H165215   5.291   5.691  17.162  0.2803 -0.2897 -1.7672
14600TIP3    H265216   5.150   5.683  17.216  0.6940  0.2180 -0.5769
14601TIP3   OH265217   5.350   3.863  15.131  0.5007 -0.0285  0.1940
14601TIP3    H165218   5.293   3.826  15.198 -0.4142  0.2838 -0.3860
14601TIP3    H265219   5.357   3.794  15.065 -2.4330  1.1967 -1.6260
14602TIP3   OH265220   2.216   6.190  16.311  0.1734  0.7783  0.0790
14602TIP3    H165221   2.178   6.112  16.350  0.3118 -0.0401 -1.3509
14602TIP3    H265222   2.147   6.256  16.317 -0.0306  0.4837  1.0826
14603TIP3   OH265223   3.330   3.459  11.808  0.1627  0.0109 -0.1460
14603TIP3    H165224   3.302   3.397  11.741  1.9324  0.7646 -1.6589
14603TIP3    H265225   3.426   3.460  11.803  0.3309  0.5654  1.9898
14604TIP3   OH265226   0.945   5.162   5.536 -0.4221 -0.2695 -0.0130
14604TIP3    H165227   0.901   5.180   5.619 -0.5868 -1.5011  0.1749
14604TIP3    H265228   0.956   5.067   5.534 -1.5817 -0.4371 -1.9648
14605TIP3   OH265229   5.558   1.204   5.824  0.0520  0.5867  0.0142
14605TIP3    H165230   5.486   1.204   5.888  0.9673 -1.1762  1.1247
14605TIP3    H265231   5.618   1.137   5.856  1.2686  0.6783 -1.9452
14606TIP3   OH265232   6.280   0.702   0.106  0.2922  0.1934  0.0027
14606TIP3    H165233   6.297   0.683   0.198  0.6678  0.5300  0.0081
14606TIP3    H265234   6.289   0.617   0.062 -1.3644 -0.2581  0.4591
14607TIP3   OH265235   1.515   0.860  14.737 -0.4530  0.0016 -0.1282
14607TIP3    H165236   1.573   0.795  14.776 -0.3780 -0.9380 -1.7325
14607TIP3    H265237   1.437   0.811  14.712  0.0220  0.2731 -2.3097
14608TIP3   OH265238   2.254   4.070   3.563  0.3202 -0.1978  0.5123
14608TIP3    H165239   2.215   4.109   3.641 -0.0825 -1.0650  0.7640
14608TIP3    H265240   2.183   4.071   3.498  0.4141 -0.1800  0.4110
14609TIP3   OH265241   6.125   5.490   1.532  0.2551 -0.2348 -0.3866
14609TIP3    H165242   6.124   5.532   1.618  0.4622 -1.4635  0.2298
14609TIP3    H265243   6.196   5.535   1.485 -1.2470  1.9560 -0.7457
14610TIP3   OH265244   3.351   2.663   2.688 -0.0532  0.2853 -0.0923
14610TIP3    H165245   3.399   2.704   2.617  0.2426  0.3668  0.1532
14610TIP3    H265246   3.289   2.730   2.717  0.7507  0.7465  0.6252
14611TIP3   OH265247   1.205   2.167   2.959  0.6321 -0.3882  0.2775
14611TIP3    H165248   1.237   2.137   3.044 -0.7129 -0.0965  0.9230
14611TIP3    H265249   1.282   2.199   2.913  1.2451  0.4282  1.8102
14612TIP3   OH265250   2.546   1.754  12.015  0.1855  0.4094 -0.1538
14612TIP3    H165251   2.554   1.849  12.013  3.2995  0.2273 -1.4762
14612TIP3    H265252   2.519   1.730  11.927 -0.1012  0.0329  0.0353
14613TIP3   OH265253   3.814   4.331  17.012  0.1682 -0.3082 -0.1902
14613TIP3    H165254   3.769   4.389  16.951 -2.6473 -1.0118  1.0135
14613TIP3    H265255   3.813   4.379  17.095  1.2013 -0.5783 -0.0149
14614TIP3   OH265256   5.599   3.309  14.496 -0.0548 -0.0523 -0.1616
14614TIP3    H165257   5.506   3.294  14.481 -0.2504 -0.3130  1.1515
14614TIP3    H265258   5.634   3.222  14.516  0.0502  0.2984  1.3160
14615TIP3   OH265259   2.146   4.506  13.304 -0.1662 -0.6564 -0.1032
14615TIP3    H165260   2.193   4.441  13.356 -0.4031 -0.2667  0.6212
14615TIP3    H265261   2.068   4.526  13.356  0.5658  1.2112  0.3745
14616TIP3   OH265262   2.417   1.188   4.476 -0.3246  0.1993 -0.5803
14616TIP3    H165263   2.499   1.157   4.438 -0.6980 -2.1676  0.3400
14616TIP3    H265264   2.443   1.261   4.532  1.2715 -0.8479  0.1219
14617TIP3   OH265265   2.271   2.794  12.294 -0.4327  0.2550  0.7000
14617TIP3    H165266   2.192   2.745  12.268 -0.5061  0.1581  1.0970
14617TIP3    H265267   2.319   2.806  12.212 -1.2034  0.9370  0.3357
14618TIP3   OH265268   1.178   5.293   3.223  0.2927  0.0685  0.6076
14618TIP3    H165269   1.096   5.249   3.243 -1.0882  2.0960 -0.2381
14618TIP3    H265270   1.221   5.236   3.159 -0.3564 -1.0650  1.1405
14619TIP3   OH265271   6.625   4.222   1.184 -0.4915  0.2990  0.1573
14619TIP3    H165272   6.643   4.128   1.184  0.1114  0.3884  1.5494
14619TIP3    H265273   6.530   4.229   1.190 -0.6338 -0.1989 -1.1470
14620TIP3   OH265274   4.290   5.534   5.017 -0.3995 -0.2479  0.0154
14620TIP3    H165275   4.291   5.629   5.008 -0.9347 -0.1825  0.5496
14620TIP3    H265276   4.228   5.504   4.950  0.3707 -0.2963 -0.6927
14621TIP3   OH265277   6.584   3.788   1.666  0.6116  0.3039  0.3873
14621TIP3    H165278   6.558   3.725   1.734 -0.6587  2.2893  1.8851
14621TIP3    H265279   6.503   3.835   1.646  2.0934  4.2023  2.4316
14622TIP3   OH265280   3.657   2.378  13.764 -0.4274 -0.1639  0.3797
14622TIP3    H165281   3.641   2.433  13.688  1.7102  0.3587  0.2420
14622TIP3    H265282   3.665   2.440  13.837  0.3618 -0.4114  0.5127
14623TIP3   OH265283   6.523   6.582   3.294 -0.3613 -0.4432  0.0210
14623TIP3    H165284   6.542   6.675   3.278 -1.6642 -0.0737  0.4810
14623TIP3    H265285   6.575   6.560   3.372 -0.4653  0.0427  0.2293
14624TIP3   OH265286   0.472   4.997   4.308  0.2357  0.7725 -0.2415
14624TIP3    H165287   0.525   4.918   4.312 -1.3965 -0.5021 -2.0109
14624TIP3    H265288   0.523   5.058   4.254  0.9815  0.4867  0.1386
14625TIP3   OH265289   5.555   5.803  13.457 -0.1325 -0.7726  0.1115
14625TIP3    H165290   5.498   5.773  13.528  0.2373 -1.2656  0.2057
14625TIP3    H265291   5.578   5.893  13.481 -3.1407  0.5586 -1.3345
14626TIP3   OH265292   1.777   2.541   3.419 -0.9618 -0.1697  0.1605
14626TIP3    H165293   1.761   2.539   3.325  0.7878 -0.7446 -0.1762
14626TIP3    H265294   1.822   2.458   3.437 -0.4159  0.3512  1.3248
14627TIP3   OH265295   6.736   5.586   1.689 -0.1432  0.0995 -0.1756
14627TIP3    H165296   6.826   5.583   1.720 -0.1965 -0.6747 -0.0628
14627TIP3    H265297   6.716   5.679   1.680  1.3434  0.3072 -2.1378
14628TIP3   OH265298   1.520   5.945  13.777  0.2250 -0.6177  0.6094
14628TIP3    H165299   1.461   5.912  13.710  0.4471  1.2073 -0.5548
14628TIP3    H265300   1.599   5.971  13.729  0.5222  0.4182  1.6067
14629TIP3   OH265301   4.660   1.989  16.335 -0.0162 -0.3409 -0.2028
14629TIP3    H165302   4.574   2.024  16.313  0.8042  0.4978 -2.3290
14629TIP3    H265303   4.696   1.960  16.251  1.7644 -0.6847  0.6358
14630TIP3   OH265304   5.726   3.242   0.151 -0.3415 -0.0651  0.0500
14630TIP3    H165305   5.784   3.199   0.088 -0.8371 -0.7129  0.0268
14630TIP3    H265306   5.778   3.314   0.186  0.5162 -0.6928  0.0966
14631TIP3   OH265307   4.014   6.704  12.672  0.4220  0.0872  0.2447
14631TIP3    H165308   3.984   6.645  12.741  0.0345  1.2554  1.1285
14631TIP3    H265309   4.103   6.675  12.652  0.0303 -1.1307  0.2473
14632TIP3   OH265310   1.023   3.837  15.373 -0.1659 -0.0609 -0.2101
14632TIP3    H165311   1.027   3.930  15.352  1.5850 -0.1136 -0.2627
14632TIP3    H265312   1.086   3.797  15.313 -0.4675 -1.2064  0.2189
14633TIP3   OH265313   3.752   1.884  15.311  0.1161  0.3902 -0.1102
14633TIP3    H165314   3.835   1.852  15.345  0.6555  2.9594  1.2330
14633TIP3    H265315   3.771   1.908  15.220  0.6301  0.2773 -0.0307
14634TIP3   OH265316   6.534   0.028   0.197 -0.6851  0.6486 -0.0849
14634TIP3    H165317   6.486  -0.055   0.198 -1.3210  1.0047  1.4830
14634TIP3    H265318   6.519   0.064   0.109 -0.8083 -0.6442 -0.6162
14635TIP3   OH265319   0.943   5.153   3.304  0.0595  0.1245  0.4024
14635TIP3    H165320   0.969   5.099   3.378  0.3918 -0.9321 -0.4615
14635TIP3    H265321   0.877   5.213   3.340  0.2232 -0.3580  1.5394
14636TIP3   OH265322   4.904   4.011   5.237 -0.6944  0.3681  0.3810
14636TIP3    H165323   4.904   3.995   5.332 -0.0465 -1.7247  0.0768
14636TIP3    H265324   4.925   3.926   5.199  1.7682  1.7253 -1.5569
14637TIP3   OH265325   3.869   0.482  13.039 -0.2968  0.3994  0.3034
14637TIP3    H165326   3.778   0.481  13.011 -0.1293 -0.6680 -0.2650
14637TIP3    H265327   3.917   0.514  12.963  0.0483 -1.5237 -0.3597
14638TIP3   OH265328   5.463   2.021   4.965 -0.1694 -0.1673 -0.7526
14638TIP3    H165329   5.405   1.946   4.977 -0.5010  0.4448  2.0034
14638TIP3    H265330   5.465   2.065   5.049  3.0355  0.7931 -1.1602
14639TIP3   OH265331   4.134   6.219  13.396  0.0260  0.8421 -0.3591
14639TIP3    H165332   4.054   6.172  13.422  0.1157  0.4646 -0.7497
14639TIP3    H265333   4.105   6.308  13.379 -0.3738  0.6298 -0.8067
14640TIP3   OH265334   4.105   4.115  16.163  0.3936  0.4759 -0.0266
14640TIP3    H165335   4.071   4.026  16.160  0.9391  0.1101  2.5540
14640TIP3    H265336   4.051   4.160  16.227  1.8856  1.1490  0.8275
14641TIP3   OH265337   5.912   4.522  13.888  0.5034 -0.2444 -0.6384
14641TIP3    H165338   5.848   4.452  13.879 -1.2824  1.0841  0.9592
14641TIP3    H265339   5.860   4.600  13.905  2.5357  0.8088  1.2881
14642TIP3   OH265340   1.012   6.495  15.338 -0.9295  0.2179  0.7891
14642TIP3    H165341   0.970   6.411  15.323 -1.5087  0.5649  0.4271
14642TIP3    H265342   1.050   6.487  15.426  1.6747 -1.4972 -0.3698
14643TIP3   OH265343   6.112   2.058   2.365  0.4206  0.0580 -0.3017
14643TIP3    H165344   6.024   2.080   2.336  0.7758  1.4976 -0.3541
14643TIP3    H265345   6.163   2.050   2.285  0.2928 -1.0334 -0.2839
14644TIP3   OH265346   0.350   5.863  15.855 -0.2920  0.5508 -0.0134
14644TIP3    H165347   0.445   5.847  15.852 -0.2245  1.0341 -1.0564
14644TIP3    H265348   0.316   5.795  15.913  0.9092  1.5244  1.9518
14645TIP3   OH265349   0.552   4.076  14.269 -0.0871  0.1929  0.0834
14645TIP3    H165350   0.491   4.066  14.196 -1.6650 -0.5197  1.4240
14645TIP3    H265351   0.498   4.060  14.347  1.8337 -0.4662  1.3352
14646TIP3   OH265352   1.691   1.900   1.495 -0.8141 -0.2268  0.6910
14646TIP3    H165353   1.621   1.836   1.481 -1.6012  0.8855 -0.6556
14646TIP3    H265354   1.727   1.918   1.408  0.5630 -0.0960  1.2492
14647TIP3   OH265355   4.160   0.069  16.037  0.2954 -0.0895  0.3057
14647TIP3    H165356   4.094   0.034  15.976 -0.9398  0.1122  1.4742
14647TIP3    H265357   4.175   0.159  16.007 -0.3628  0.0352  0.3252
14648TIP3   OH265358   5.879   0.749   1.975  0.4699  0.1726  0.1077
14648TIP3    H165359   5.866   0.670   1.923  1.6543  0.6077 -0.9092
14648TIP3    H265360   5.971   0.771   1.962  0.5199  0.9257  1.5308
14649TIP3   OH265361   2.970   5.858  11.619 -0.0275 -0.4569 -0.5068
14649TIP3    H165362   3.031   5.902  11.678 -1.3726  1.1070 -0.2182
14649TIP3    H265363   3.012   5.863  11.533  0.4753  0.1693 -0.2360
14650TIP3   OH265364   2.561   3.457   5.508 -0.0755 -0.0984 -0.1682
14650TIP3    H165365   2.468   3.475   5.526  0.0967  1.3490 -0.5860
14650TIP3    H265366   2.608   3.501   5.578  0.3334  0.0142 -0.5081
14651TIP3   OH265367   2.346   3.683  16.295  0.0846 -0.0861 -0.0222
14651TIP3    H165368   2.278   3.643  16.349  0.5195 -0.1454  0.4902
14651TIP3    H265369   2.299   3.719  16.220 -0.5235 -0.0427  0.3721
14652TIP3   OH265370   2.085   3.331   1.389 -0.1795 -0.3707  0.2742
14652TIP3    H165371   2.001   3.285   1.394 -1.0201  1.1838  1.6120
14652TIP3    H265372   2.100   3.364   1.477  1.6262 -0.1979 -0.0504
14653TIP3   OH265373   1.675   6.297   1.744  0.0698 -0.0703  0.3848
14653TIP3    H165374   1.643   6.387   1.733  0.5325  0.2121  1.2203
14653TIP3    H265375   1.734   6.302   1.819  1.6245 -0.6975 -0.7502
14654TIP3   OH265376   2.206   6.202  15.398  0.0557 -0.3224 -0.2028
14654TIP3    H165377   2.285   6.211  15.344  0.3836  2.1115  0.5380
14654TIP3    H265378   2.239   6.179  15.484 -0.2680 -1.6359 -0.4086
14655TIP3   OH265379   3.912   2.946   1.339  0.3364 -0.3516  0.2020
14655TIP3    H165380   3.963   2.892   1.399 -1.3143 -0.5253  1.5416
14655TIP3    H265381   3.975   2.975   1.273  1.8618 -1.5644  1.0501
14656TIP3   OH265382   1.839   3.923  16.982 -0.1529 -0.2397 -0.0303
14656TIP3    H165383   1.788   3.878  17.048  0.6000  0.8776  1.3900
14656TIP3    H265384   1.910   3.966  17.031  0.8269  0.0944 -1.6373
14657TIP3   OH265385   1.789   0.761  12.303 -0.0141 -0.5342 -0.1314
14657TIP3    H165386   1.828   0.770  12.390 -0.9169 -2.1767  0.4996
14657TIP3    H265387   1.847   0.810  12.245 -0.5853  2.5486  1.6743
14658TIP3   OH265388   1.229   1.865   3.432 -0.0016  0.0710 -0.4125
14658TIP3    H165389   1.200   1.886   3.521  1.6620 -1.6712  0.6004
14658TIP3    H265390   1.264   1.948   3.399 -1.3996  0.9527  0.2049
14659TIP3   OH265391   3.124   3.176  13.502 -0.3529 -0.0843  0.1275
14659TIP3    H165392   3.126   3.088  13.538  1.4273  0.1453  0.6717
14659TIP3    H265393   3.148   3.166  13.410  1.4967 -0.0351  0.5731
14660TIP3   OH265394   0.576   3.568  16.084 -0.0870  0.6005 -0.0679
14660TIP3    H165395   0.488   3.603  16.076 -0.6889 -0.7180  0.4768
14660TIP3    H265396   0.568   3.476  16.057  1.2216  0.5947 -0.5099
14661TIP3   OH265397   5.822   4.947  10.298 -0.4561 -0.0900  0.0290
14661TIP3    H165398   5.788   4.860  10.320  0.1473 -0.2547  0.3445
14661TIP3    H265399   5.803   5.001  10.375 -0.6552  0.0086 -0.0876
14662TIP3   OH265400   1.935   2.855   0.782 -0.2762 -0.3233 -0.3266
14662TIP3    H165401   2.013   2.808   0.813  0.1935  0.2684 -0.5966
14662TIP3    H265402   1.871   2.843   0.852  0.3210 -0.1460  0.2653
14663TIP3   OH265403   4.983   6.496   3.739  0.2830 -0.4861 -0.3614
14663TIP3    H165404   4.997   6.589   3.722  1.2569 -0.4787  0.4238
14663TIP3    H265405   4.993   6.454   3.654 -4.0824  0.4854 -1.5912
14664TIP3   OH265406   2.366   4.043  15.373  0.1901  0.5146 -0.1247
14664TIP3    H165407   2.442   4.070  15.424  1.5543  1.1895 -2.3844
14664TIP3    H265408   2.368   4.099  15.295 -2.1332 -0.0538 -0.6808
14665TIP3   OH265409   1.986   3.104  14.004 -0.4313 -0.5802  0.5146
14665TIP3    H165410   2.043   3.181  14.010  0.2319 -1.0682  0.6816
14665TIP3    H265411   2.018   3.045  14.073  0.9422 -2.2027 -1.3877
14666TIP3   OH265412   4.563   3.988   2.331  0.3990 -0.1084  0.0802
14666TIP3    H165413   4.588   4.040   2.408  0.4195  0.7747 -0.5192
14666TIP3    H265414   4.486   4.032   2.296 -0.1471 -1.0248  0.0933
14667TIP3   OH265415   4.067   4.307  16.940 -0.1136 -0.4500  0.0537
14667TIP3    H165416   4.058   4.221  16.899 -1.2002 -0.5310  0.4222
14667TIP3    H265417   3.981   4.322  16.981  0.7823 -0.2132  1.9440
14668TIP3   OH265418   4.213   6.072  15.345  0.1569 -0.3404 -0.3547
14668TIP3    H165419   4.255   6.085  15.430 -0.8059 -1.4283  0.3227
14668TIP3    H265420   4.135   6.020  15.365  0.4032 -1.4258 -2.0234
14669TIP3   OH265421   2.866   4.267   4.923 -0.6658 -0.2443 -0.5770
14669TIP3    H165422   2.857   4.328   4.997 -0.1286 -0.2619 -0.4939
14669TIP3    H265423   2.829   4.314   4.849 -3.4480 -1.1195  0.1347
14670TIP3   OH265424   0.818   3.657  16.031  1.2127 -0.6104 -0.2494
14670TIP3    H165425   0.726   3.635  16.046  0.5834  0.2136 -2.4593
14670TIP3    H265426   0.866   3.582  16.064 -0.2673 -1.1401  0.8079
14671TIP3   OH265427   5.954   4.289  15.630  0.3167  0.2965  0.5548
14671TIP3    H165428   5.866   4.315  15.658 -0.3395 -1.2762  0.0557
14671TIP3    H265429   5.963   4.328  15.542  0.0179  0.2601  0.5052
14672TIP3   OH265430   4.340   4.270  16.984  0.2321 -0.2135  0.0334
14672TIP3    H165431   4.345   4.176  16.998 -0.1352 -0.5724 -1.9614
14672TIP3    H265432   4.246   4.287  16.973  0.4900 -0.2615 -3.1312
14673TIP3   OH265433   2.752   3.489  12.680  0.3920 -0.4836  0.2105
14673TIP3    H165434   2.770   3.582  12.661 -1.3375  0.1247  1.3357
14673TIP3    H265435   2.754   3.447  12.595  0.6075  0.6977 -0.3993
14674TIP3   OH265436   1.215   5.429  13.530  0.3028 -0.0094  0.3832
14674TIP3    H165437   1.303   5.460  13.550 -0.3523  2.1864  0.1668
14674TIP3    H265438   1.225   5.378  13.450  1.1480  1.7761 -0.6980
14675TIP3   OH265439   3.863   4.334  15.527 -0.2797  0.3844 -0.2806
14675TIP3    H165440   3.786   4.285  15.559  1.2024 -0.3147  2.5016
14675TIP3    H265441   3.855   4.420  15.567  0.0220  0.5619 -0.5969
14676TIP3   OH265442   0.628   6.609  16.328 -0.0655 -0.0249 -0.5434
14676TIP3    H165443   0.638   6.684  16.269 -1.1152 -0.6467 -1.5586
14676TIP3    H265444   0.668   6.638  16.410  1.2739  0.9300 -1.4881
14677TIP3   OH265445   4.954   2.965   0.748  0.0528 -0.6646 -0.0241
14677TIP3    H165446   4.947   3.058   0.725 -1.3240 -1.0195 -1.1625
14677TIP3    H265447   5.036   2.937   0.708  0.3896 -0.0005  0.1741
14678TIP3   OH265448   0.492   1.536   2.678  0.1773  1.0240 -0.0041
14678TIP3    H165449   0.531   1.535   2.765  0.3458  0.9035 -0.0783
14678TIP3    H265450   0.431   1.462   2.678 -0.0663  1.2265  0.1198
14679TIP3   OH265451   0.543   3.814   2.117 -0.0348  0.5022 -0.0796
14679TIP3    H165452   0.556   3.902   2.155 -1.1841  0.9021 -0.5725
14679TIP3    H265453   0.449   3.798   2.126 -0.6437  1.1197 -3.7306
14680TIP3   OH265454   5.301   5.192   3.643  0.0678 -0.5424  0.4329
14680TIP3    H165455   5.239   5.180   3.571 -2.0591  0.5194  1.9648
14680TIP3    H265456   5.266   5.139   3.715  0.9314  0.0896  1.3526
14681TIP3   OH265457   3.301   5.071   2.141  0.0295 -0.1061  0.2629
14681TIP3    H165458   3.215   5.077   2.100 -0.2398  0.4504  0.8910
14681TIP3    H265459   3.326   4.979   2.130  0.3516  0.1734 -1.8754
14682TIP3   OH265460   1.316   2.483   3.189 -0.3587  0.1659  0.0553
14682TIP3    H165461   1.389   2.436   3.150 -2.2503 -2.3407 -0.6677
14682TIP3    H265462   1.283   2.539   3.119 -0.2503 -0.0384 -0.1597
14683TIP3   OH265463   6.161   2.943   0.892  0.0951 -0.8020  0.0571
14683TIP3    H165464   6.074   2.981   0.878  0.7465  0.6400 -0.3017
14683TIP3    H265465   6.168   2.874   0.826 -0.8193 -1.0161  0.1685
14684TIP3   OH265466   0.952   1.778   0.343  0.3877 -0.1879  0.2658
14684TIP3    H165467   0.911   1.706   0.391  1.1088 -1.5186 -1.0475
14684TIP3    H265468   0.891   1.851   0.354 -0.7245 -1.1861  1.0340
14685TIP3   OH265469   4.876   2.417   0.974  0.3726  0.5163 -0.6338
14685TIP3    H165470   4.930   2.351   1.019 -1.7158 -1.2021 -0.5070
14685TIP3    H265471   4.881   2.393   0.882  0.7466  1.0746 -0.7633
14686TIP3   OH265472   4.699   4.626  11.553 -0.0308 -0.0006  0.1200
14686TIP3    H165473   4.617   4.578  11.544  0.9091 -1.3674 -1.7855
14686TIP3    H265474   4.725   4.611  11.644 -2.1787  1.0474  0.9691
14687TIP3   OH265475   2.161   4.587  11.865 -0.2601 -0.2341 -0.5416
14687TIP3    H165476   2.131   4.560  11.952  1.1104  2.5141  0.9072
14687TIP3    H265477   2.100   4.655  11.838  0.5626  0.4427 -0.7326
14688TIP3   OH265478   4.460   6.269   1.856  0.3124  0.3113 -0.1613
14688TIP3    H165479   4.532   6.220   1.816 -1.1389 -1.0204 -1.3032
14688TIP3    H265480   4.410   6.303   1.782  0.1205  1.7967  0.6107
14689TIP3   OH265481   6.505   3.646  14.044 -0.2550  0.3246  0.0768
14689TIP3    H165482   6.412   3.663  14.028 -0.7589 -2.1774  0.0679
14689TIP3    H265483   6.542   3.628  13.958  0.0791  0.4685  0.1868
14690TIP3   OH265484   4.749   5.122   5.307 -0.3416 -0.1499 -0.5116
14690TIP3    H165485   4.699   5.073   5.242 -1.0891  0.5449 -0.4761
14690TIP3    H265486   4.682   5.164   5.362  0.2288 -1.4923  1.3187
14691TIP3   OH265487   1.499   6.338   3.851 -0.1675 -0.2268  0.0892
14691TIP3    H165488   1.484   6.325   3.944 -0.2406  0.5919  0.2048
14691TIP3    H265489   1.588   6.308   3.835 -0.3444 -0.8780  0.3102
14692TIP3   OH265490   3.939   1.942  17.080 -0.1855 -0.1205  0.4379
14692TIP3    H165491   3.882   1.936  17.157  0.9269 -0.4531  1.2662
14692TIP3    H265492   3.909   1.871  17.023 -2.0705  1.1068 -0.2134
14693TIP3   OH265493   1.325   0.761   1.944  0.8427 -0.0413 -0.3841
14693TIP3    H165494   1.318   0.792   1.853  0.7849 -0.0263 -0.3748
14693TIP3    H265495   1.262   0.689   1.949  2.8256 -1.9051 -1.1266
14694TIP3   OH265496   2.154   0.096  12.191 -0.1171  0.5301  0.0209
14694TIP3    H165497   2.173   0.105  12.284  2.7484 -1.0132 -0.2934
14694TIP3    H265498   2.117   0.008  12.183  0.8461  0.1536 -0.4129
14695TIP3   OH265499   0.591   1.121  16.469 -0.5491  0.4615  0.6120
14695TIP3    H165500   0.588   1.089  16.379  0.0043  1.3551  0.2604
14695TIP3    H265501   0.500   1.124  16.497 -0.6816 -0.4036  0.3013
14696TIP3   OH265502   3.205   3.363   2.048  0.8786  0.2851 -0.4245
14696TIP3    H165503   3.164   3.410   2.120  1.0683 -0.9518  0.5262
14696TIP3    H265504   3.166   3.400   1.969 -2.2988 -0.9840  0.4100
14697TIP3   OH265505   2.780   3.974   2.851 -0.3454  0.1533  0.4061
14697TIP3    H165506   2.752   4.009   2.936 -0.1028  1.9218 -0.1983
14697TIP3    H265507   2.741   4.034   2.787  0.7675 -0.2291 -0.6618
14698TIP3   OH265508   5.649   2.224   1.353 -0.4933 -0.4041 -0.3233
14698TIP3    H165509   5.744   2.231   1.360 -0.4674 -0.9535 -0.0165
14698TIP3    H265510   5.618   2.314   1.344  0.1741 -0.3079 -1.9928
14699TIP3   OH265511   3.908   2.465  11.474 -0.0353  0.2480  0.7463
14699TIP3    H165512   3.893   2.468  11.380  2.2241  0.6656  0.3393
14699TIP3    H265513   3.995   2.428  11.484 -0.1085  0.4579  2.6667
14700TIP3   OH265514   2.665   4.933   0.343  0.0689  0.1445 -0.5114
14700TIP3    H165515   2.613   5.014   0.350  0.6715  0.5853 -1.0746
14700TIP3    H265516   2.685   4.911   0.434 -1.8653 -0.5548 -0.2054
14701TIP3   OH265517   3.976   5.629   3.203  0.2745  0.4541 -0.0246
14701TIP3    H165518   3.903   5.567   3.208  0.2922  0.2699 -1.5585
14701TIP3    H265519   4.053   5.574   3.189  0.7111  0.6598  1.4328
14702TIP3   OH265520   1.351   1.706   4.530 -0.2603 -0.3252  0.1378
14702TIP3    H165521   1.353   1.692   4.625  0.2220 -1.4543 -0.0264
14702TIP3    H265522   1.259   1.722   4.510 -0.4295 -0.5335  0.7336
14703TIP3   OH265523   2.890   3.294  13.570 -0.3006 -0.1930  0.2268
14703TIP3    H165524   2.878   3.344  13.651 -1.0080 -1.4891  0.9614
14703TIP3    H265525   2.982   3.267  13.572  0.1285  1.1689 -0.2527
14704TIP3   OH265526   2.899   2.101  10.940  0.4223  0.0809 -0.3467
14704TIP3    H165527   2.853   2.185  10.939 -1.0666 -0.6889 -1.4079
14704TIP3    H265528   2.835   2.039  10.906  0.9302 -1.8068  1.8807
14705TIP3   OH265529   1.908   6.062  10.309 -0.5807  0.1277  0.2357
14705TIP3    H165530   1.958   6.092  10.384  0.4466  2.3188 -1.2208
14705TIP3    H265531   1.864   5.983  10.339  2.6863 -1.1847  2.0126
14706TIP3   OH265532   0.008   1.315   6.522  0.0912 -0.4162  0.5208
14706TIP3    H165533   0.094   1.330   6.562 -0.6168  0.7430  1.7192
14706TIP3    H265534  -0.031   1.402   6.518 -1.1034 -0.9557  0.1935
14707TIP3   OH265535   2.476   1.200   3.843 -0.1153  0.5479  0.1877
14707TIP3    H165536   2.551   1.235   3.794 -0.5708  3.4682  1.3958
14707TIP3    H265537   2.433   1.140   3.781  2.3833 -0.1633 -0.9938
14708TIP3   OH265538   3.050   6.137   5.452 -0.5480  0.4561 -0.6321
14708TIP3    H165539   3.035   6.051   5.412  0.4933 -0.1965  0.2898
14708TIP3    H265540   3.141   6.157   5.433 -0.5044  0.8943 -0.0102
14709TIP3   OH265541   0.641   5.135  13.110 -0.0920 -0.0756  0.0192
14709TIP3    H165542   0.558   5.090  13.118  0.0794 -0.2294  1.0106
14709TIP3    H265543   0.648   5.156  13.017 -0.3112 -1.8390 -0.4388
14710TIP3   OH265544   5.213   5.977   5.593 -0.2267 -0.0416  0.0201
14710TIP3    H165545   5.237   5.930   5.513  3.2209 -0.4446  1.1260
14710TIP3    H265546   5.207   5.909   5.660  2.8020  0.7071  1.2103
14711TIP3   OH265547   5.151   1.997  16.625  0.1288  0.0677  0.2918
14711TIP3    H165548   5.156   2.092  16.620 -1.2224  0.1428 -0.0349
14711TIP3    H265549   5.058   1.977  16.618  0.0752 -1.1343  3.0365
14712TIP3   OH265550   2.611   5.522   2.516 -0.0667  0.0660  0.8854
14712TIP3    H165551   2.525   5.529   2.556 -0.1773 -1.0704  0.8827
14712TIP3    H265552   2.669   5.570   2.575 -0.8978  2.0480  0.1591
14713TIP3   OH265553   2.360   5.913  15.523  0.2145  0.1820 -0.1520
14713TIP3    H165554   2.430   5.928  15.460  0.2899 -1.7529 -0.5981
14713TIP3    H265555   2.402   5.919  15.608  0.6585  0.2368 -0.3738
14714TIP3   OH265556   1.212   6.499   0.714  0.2508 -0.5324 -0.3010
14714TIP3    H165557   1.218   6.573   0.774 -0.4477 -0.0728 -0.7863
14714TIP3    H265558   1.164   6.432   0.762 -0.8335  0.0504 -0.5385
14715TIP3   OH265559   6.021   1.808   0.528 -1.2318 -0.2638  0.3604
14715TIP3    H165560   5.984   1.803   0.439 -1.4877  1.0261  0.3763
14715TIP3    H265561   5.995   1.725   0.568  0.5378 -1.7436 -1.3583
14716TIP3   OH265562   6.239   4.491   1.957 -0.0263 -0.0714 -0.7585
14716TIP3    H165563   6.173   4.551   1.921  0.6151 -1.0909 -3.9411
14716TIP3    H265564   6.221   4.408   1.914  1.6297 -1.1252  0.4767
14717TIP3   OH265565   5.535   3.172   2.412 -0.0824  0.1556  0.2344
14717TIP3    H165566   5.541   3.098   2.351 -0.7656 -0.6670  1.1432
14717TIP3    H265567   5.560   3.248   2.360  0.5221 -0.6962 -0.7539
14718TIP3   OH265568   0.070   6.284   5.815  0.3137  0.7516  0.4738
14718TIP3    H165569   0.103   6.230   5.886 -0.0480  2.2818  1.8513
14718TIP3    H265570   0.096   6.373   5.838  0.3404  1.2805 -1.4116
14719TIP3   OH265571   6.186   5.073  14.829 -0.7656  0.0367 -0.0916
14719TIP3    H165572   6.208   5.144  14.890 -1.6419 -0.0202  0.3128
14719TIP3    H265573   6.269   5.051  14.787 -0.5480  1.6323 -0.5908
14720TIP3   OH265574   6.548   3.669   0.675 -0.1445  0.3130 -0.2435
14720TIP3    H165575   6.503   3.740   0.628 -0.7868  1.2319  1.6466
14720TIP3    H265576   6.591   3.619   0.606 -2.5576  0.4495 -1.9961
14721TIP3   OH265577   2.742   0.958   3.406  0.5219 -0.6938 -0.1912
14721TIP3    H165578   2.703   0.993   3.325  2.3733  0.2519 -0.7366
14721TIP3    H265579   2.720   0.865   3.405 -0.1880 -0.5393 -1.3604
14722TIP3   OH265580   4.955   6.173  16.722 -0.1055 -0.1682  0.1343
14722TIP3    H165581   5.014   6.099  16.739  0.9187  0.4012 -0.8273
14722TIP3    H265582   4.867   6.136  16.727  0.3652 -1.2793  0.4333
14723TIP3   OH265583   3.175   6.517  15.943 -0.5209  0.4048 -0.1133
14723TIP3    H165584   3.188   6.426  15.916 -0.2722  0.5745 -0.5781
14723TIP3    H265585   3.110   6.512  16.013 -0.9708 -0.0765 -0.5532
14724TIP3   OH265586   0.836   3.064   2.655  0.4325  0.0947  0.3772
14724TIP3    H165587   0.871   3.153   2.658 -1.7719  1.0392  0.6480
14724TIP3    H265588   0.911   3.007   2.672  1.7332  1.9531  1.1583
14725TIP3   OH265589   0.564   2.753   2.979  0.2996  0.2429  0.1116
14725TIP3    H165590   0.601   2.819   2.920  1.0329 -0.1339  0.1408
14725TIP3    H265591   0.638   2.726   3.034 -0.3926  0.6406  1.2530
14726TIP3   OH265592   2.767   3.265  12.882  0.3439  0.2724  0.2664
14726TIP3    H165593   2.820   3.268  12.962 -0.8798 -0.2481  1.1249
14726TIP3    H265594   2.779   3.351  12.842 -0.2260  1.1304  1.8380
14727TIP3   OH265595   6.669   5.867   5.510 -0.3903  0.0451  0.1060
14727TIP3    H165596   6.648   5.898   5.422 -0.8198 -4.1507 -1.5096
14727TIP3    H265597   6.764   5.877   5.517 -0.2674 -0.0960 -1.1195
14728TIP3   OH265598   4.757   0.576   1.919  0.4085 -0.3249 -0.0802
14728TIP3    H165599   4.719   0.501   1.966  1.4775 -1.4909 -1.0029
14728TIP3    H265600   4.720   0.570   1.831  1.2357 -0.3599 -0.4383
14729TIP3   OH265601   5.052   3.847  16.446  0.1901 -0.4401 -0.9021
14729TIP3    H165602   5.038   3.838  16.540 -1.1665  0.6964 -0.9624
14729TIP3    H265603   5.000   3.923  16.421  1.5441  0.0672 -2.3689
14730TIP3   OH265604   0.080   6.581  11.271  0.0929  0.2347 -0.1023
14730TIP3    H165605   0.116   6.492  11.270  0.0920  0.2339 -0.0525
14730TIP3    H265606   0.141   6.631  11.325  0.2011  0.3106 -0.2921
14731TIP3   OH265607   1.897   4.332  12.207 -0.0723 -0.4752  0.0989
14731TIP3    H165608   1.821   4.274  12.219  1.2355 -2.1032  0.9237
14731TIP3    H265609   1.951   4.287  12.143  1.7836 -1.0779  1.9899
14732TIP3   OH265610   6.495   3.852  12.011 -0.3771  0.7203  0.3687
14732TIP3    H165611   6.574   3.839  12.064 -1.4931 -1.4710  1.6322
14732TIP3    H265612   6.444   3.773  12.024 -0.9301  0.1793 -3.7639
14733TIP3   OH265613   3.301   1.197  11.871 -0.0173 -0.1121 -0.5566
14733TIP3    H165614   3.270   1.286  11.856  2.6724  0.6621 -2.2482
14733TIP3    H265615   3.372   1.185  11.807  2.0577 -2.2369  1.9109
14734TIP3   OH265616   1.100   4.558  16.093 -0.2600 -0.8234 -0.0948
14734TIP3    H165617   1.050   4.483  16.060 -0.7046 -0.3894 -0.4228
14734TIP3    H265618   1.057   4.634  16.055  0.7049 -0.4363 -0.4626
14735TIP3   OH265619   4.720   1.634   3.288  0.2786 -0.1549  0.3700
14735TIP3    H165620   4.637   1.673   3.261  1.1315  1.0250 -0.7354
14735TIP3    H265621   4.704   1.599   3.375 -1.0489  1.1644  0.6925
14736TIP3   OH265622   3.701   0.658  13.378  0.2211  0.2356 -0.0809
14736TIP3    H165623   3.647   0.587  13.413  0.8868 -1.2844 -1.9665
14736TIP3    H265624   3.789   0.621  13.375  0.6339  1.2409 -0.8254
14737TIP3   OH265625   6.310   1.612  15.730  0.2505  0.0147 -0.1022
14737TIP3    H165626   6.287   1.521  15.753  0.6462 -0.8799 -2.8876
14737TIP3    H265627   6.342   1.650  15.812  1.1389 -2.7022  0.9217
14738TIP3   OH265628   0.713   5.611  12.699 -0.4659  0.2873  0.2392
14738TIP3    H165629   0.757   5.691  12.729  0.0145  0.6339 -1.2939
14738TIP3    H265630   0.662   5.639  12.623 -0.6603 -0.7757 -0.0353
14739TIP3   OH265631   0.701   5.239  14.181 -0.1358 -0.0210 -0.8031
14739TIP3    H165632   0.714   5.152  14.141  0.9817 -0.4969  0.4920
14739TIP3    H265633   0.646   5.286  14.119 -0.3673 -1.4979 -1.7778
14740TIP3   OH265634   2.288   0.606  15.868  0.0699 -0.3453  0.1008
14740TIP3    H165635   2.220   0.565  15.922  0.9086 -2.1987 -0.1818
14740TIP3    H265636   2.267   0.579  15.779 -0.8861  2.1005 -0.5018
14741TIP3   OH265637   1.331   0.526  14.182 -0.3408 -0.2534 -0.3087
14741TIP3    H165638   1.352   0.618  14.199 -2.0968 -0.3019  2.9264
14741TIP3    H265639   1.415   0.485  14.161  0.8917  1.6183  0.6903
14742TIP3   OH265640   4.667   5.062  14.702  0.1767  0.4586  0.2670
14742TIP3    H165641   4.637   5.042  14.791 -0.1453  0.2013  0.1041
14742TIP3    H265642   4.735   4.997  14.685 -1.4969 -1.1673 -0.6006
14743TIP3   OH265643   1.576   3.253   1.383  0.5727 -0.0240 -0.2835
14743TIP3    H165644   1.486   3.228   1.364  0.6647 -1.0879  0.5725
14743TIP3    H265645   1.569   3.325   1.445  0.2473 -1.9494  2.0729
14744TIP3   OH265646   3.350   6.756   1.019  0.0405 -0.5333 -0.8172
14744TIP3    H165647   3.315   6.796   0.940 -2.6959 -0.1807  0.4682
14744TIP3    H265648   3.349   6.662   1.001  0.4117 -0.4063 -1.5300
14745TIP3   OH265649   2.135   0.956   1.691  0.2571 -0.0955  0.6556
14745TIP3    H165650   2.121   0.993   1.778 -0.4877  1.6786 -0.1595
14745TIP3    H265651   2.114   1.028   1.631  3.1283 -0.4483 -0.9646
14746TIP3   OH265652   6.637   2.704  13.066 -0.9900 -0.0963  0.1270
14746TIP3    H165653   6.573   2.715  12.996  0.1311 -1.1987 -1.1223
14746TIP3    H265654   6.636   2.788  13.112 -0.0913  1.5666 -2.6483
14747TIP3   OH265655   5.938   6.651  14.646  0.1021 -0.1160  0.3969
14747TIP3    H165656   5.887   6.701  14.583 -0.2925 -1.5132 -0.4322
14747TIP3    H265657   5.929   6.700  14.729 -1.6109  0.2863  0.0065
14748TIP3   OH265658   6.520   5.559   2.754  0.2021 -0.0424 -0.1526
14748TIP3    H165659   6.524   5.629   2.689  0.9765  0.3195  0.2789
14748TIP3    H265660   6.590   5.579   2.816  0.5263 -1.2711 -0.0971
14749TIP3   OH265661   6.227   3.404   2.655 -0.3275 -0.0403 -0.3273
14749TIP3    H165662   6.146   3.354   2.645  0.7184 -1.9224  0.0874
14749TIP3    H265663   6.215   3.455   2.736 -1.1907 -0.0799 -0.4264
14750TIP3   OH265664   1.952   0.498   0.095 -0.4295  0.5677  0.1344
14750TIP3    H165665   1.872   0.532   0.135 -1.4867  1.2865 -2.3800
14750TIP3    H265666   1.964   0.412   0.135 -3.3629 -0.2448 -0.4771
14751TIP3   OH265667   6.137   2.220   1.437 -0.0178  0.3036  0.1375
14751TIP3    H165668   6.154   2.198   1.529  2.3412  3.2123  0.5757
14751TIP3    H265669   6.055   2.268   1.439 -0.1379  0.0900  0.6826
14752TIP3   OH265670   5.380   3.624  11.776 -0.0878 -0.1183 -0.0298
14752TIP3    H165671   5.303   3.679  11.758 -0.6751 -0.8962  0.0693
14752TIP3    H265672   5.446   3.656  11.715  0.0853  1.7116  1.0531
14753TIP3   OH265673   1.584   3.030   4.679  0.2162  0.0567 -0.3220
14753TIP3    H165674   1.584   3.038   4.583  0.7352 -1.4017 -0.4711
14753TIP3    H265675   1.581   3.121   4.710  1.7387  0.6426 -1.7192
14754TIP3   OH265676   4.173   4.311   1.001  0.2150 -0.0517  0.2181
14754TIP3    H165677   4.240   4.377   1.016 -0.5047  0.7924 -0.1559
14754TIP3    H265678   4.178   4.253   1.077  1.1975  0.1410  0.3030
14755TIP3   OH265679   0.845   4.811  11.417 -0.3242  0.1028 -0.5351
14755TIP3    H165680   0.890   4.787  11.498 -1.0633  0.3909 -0.0339
14755TIP3    H265681   0.910   4.864  11.370  0.1906 -0.2508 -0.2395
14756TIP3   OH265682   5.411   2.655   1.592 -0.0529 -0.0967 -0.3150
14756TIP3    H165683   5.476   2.689   1.653  0.0580  1.1223 -1.0728
14756TIP3    H265684   5.351   2.728   1.577 -0.5174 -0.6117 -1.0635
14757TIP3   OH265685   5.569   5.682   3.151  0.4383  0.2009 -1.0356
14757TIP3    H165686   5.641   5.626   3.181  0.0228  1.0293  1.7883
14757TIP3    H265687   5.503   5.620   3.118  0.6226 -0.8993  0.5662
14758TIP3   OH265688   2.878   2.186   3.023 -0.1070 -0.2859 -0.1286
14758TIP3    H165689   2.932   2.211   2.948  0.0440 -1.5480 -0.4544
14758TIP3    H265690   2.933   2.205   3.099  0.9251 -1.7726 -0.4649
14759TIP3   OH265691   6.499   4.761  11.519 -0.3794 -0.2078 -0.3718
14759TIP3    H165692   6.452   4.722  11.593 -3.0389  1.9376 -0.7417
14759TIP3    H265693   6.439   4.750  11.445  0.8989  0.3575 -1.5369
14760TIP3   OH265694   0.856   1.038   0.881  0.8064  0.6071  0.0681
14760TIP3    H165695   0.847   0.943   0.891  0.6952  0.7128  1.1083
14760TIP3    H265696   0.822   1.057   0.793  2.4090 -0.5184 -0.8402
14761TIP3   OH265697   1.849   2.035   6.031 -0.9366 -0.7069 -0.5113
14761TIP3    H165698   1.883   2.073   6.112 -0.0594  0.2752 -1.3165
14761TIP3    H265699   1.784   1.970   6.060 -1.3203  0.2909  0.9373
14762TIP3   OH265700   6.445   1.734  14.291 -0.1478  0.1437  0.3760
14762TIP3    H165701   6.411   1.699  14.374  1.5040 -3.6553 -0.3243
14762TIP3    H265702   6.368   1.739  14.234 -0.9241  0.4772  1.4346
14763TIP3   OH265703   6.110   0.956  16.275  0.0074  0.0004  0.4201
14763TIP3    H165704   6.139   0.902  16.348  0.4145  1.1404  1.1269
14763TIP3    H265705   6.058   1.025  16.315 -1.1469 -0.2671 -0.5376
14764TIP3   OH265706   2.117   6.058   5.474 -0.0254 -0.1644  0.4500
14764TIP3    H165707   2.180   6.111   5.426 -0.5641 -0.3183 -0.4468
14764TIP3    H265708   2.169   5.990   5.516  0.2668 -1.2078 -1.5023
14765TIP3   OH265709   3.157   3.082   4.706 -0.3755  0.0343  0.5439
14765TIP3    H165710   3.197   3.008   4.660  0.2105 -0.0489  1.1699
14765TIP3    H265711   3.120   3.043   4.785  3.8547  0.8886  3.3321
14766TIP3   OH265712   0.711   2.638   5.889 -0.0615  0.0846  0.0809
14766TIP3    H165713   0.700   2.576   5.961  0.3225 -0.8360 -0.6316
14766TIP3    H265714   0.780   2.697   5.918 -0.1255 -0.0899  0.5944
14767TIP3   OH265715   1.658   3.341   4.366  0.4454 -0.4786 -0.0934
14767TIP3    H165716   1.579   3.287   4.356 -1.9308  2.5190  0.8619
14767TIP3    H265717   1.658   3.398   4.289 -0.0813  1.5371  1.3292
14768TIP3   OH265718   4.465   2.140   5.640  0.2381 -0.7797  0.0882
14768TIP3    H165719   4.456   2.186   5.556  0.4532 -1.8494 -0.5293
14768TIP3    H265720   4.427   2.201   5.704 -0.5051 -0.2026 -0.8658
14769TIP3   OH265721   1.740   2.735  16.736 -0.4119 -0.0284  0.2290
14769TIP3    H165722   1.652   2.699  16.741 -1.1934  1.7605  0.3763
14769TIP3    H265723   1.730   2.826  16.766  1.6012  0.0232  0.8943
14770TIP3   OH265724   1.429   1.627  16.422 -0.8859  0.5979 -0.2018
14770TIP3    H165725   1.475   1.703  16.458 -1.1607  0.4171  0.5463
14770TIP3    H265726   1.487   1.553  16.442 -1.2812  0.4282  0.3577
14771TIP3   OH265727   0.893   5.583   2.099  0.3704  0.4650 -0.5705
14771TIP3    H165728   0.847   5.637   2.164 -0.9618 -1.2050 -0.0447
14771TIP3    H265729   0.825   5.558   2.036  0.1868 -2.8354  0.7396
14772TIP3   OH265730   5.769   2.983   4.060 -0.1522  0.3181  0.2205
14772TIP3    H165731   5.742   3.071   4.031  0.0930  0.5549  0.6947
14772TIP3    H265732   5.723   2.923   4.001  2.0550  0.8200 -2.2044
14773TIP3   OH265733   6.415   1.661  16.776 -0.0498  0.3052  0.1797
14773TIP3    H165734   6.385   1.737  16.825 -0.0004 -0.5468  1.5773
14773TIP3    H265735   6.441   1.597  16.843  0.5622 -0.6878 -0.9575
14774TIP3   OH265736   0.406   0.143   3.362  0.3123 -0.2018 -0.3779
14774TIP3    H165737   0.469   0.077   3.332 -0.0451 -0.9960  0.5553
14774TIP3    H265738   0.454   0.226   3.358  0.9552 -0.5905 -1.0159
14775TIP3   OH265739   4.433   0.738  11.333 -0.7734  0.4295  0.0214
14775TIP3    H165740   4.394   0.654  11.356 -0.8292  0.4415 -0.0301
14775TIP3    H265741   4.503   0.716  11.271  0.0079  0.2979  0.9165
14776TIP3   OH265742   2.643   5.040  11.526 -0.3582  0.0861 -0.3547
14776TIP3    H165743   2.582   5.114  11.517 -0.2116  0.3299  0.4946
14776TIP3    H265744   2.718   5.065  11.473  0.2537  1.1919  0.9619
14777TIP3   OH265745   5.238   4.781  13.262  0.3232  0.3045 -0.7116
14777TIP3    H165746   5.278   4.699  13.290 -1.2926 -0.3108 -0.1037
14777TIP3    H265747   5.275   4.847  13.322 -0.0368 -0.3554  0.2681
14778TIP3   OH265748   0.672   4.111  16.776  0.5360  0.0334 -0.1402
14778TIP3    H165749   0.690   4.017  16.784  0.8428  0.1651  0.7834
14778TIP3    H265750   0.577   4.117  16.775  0.5166 -0.3418 -0.9125
14779TIP3   OH265751   6.712   6.162   4.522  0.0473  0.6249 -0.3724
14779TIP3    H165752   6.643   6.214   4.561  1.3581  2.7241 -0.6912
14779TIP3    H265753   6.718   6.192   4.431 -0.3433 -1.4076 -1.1377
14780TIP3   OH265754   3.827   1.274   0.959 -0.2915  0.3723 -0.3483
14780TIP3    H165755   3.838   1.348   0.900  1.3720  0.8359  0.5091
14780TIP3    H265756   3.755   1.300   1.016  0.5544  1.5370  0.2240
14781TIP3   OH265757   1.573   1.890   1.736  0.7695 -0.0684 -0.5976
14781TIP3    H165758   1.609   1.875   1.823 -0.6851  0.3673  0.1152
14781TIP3    H265759   1.650   1.896   1.679  1.7693  0.0169  0.7034
14782TIP3   OH265760   0.867   2.860  14.988  0.1456  0.0245 -0.4685
14782TIP3    H165761   0.928   2.792  15.017 -0.0690 -0.0367 -0.1543
14782TIP3    H265762   0.807   2.815  14.928  0.5304  0.1296 -0.9402
14783TIP3   OH265763   2.742   2.701  15.674 -0.2471  0.0651  0.3946
14783TIP3    H165764   2.826   2.722  15.632  0.2542  0.3086  1.4840
14783TIP3    H265765   2.766   2.645  15.748 -0.8298  1.5710  1.7816
14784TIP3   OH265766   3.343   1.937   2.544  0.3336  0.2316  0.5073
14784TIP3    H165767   3.414   1.967   2.488 -0.4810 -0.4133 -0.9295
14784TIP3    H265768   3.355   1.842   2.549 -2.2179 -0.4347 -2.5497
14785TIP3   OH265769   3.405   0.087   5.768  0.4634  0.2114  0.1898
14785TIP3    H165770   3.375   0.023   5.702  0.8015  0.2794 -0.0354
14785TIP3    H265771   3.347   0.074   5.842  1.1955 -1.1166  0.5631
14786TIP3   OH265772   0.285   2.271  14.765  0.5227  0.1650 -0.6580
14786TIP3    H165773   0.298   2.257  14.671 -0.0510 -0.6514 -0.6238
14786TIP3    H265774   0.344   2.343  14.787 -0.0578  1.0360 -1.8402
14787TIP3   OH265775   4.529   3.828  10.884 -0.6855  0.1532  0.2465
14787TIP3    H165776   4.608   3.809  10.834  0.8571  0.1797  2.5320
14787TIP3    H265777   4.469   3.756  10.863 -0.7669  0.9397 -2.7336
14788TIP3   OH265778   0.986   2.183  14.543  0.5385  0.0270  0.4907
14788TIP3    H165779   0.996   2.271  14.505 -0.4047  0.0185  0.1779
14788TIP3    H265780   0.894   2.180  14.571 -0.0272 -1.5512 -1.3160
14789TIP3   OH265781   5.947   4.834   5.273  0.3114  0.2062 -0.3309
14789TIP3    H165782   5.936   4.758   5.216  1.3222  0.0674 -0.3587
14789TIP3    H265783   5.882   4.897   5.240 -1.3060 -1.0117  0.4023
14790TIP3   OH265784   3.866   6.608   0.644 -0.2647  0.9896  0.5769
14790TIP3    H165785   3.871   6.578   0.734  0.5945 -0.8850 -0.0404
14790TIP3    H265786   3.774   6.632   0.631 -1.5295 -3.0776  0.7137
14791TIP3   OH265787   3.396   1.169  15.670  0.0846 -0.5309 -0.3343
14791TIP3    H165788   3.433   1.196  15.587 -0.6908  1.1714 -0.1510
14791TIP3    H265789   3.381   1.074  15.660 -0.5430 -0.2589 -2.3373
14792TIP3   OH265790   3.790   1.503   0.138 -0.3968 -0.1211  0.7272
14792TIP3    H165791   3.738   1.554   0.076  1.1868  1.1898  0.3911
14792TIP3    H265792   3.831   1.569   0.194  1.4371 -1.0107  0.5268
14793TIP3   OH265793   3.562   1.798  12.168  0.2163 -0.0843  0.2528
14793TIP3    H165794   3.534   1.708  12.184 -0.5810 -0.0534 -0.8715
14793TIP3    H265795   3.599   1.796  12.079  0.4035  0.6569  0.3066
14794TIP3   OH265796   3.059   3.870   2.326 -0.3875 -0.3403 -0.6815
14794TIP3    H165797   3.085   3.810   2.396 -0.7681  0.6300  0.3429
14794TIP3    H265798   3.142   3.899   2.287 -0.0990 -0.1228  0.0646
14795TIP3   OH265799   5.297   3.531  14.062 -0.0176  0.3421 -0.0229
14795TIP3    H165800   5.324   3.548  14.152 -0.1835  1.2095 -0.1302
14795TIP3    H265801   5.255   3.612  14.033  1.5508  0.7154 -1.4348
14796TIP3   OH265802   3.553   4.502   1.265 -0.6890  0.5168 -0.0936
14796TIP3    H165803   3.639   4.538   1.285 -0.1296  0.7051 -2.5346
14796TIP3    H265804   3.506   4.503   1.348  1.0709  2.0186  0.9371
14797TIP3   OH265805   3.553   3.798   3.001  0.3304  0.0675 -0.3277
14797TIP3    H165806   3.554   3.840   3.087  2.9152  0.7124 -0.5843
14797TIP3    H265807   3.541   3.705   3.020  0.0790  0.2898  0.6599
14798TIP3   OH265808   3.997   0.078   5.831  0.1620  0.4969 -0.4148
14798TIP3    H165809   3.955   0.076   5.745  2.1511 -0.6509 -1.4385
14798TIP3    H265810   3.939   0.131   5.885 -0.6435  2.1155 -2.7272
14799TIP3   OH265811   1.752   3.461   4.603  0.0961  0.7398  0.1984
14799TIP3    H165812   1.797   3.404   4.665 -0.2549  0.6691  0.3917
14799TIP3    H265813   1.747   3.410   4.522 -2.4595 -0.5442  1.0750
14800TIP3   OH265814   3.720   4.961  12.740  0.8710 -0.1066 -0.3018
14800TIP3    H165815   3.756   4.873  12.732  0.9946 -0.1495  0.5758
14800TIP3    H265816   3.797   5.017  12.752  0.7496  0.0081 -0.0371
14801TIP3   OH265817   6.074   4.119   4.030  0.0418 -0.3642 -0.3400
14801TIP3    H165818   6.169   4.119   4.038  0.0638 -0.0356 -0.5709
14801TIP3    H265819   6.055   4.192   3.971 -0.4028  0.0558  0.3061
14802TIP3   OH265820   6.059   5.732  14.397 -0.0150  0.2831  0.8168
14802TIP3    H165821   5.990   5.751  14.334  0.6568  1.2030  0.3333
14802TIP3    H265822   6.096   5.818  14.420  2.4010 -0.2698 -0.5975
14803TIP3   OH265823   0.413   3.648  13.320  0.0880  0.0347  0.6923
14803TIP3    H165824   0.367   3.642  13.236  1.8762  0.8548 -0.4043
14803TIP3    H265825   0.448   3.560  13.334  0.2304  0.0235  0.2952
14804TIP3   OH265826   6.738   1.572  12.278 -0.1549 -1.0497 -0.4392
14804TIP3    H165827   6.713   1.480  12.286  1.4859 -1.5590 -0.7761
14804TIP3    H265828   6.757   1.600  12.368 -1.2612 -0.8348 -0.2582
14805TIP3   OH265829   0.378   1.077  15.976  0.6967 -0.1464  0.4074
14805TIP3    H165830   0.342   1.043  15.894  0.2039 -0.7435  0.8645
14805TIP3    H265831   0.338   1.164  15.985  2.3417  0.8286 -1.0111
14806TIP3   OH265832   2.041   4.583  12.129  0.8338  0.1451  0.1196
14806TIP3    H165833   1.995   4.499  12.119 -1.5296  1.3166  0.3470
14806TIP3    H265834   2.076   4.581  12.218  1.8681 -1.0556 -0.2888
14807TIP3   OH265835   1.154   2.221  12.742  0.7718 -0.0429 -0.4148
14807TIP3    H165836   1.118   2.164  12.809  0.0024 -0.0871 -0.8591
14807TIP3    H265837   1.249   2.207  12.748  0.6864 -0.3454  0.3824
14808TIP3   OH265838   3.617   1.671   5.310 -0.1616  0.2194 -0.3732
14808TIP3    H165839   3.531   1.682   5.352 -0.3001  0.5726 -0.7423
14808TIP3    H265840   3.663   1.752   5.328  0.7198 -0.5889  1.2085
14809TIP3   OH265841   2.380   4.167   6.064  0.2575 -0.2271 -0.1683
14809TIP3    H165842   2.315   4.151   6.133  0.0299  0.7679 -0.1304
14809TIP3    H265843   2.464   4.163   6.108  0.0998  0.6461  0.2213
14810TIP3   OH265844   3.976   6.600  13.786  0.2497  0.2848  0.3060
14810TIP3    H165845   3.956   6.657  13.860  0.2554 -0.3623  0.8248
14810TIP3    H265846   3.908   6.532  13.789  1.3216 -0.8201  0.8928
14811TIP3   OH265847   2.801   5.294  16.203  0.3787  0.0960  0.3815
14811TIP3    H165848   2.747   5.328  16.132 -0.1502  1.1598  1.2540
14811TIP3    H265849   2.875   5.251  16.159  1.7375  3.3974 -0.8902
14812TIP3   OH265850   0.538   6.184  14.397  0.0663  0.0489  0.1781
14812TIP3    H165851   0.598   6.165  14.470  0.5511 -0.0087 -0.2304
14812TIP3    H265852   0.588   6.164  14.319 -0.4133  0.2282 -0.1819
14813TIP3   OH265853   3.236   5.470  12.760  0.3066  0.3687 -0.1805
14813TIP3    H165854   3.275   5.396  12.805 -0.2072  1.9174  3.0568
14813TIP3    H265855   3.299   5.541  12.772 -0.8589  1.3947  0.0613
14814TIP3   OH265856   0.805   5.014  14.493 -0.2505 -0.2151 -0.0615
14814TIP3    H165857   0.797   4.953  14.419  0.0679 -0.1690 -0.1368
14814TIP3    H265858   0.841   4.960  14.564 -0.5356 -0.2542  0.0533
14815TIP3   OH265859   3.947   4.700  11.311 -0.3230 -0.6207 -0.0374
14815TIP3    H165860   3.990   4.630  11.360 -3.0351 -0.7581  2.4974
14815TIP3    H265861   3.991   4.780  11.338  0.3363 -1.0118  0.0486
14816TIP3   OH265862   4.810   5.768   0.685 -0.1627 -0.0941  0.3672
14816TIP3    H165863   4.888   5.813   0.653 -1.2745  1.7119  0.0896
14816TIP3    H265864   4.738   5.802   0.631 -1.1036 -2.0776  0.2721
14817TIP3   OH265865   5.212   0.454   4.924  0.2267  0.1066 -0.0787
14817TIP3    H165866   5.156   0.466   5.001 -0.1703 -0.7546 -0.2188
14817TIP3    H265867   5.178   0.517   4.860  1.6900  2.1147  1.0164
14818TIP3   OH265868   0.133   1.177  11.923 -0.0864 -0.5260  0.6969
14818TIP3    H165869   0.170   1.089  11.925 -0.5749 -0.7853 -0.4637
14818TIP3    H265870   0.038   1.163  11.929 -0.2027 -0.1412 -0.0662
14819TIP3   OH265871   4.884   4.892  14.629  0.0859 -0.8466  0.0268
14819TIP3    H165872   4.966   4.935  14.603  1.2040 -1.5985  2.0670
14819TIP3    H265873   4.911   4.823  14.689 -2.0136 -1.6154  0.1781
14820TIP3   OH265874   1.104   0.138  15.389  0.1388 -0.2739 -0.3202
14820TIP3    H165875   1.040   0.099  15.330  2.1743 -0.0827 -2.8048
14820TIP3    H265876   1.080   0.230  15.394 -1.6773 -0.7515  1.5259
14821TIP3   OH265877   1.778   6.175   0.739 -0.8218  0.5972 -0.2310
14821TIP3    H165878   1.826   6.242   0.789 -0.8759  0.6434 -0.2405
14821TIP3    H265879   1.846   6.112   0.713 -1.1387 -0.6865  1.8688
14822TIP3   OH265880   0.205   0.206  16.302  0.2327 -0.4791 -0.4456
14822TIP3    H165881   0.198   0.267  16.229 -1.1907 -0.2290 -0.1231
14822TIP3    H265882   0.208   0.119  16.261  0.4674 -0.2940 -0.8261
14823TIP3   OH265883   6.558   1.408  14.609 -0.1070  0.3234 -0.0907
14823TIP3    H165884   6.627   1.359  14.565  2.0101  0.8917  2.3251
14823TIP3    H265885   6.523   1.466  14.542  0.4325 -1.2971 -1.8630
14824TIP3   OH265886   5.343   1.488  12.903  0.4042  0.0035  0.0761
14824TIP3    H165887   5.341   1.501  12.998  0.5643 -2.2695  0.4407
14824TIP3    H265888   5.269   1.429  12.886  0.5842  0.1301 -1.1675
14825TIP3   OH265889   0.427   6.375   5.924 -0.2425  0.4808  0.2582
14825TIP3    H165890   0.436   6.352   5.832  0.4735 -2.1302  0.9024
14825TIP3    H265891   0.339   6.411   5.931 -0.1591  1.1362 -1.4815
14826TIP3   OH265892   0.838   5.567   3.173  0.3238 -0.2333  0.2278
14826TIP3    H165893   0.787   5.634   3.219 -0.5720 -1.5545  1.2196
14826TIP3    H265894   0.806   5.484   3.207  1.1983 -1.2072 -1.1948
14827TIP3   OH265895   0.200   2.356   6.535 -0.0395 -0.3694  0.1229
14827TIP3    H165896   0.267   2.418   6.508 -0.3701 -0.0627  0.0015
14827TIP3    H265897   0.249   2.279   6.564  0.3748 -0.0497  0.2900
14828TIP3   OH265898   6.702   5.885  12.231 -0.2291 -0.4071  0.4355
14828TIP3    H165899   6.638   5.827  12.274 -2.1805  1.4487  0.2146
14828TIP3    H265900   6.743   5.830  12.164 -2.1310 -1.5109  0.1049
14829TIP3   OH265901   6.165   0.258  11.443  0.1152 -0.5809 -0.4693
14829TIP3    H165902   6.197   0.230  11.529 -0.5804  1.4382  0.5107
14829TIP3    H265903   6.070   0.256  11.452  0.0376 -0.3900 -1.2175
14830TIP3   OH265904   1.185   2.716  12.337 -0.5643 -0.4180 -0.0411
14830TIP3    H165905   1.183   2.680  12.248  1.0341 -1.7576  0.4037
14830TIP3    H265906   1.180   2.810  12.325  2.1421 -0.3787 -1.7652
14831TIP3   OH265907   6.185   6.011  15.181 -0.7447 -0.0930  0.5161
14831TIP3    H165908   6.119   6.068  15.141  1.0295  1.7669  0.0536
14831TIP3    H265909   6.261   6.019  15.122  0.6044 -0.4255  2.1467
14832TIP3   OH265910   2.671   3.208   5.425  0.2015 -0.7554 -0.5054
14832TIP3    H165911   2.601   3.165   5.376  1.9962 -2.3329 -1.8856
14832TIP3    H265912   2.637   3.295   5.445 -1.4077 -0.7339 -2.8633
14833TIP3   OH265913   4.564   3.866  15.507  0.1713 -0.4492 -0.0951
14833TIP3    H165914   4.607   3.792  15.549  3.6144  1.5726  0.3578
14833TIP3    H265915   4.611   3.879  15.425  1.6261  2.7488  1.0566
14834TIP3   OH265916   4.455   2.558  14.755 -0.2602  0.8422 -0.0090
14834TIP3    H165917   4.392   2.488  14.771 -0.5590  1.3429  1.0783
14834TIP3    H265918   4.401   2.636  14.743  0.1315  1.2522  0.8127
14835TIP3   OH265919   4.710   3.350  14.113  0.5090  0.5900 -0.1796
14835TIP3    H165920   4.773   3.281  14.133  1.1467  1.4326  0.8026
14835TIP3    H265921   4.633   3.303  14.080 -0.0390 -0.8360  2.7891
14836TIP3   OH265922   3.782   0.240  10.914  0.1821 -0.5074  0.2594
14836TIP3    H165923   3.723   0.259  10.987 -0.4480  0.2541 -0.4260
14836TIP3    H265924   3.867   0.272  10.944 -0.0789 -0.1514  0.6433
14837TIP3   OH265925   0.976   5.913  14.862 -0.2467  0.0260 -0.4761
14837TIP3    H165926   1.013   5.943  14.779 -0.9574  0.4326 -0.6582
14837TIP3    H265927   0.972   5.818  14.853  1.8435 -0.1549  0.0255
14838TIP3   OH265928   4.809   0.198   0.530 -0.3770 -0.2690  0.0130
14838TIP3    H165929   4.735   0.137   0.524 -0.5948 -0.1408  1.0797
14838TIP3    H265930   4.854   0.172   0.611  0.2188  0.2369 -0.1475
14839TIP3   OH265931   2.765   5.529   5.839  0.3781 -0.1882  0.0990
14839TIP3    H165932   2.700   5.552   5.906 -0.2623 -1.3341 -0.1112
14839TIP3    H265933   2.821   5.465   5.881  1.6980  1.1209  0.4287
14840TIP3   OH265934   0.748   4.841   1.833 -0.3096 -0.1085 -0.4534
14840TIP3    H165935   0.774   4.917   1.885 -2.2178 -0.5535  1.2629
14840TIP3    H265936   0.750   4.768   1.895 -0.4999 -1.0968 -1.5760
14841TIP3   OH265937   3.841   1.249   1.611 -0.5317  0.4635  0.0734
14841TIP3    H165938   3.840   1.157   1.639  0.0033 -0.2115 -2.0088
14841TIP3    H265939   3.772   1.290   1.663 -0.5761 -1.0243  1.2690
14842TIP3   OH265940   2.471   6.766   1.731 -0.3629  0.5012  0.0169
14842TIP3    H165941   2.492   6.848   1.776  2.0135 -0.7417  1.3812
14842TIP3    H265942   2.505   6.777   1.643 -1.3261  1.4555 -0.2557
14843TIP3   OH265943   0.106   1.689   2.014 -0.4663 -0.0219  0.3759
14843TIP3    H165944   0.161   1.742   1.956 -0.1005  1.0458  1.6427
14843TIP3    H265945   0.133   1.715   2.102 -2.6886  0.2190  1.0477
14844TIP3   OH265946   4.706   3.710   4.178  0.0749  0.1578 -0.6379
14844TIP3    H165947   4.638   3.679   4.238  0.6267 -0.3158 -0.2477
14844TIP3    H265948   4.787   3.670   4.211  0.3989 -0.0200 -1.6353
14845TIP3   OH265949   4.254   1.057  12.868  0.2570  0.5406 -0.4629
14845TIP3    H165950   4.337   1.031  12.909  0.7486  0.1058 -1.6860
14845TIP3    H265951   4.205   0.975  12.861  0.5183  0.4503 -1.4565
14846TIP3   OH265952   0.138   2.579   2.330 -0.2284 -1.2809 -0.8578
14846TIP3    H165953   0.206   2.642   2.352 -1.6437  0.0695 -0.1600
14846TIP3    H265954   0.182   2.494   2.331  0.9450 -0.7662  2.2378
14847TIP3   OH265955   0.658   6.768  13.676 -0.4450 -0.2262 -0.0468
14847TIP3    H165956   0.718   6.783  13.603  1.2636  0.1972  1.3639
14847TIP3    H265957   0.580   6.818  13.654  0.6055  1.1114 -0.9073
14848TIP3   OH265958   3.254   6.248   0.756 -0.0917 -0.2651 -0.5083
14848TIP3    H165959   3.337   6.206   0.734  1.1184  0.7936  1.6452
14848TIP3    H265960   3.260   6.334   0.715  0.0236 -0.0926 -0.1402
14849TIP3   OH265961   2.894   6.781  10.921  0.3855 -0.2793 -0.6021
14849TIP3    H165962   2.933   6.809  10.838  1.8308 -0.7148 -0.0908
14849TIP3    H265963   2.800   6.782  10.904  0.4906  2.1744 -1.4536
14850TIP3   OH265964   3.853   3.702  16.200 -0.0781 -0.1158  0.5317
14850TIP3    H165965   3.771   3.653  16.196  0.4056 -0.8577 -1.5351
14850TIP3    H265966   3.912   3.646  16.252  0.4813 -1.8596 -1.8205
14851TIP3   OH265967   4.872   0.511  15.568  0.4515  0.3601  0.2695
14851TIP3    H165968   4.927   0.439  15.536  1.2343  0.3270  1.6412
14851TIP3    H265969   4.891   0.584  15.509  2.6356  0.6069  1.1955
14852TIP3   OH265970   3.513   5.514   0.891 -0.0297 -0.6266 -0.8962
14852TIP3    H165971   3.483   5.456   0.821 -1.1959 -0.7654 -0.3014
14852TIP3    H265972   3.436   5.527   0.947  0.9482 -0.7716  0.5357
14853TIP3   OH265973   6.754   1.667   4.889 -0.2384 -0.0818 -0.1157
14853TIP3    H165974   6.758   1.573   4.904  1.8924  0.1349  1.1583
14853TIP3    H265975   6.825   1.685   4.828  0.1063  0.8098  0.5178
14854TIP3   OH265976   6.475   3.344   5.710  0.2172 -0.1323  0.6196
14854TIP3    H165977   6.461   3.345   5.615 -1.3861 -3.9825  0.6627
14854TIP3    H265978   6.570   3.353   5.720  0.2790  2.2110 -1.1315
14855TIP3   OH265979   0.196   1.841  11.370 -0.8546 -0.0682 -0.4313
14855TIP3    H165980   0.224   1.750  11.371  1.1694  0.4674  1.8594
14855TIP3    H265981   0.188   1.864  11.277 -1.4836 -2.5338 -1.0465
14856TIP3   OH265982   2.818   3.649  16.216  0.2784  0.4415 -0.5544
14856TIP3    H165983   2.842   3.719  16.276 -0.8613  1.4840 -1.2628
14856TIP3    H265984   2.724   3.660  16.202  0.1208 -1.0772 -0.8931
14857TIP3   OH265985   6.097   6.080  12.945  0.4737  0.3235  0.4565
14857TIP3    H165986   6.151   6.073  13.024  0.1030  0.7937  0.7615
14857TIP3    H265987   6.010   6.101  12.978  0.0892 -0.4643 -0.0298
14858TIP3   OH265988   0.680   3.294   3.948  0.1692  0.5221 -0.0126
14858TIP3    H165989   0.645   3.382   3.961  0.2174  0.4144  0.9320
14858TIP3    H265990   0.664   3.250   4.031  2.2166  0.3482  0.3470
14859TIP3   OH265991   2.570   1.874   4.461  0.0999 -0.5361 -0.2657
14859TIP3    H165992   2.516   1.879   4.382 -0.7991 -0.7773  0.3151
14859TIP3    H265993   2.656   1.907   4.434 -0.5387  0.5568 -1.0307
14860TIP3   OH265994   2.394   4.398  15.723  0.1780 -0.2617 -0.3509
14860TIP3    H165995   2.342   4.395  15.643 -0.2686  1.2987 -0.1455
14860TIP3    H265996   2.477   4.437  15.697  0.9089 -1.7998 -0.4647
14861TIP3   OH265997   3.878   5.486  12.587 -0.2584 -0.7005  0.0434
14861TIP3    H165998   3.842   5.447  12.667 -1.6525  0.3221 -0.0459
14861TIP3    H265999   3.847   5.429  12.517  2.7749 -2.8848  0.2927
14862TIP3   OH266000   3.795   4.282   3.167  0.2165 -0.5641 -0.2602
14862TIP3    H166001   3.717   4.239   3.201 -0.0113  0.4241  0.5091
14862TIP3    H266002   3.853   4.210   3.142 -1.5828 -1.3696 -2.4756
14863TIP3   OH266003   1.779   0.426   3.333 -0.0295  0.6783 -0.4604
14863TIP3    H166004   1.818   0.359   3.389 -0.8245  1.8528  1.6060
14863TIP3    H266005   1.853   0.470   3.293  0.5085 -2.1133 -2.8385
14864TIP3   OH266006   6.055   5.882   2.350 -0.6190 -0.1208  0.1665
14864TIP3    H166007   5.961   5.897   2.347 -1.2747 -3.1731  1.8737
14864TIP3    H266008   6.074   5.829   2.273 -0.0173  1.4520 -0.8155
14865TIP3   OH266009   4.711   1.945   4.600  0.2656 -0.4360  0.3817
14865TIP3    H166010   4.742   1.859   4.572  0.7026  0.0757 -0.7395
14865TIP3    H266011   4.621   1.950   4.567 -0.9740 -1.6902  3.1503
14866TIP3   OH266012   4.457   0.208  14.062 -0.2391 -0.0238  0.3838
14866TIP3    H166013   4.419   0.136  14.013 -0.3298  0.2315  0.0733
14866TIP3    H266014   4.454   0.282  14.002  1.4185 -0.1666  0.0911
14867TIP3   OH266015   2.127   2.115  14.979  0.6917 -0.2264 -0.2008
14867TIP3    H166016   2.194   2.182  14.966 -0.4081  0.6915 -1.2661
14867TIP3    H266017   2.152   2.045  14.918  1.8429 -0.8341  0.9165
14868TIP3   OH266018   4.921   0.890   0.879 -0.2558  0.1850  0.0390
14868TIP3    H166019   4.934   0.875   0.785 -1.1996  3.1307 -0.6680
14868TIP3    H266020   4.989   0.838   0.921 -0.7815 -2.4735 -2.1332
14869TIP3   OH266021   0.094   5.266  15.710 -0.1558 -0.6924 -0.2468
14869TIP3    H166022   0.187   5.271  15.689  0.1491 -1.1293  0.9131
14869TIP3    H266023   0.073   5.173  15.708 -0.4887 -0.6216 -0.1754
14870TIP3   OH266024   1.288   2.197   3.634 -0.5842  0.2235 -0.0945
14870TIP3    H166025   1.260   2.287   3.652 -0.9402  0.2686 -0.8693
14870TIP3    H266026   1.212   2.143   3.658 -0.3758  0.1176  0.3570
14871TIP3   OH266027   6.259   3.732   0.296  0.1907 -0.1708  0.0699
14871TIP3    H166028   6.262   3.687   0.212  0.7663 -0.7508  0.3833
14871TIP3    H266029   6.184   3.694   0.342  0.9791 -1.2071  0.5336
14872TIP3   OH266030   1.459   5.348  14.847 -0.5391 -0.3649 -0.0569
14872TIP3    H166031   1.429   5.257  14.840 -0.5640 -0.5103  1.4948
14872TIP3    H266032   1.498   5.353  14.935 -0.2802  1.0495 -0.2367
14873TIP3   OH266033   0.449   0.569  10.250  0.0962  0.1969 -0.5256
14873TIP3    H166034   0.448   0.658  10.286 -1.4632 -0.4908  1.2985
14873TIP3    H266035   0.518   0.525  10.299  0.0826  0.0742 -0.6171
14874TIP3   OH266036   1.492   5.150  16.470 -0.0662  0.4817  0.7778
14874TIP3    H166037   1.490   5.195  16.555  0.0241 -0.6204  1.3885
14874TIP3    H266038   1.584   5.147  16.447 -0.1881  1.9879 -0.0596
14875TIP3   OH266039   5.176   0.341  11.561  0.3740 -0.2102  0.0052
14875TIP3    H166040   5.161   0.249  11.539 -2.2687  0.0799  0.2200
14875TIP3    H266041   5.090   0.372  11.591  1.0863  2.4402 -0.4768
14876TIP3   OH266042   4.801   4.786  13.562  0.4198  0.0378 -0.1127
14876TIP3    H166043   4.815   4.758  13.471 -0.1613 -0.1572 -0.1480
14876TIP3    H266044   4.742   4.861  13.555  1.3773  0.8162  0.0321
14877TIP3   OH266045   6.337   0.481   0.829 -0.0935 -0.0224  0.2294
14877TIP3    H166046   6.326   0.393   0.792 -2.7618 -0.7181  2.3345
14877TIP3    H266047   6.248   0.516   0.833  0.6574  1.8981  1.4603
14878TIP3   OH266048   2.783   3.749  14.646  0.1955 -0.5352 -0.9563
14878TIP3    H166049   2.745   3.689  14.711 -1.1451  1.4658  0.1970
14878TIP3    H266050   2.718   3.751  14.575 -0.5649  0.7173 -0.2631
14879TIP3   OH266051   6.532   4.097  13.732  0.6767 -0.0819  0.5048
14879TIP3    H166052   6.456   4.137  13.773  1.3831  1.2822  0.5188
14879TIP3    H266053   6.607   4.139  13.773  1.4434 -0.9917  0.0840
14880TIP3   OH266054   4.864   3.841  12.070 -0.3577  0.1257  0.3867
14880TIP3    H166055   4.810   3.886  12.006  2.6924  0.5378 -2.1586
14880TIP3    H266056   4.876   3.753  12.034  1.2876  0.3182  0.3877
14881TIP3   OH266057   2.649   4.553  16.611  0.1212 -0.3075 -0.8674
14881TIP3    H166058   2.568   4.552  16.661 -0.0154 -2.2456 -1.0449
14881TIP3    H266059   2.634   4.617  16.542 -0.9000  0.0435 -0.3328
14882TIP3   OH266060   1.593   3.222   1.692 -0.8511 -0.1502  0.7463
14882TIP3    H166061   1.523   3.286   1.699 -1.5012 -0.8259  0.5811
14882TIP3    H266062   1.561   3.158   1.629  0.7099  0.5133 -0.7962
14883TIP3   OH266063   2.683   0.974   0.185 -0.2132 -0.3357  0.2871
14883TIP3    H166064   2.688   0.949   0.277 -1.1803 -0.1024  0.4154
14883TIP3    H266065   2.715   1.065   0.183  1.2099 -0.8138  0.1515
14884TIP3   OH266066   2.241   0.565   4.324  0.1205  0.3816  0.4132
14884TIP3    H166067   2.161   0.594   4.279 -0.3043 -2.6810 -1.0779
14884TIP3    H266068   2.251   0.474   4.298  3.1397  0.1219  2.0461
14885TIP3   OH266069   6.616   2.809   3.427 -0.3576 -0.2058 -0.3986
14885TIP3    H166070   6.558   2.764   3.366 -0.6276  1.1127 -1.1549
14885TIP3    H266071   6.649   2.883   3.378 -0.9937  1.2083  1.1979
14886TIP3   OH266072   1.506   2.762   0.943  0.2353  0.0082 -0.2137
14886TIP3    H166073   1.513   2.782   1.036 -1.4546  1.4845 -0.3495
14886TIP3    H266074   1.436   2.697   0.937 -1.4839  1.7925 -0.5916
14887TIP3   OH266075   0.351   6.687  11.734 -0.3529 -0.2737  0.2133
14887TIP3    H166076   0.429   6.738  11.712 -0.2469  0.0289  1.2279
14887TIP3    H266077   0.380   6.596  11.728 -0.3013 -0.2067 -0.7342
14888TIP3   OH266078   0.494   2.963  12.126  0.2655  0.2071 -0.7231
14888TIP3    H166079   0.525   2.942  12.037  2.9290  2.4881 -0.4836
14888TIP3    H266080   0.403   2.989  12.114  0.1362 -0.8900 -2.5484
14889TIP3   OH266081   0.729   1.946   0.333  0.0589  0.0643 -0.1530
14889TIP3    H166082   0.675   1.937   0.255 -1.1398  1.0614  0.5239
14889TIP3    H266083   0.667   1.961   0.404  1.1682  0.0412  0.8664
14890TIP3   OH266084   0.601   3.602   4.019  0.2149 -0.5684 -0.4512
14890TIP3    H166085   0.583   3.693   4.045 -1.0330 -1.4405  2.1384
14890TIP3    H266086   0.536   3.583   3.952  1.0292  0.6648 -1.6278
14891TIP3   OH266087   3.870   6.170  13.464  0.0702 -0.2623  0.0663
14891TIP3    H166088   3.778   6.165  13.491 -0.8875 -0.4740 -2.8232
14891TIP3    H266089   3.880   6.259  13.430  0.3144 -0.8350 -1.4334
14892TIP3   OH266090   6.410   3.897   0.531  0.1624 -0.6431 -0.6649
14892TIP3    H166091   6.439   3.988   0.539  2.2621 -1.2919 -0.5330
14892TIP3    H266092   6.316   3.904   0.514 -0.7255  1.4974  3.6362
14893TIP3   OH266093   0.261   1.098   5.242  0.2381 -0.1283  0.1095
14893TIP3    H166094   0.228   1.177   5.285  2.0402  0.0741  1.1911
14893TIP3    H266095   0.203   1.028   5.272  0.8196  0.1860  2.0974
14894TIP3   OH266096   1.930   4.905   5.273  0.6909 -0.4156 -0.3811
14894TIP3    H166097   1.949   4.857   5.192 -0.3130 -1.3777 -0.0707
14894TIP3    H266098   1.902   4.837   5.335 -0.8561  0.5516  0.0476
14895TIP3   OH266099   1.071   0.240  14.849 -0.0648 -0.0965  0.2515
14895TIP3    H166100   1.008   0.312  14.850  1.0472  0.8865  0.9307
14895TIP3    H266101   1.021   0.164  14.880 -1.1773  0.4186 -0.2265
14896TIP3   OH266102   6.181   2.722   2.553 -0.2655 -0.6696  0.1900
14896TIP3    H166103   6.191   2.653   2.488 -0.8197 -0.1512 -0.4529
14896TIP3    H266104   6.261   2.716   2.605  0.8638 -0.2029 -1.4054
14897TIP3   OH266105   0.246   0.282  12.038  0.3804  0.3228  0.2384
14897TIP3    H166106   0.259   0.199  11.993  0.2675 -0.4359  1.5761
14897TIP3    H266107   0.308   0.281  12.111 -0.8901  0.5858  1.3602
14898TIP3   OH266108   1.472   3.029   1.545  0.2006 -0.5423 -0.1043
14898TIP3    H166109   1.388   3.014   1.502 -0.2762  0.7229  0.3443
14898TIP3    H266110   1.537   2.999   1.481 -0.4125  2.3678 -2.3513
14899TIP3   OH266111   3.799   5.196  11.486 -0.3958  0.3452  0.2909
14899TIP3    H166112   3.795   5.223  11.578  0.0773  0.4862  0.2741
14899TIP3    H266113   3.741   5.120  11.481  0.6120 -0.4972  1.0020
14900TIP3   OH266114   0.537   3.493   0.152 -0.1435  0.3415  0.0866
14900TIP3    H166115   0.452   3.465   0.185  0.8099 -0.9920  1.6026
14900TIP3    H266116   0.590   3.507   0.231  1.0386  1.1604 -0.8083
14901TIP3   OH266117   0.615   3.271  13.810  0.3834  0.0625  0.4367
14901TIP3    H166118   0.582   3.249  13.722 -0.0378  2.1249  0.0245
14901TIP3    H266119   0.537   3.270  13.865  0.5927 -0.8705  0.7311
14902TIP3   OH266120   1.249   2.317  16.389 -0.3369 -0.2556 -0.3307
14902TIP3    H166121   1.175   2.258  16.403 -0.4102 -0.1441 -0.2393
14902TIP3    H266122   1.225   2.397  16.436  0.6970 -0.8949  1.3580
14903TIP3   OH266123   1.649   3.919   1.408  0.9138 -0.7243 -0.5000
14903TIP3    H166124   1.651   3.872   1.324 -1.0783 -0.9744 -0.4677
14903TIP3    H266125   1.600   3.861   1.466 -2.0930  1.4991 -0.5960
14904TIP3   OH266126   1.314   5.084   0.133  0.4446  0.4604  0.1113
14904TIP3    H166127   1.269   5.167   0.116  0.0477 -0.2274 -2.5666
14904TIP3    H266128   1.245   5.026   0.166  0.0569  0.3691 -0.8275
14905TIP3   OH266129   4.399   4.678   0.739  0.2658  0.2352 -0.3268
14905TIP3    H166130   4.421   4.746   0.675 -1.6261  0.4527 -0.8032
14905TIP3    H266131   4.450   4.701   0.816  1.6403  0.6930 -1.3248
14906TIP3   OH266132   4.200   3.719   2.083 -0.3629  0.1577 -0.3575
14906TIP3    H166133   4.250   3.713   2.002 -0.1788  0.5410 -0.2716
14906TIP3    H266134   4.109   3.729   2.054 -0.3640 -0.3017 -0.5133
14907TIP3   OH266135   6.170   4.263  12.255 -0.5926 -0.2475 -0.1642
14907TIP3    H166136   6.164   4.260  12.159  2.1760 -1.4136 -0.3865
14907TIP3    H266137   6.115   4.191  12.285 -1.2176 -0.0802 -0.8804
14908TIP3   OH266138   5.969   4.202   6.153  0.0743  0.4868 -0.3964
14908TIP3    H166139   6.026   4.242   6.088 -0.3405  1.6533 -0.0772
14908TIP3    H266140   5.937   4.122   6.111 -1.1641  1.8258 -2.1608
14909TIP3   OH266141   6.624   0.279   5.712 -0.1252 -0.2194 -0.1581
14909TIP3    H166142   6.672   0.197   5.721 -2.3296 -1.5371  0.5509
14909TIP3    H266143   6.541   0.254   5.670 -0.3982  1.8406 -0.9457
14910TIP3   OH266144   0.117   5.361  16.577  0.0667 -0.4339  0.9257
14910TIP3    H166145   0.073   5.278  16.596 -1.6362 -0.0166 -0.9264
14910TIP3    H266146   0.156   5.347  16.490  1.6005  0.0371  1.5003
14911TIP3   OH266147   6.666   2.791   3.022 -0.3698  0.1470 -0.1119
14911TIP3    H166148   6.739   2.749   3.066 -0.5076  1.3423  1.3472
14911TIP3    H266149   6.705   2.837   2.947 -0.0654 -1.5254 -1.0153
14912TIP3   OH266150   2.768   3.440   5.211 -0.2352  0.4531  0.2870
14912TIP3    H166151   2.836   3.453   5.144  0.1445 -0.2507  0.5214
14912TIP3    H266152   2.721   3.523   5.214  1.5183  1.4871  1.1268
14913TIP3   OH266153   0.642   5.184   2.946  0.3451 -0.6087 -0.0617
14913TIP3    H166154   0.700   5.117   2.982 -1.4514 -1.9892  0.3853
14913TIP3    H266155   0.617   5.237   3.022  0.2115 -0.6446 -0.0808
14914TIP3   OH266156   4.228   0.247  14.565  0.3644 -0.2711 -0.0247
14914TIP3    H166157   4.269   0.333  14.553  0.2652 -0.4395 -1.7329
14914TIP3    H266158   4.226   0.209  14.478 -1.9319 -0.9556  0.2722
14915TIP3   OH266159   6.689   0.313  14.806 -0.2652  0.5790  0.2162
14915TIP3    H166160   6.763   0.270  14.851 -0.3653 -0.7776 -0.8435
14915TIP3    H266161   6.663   0.251  14.738 -2.5161  0.9334  0.6672
14916TIP3   OH266162   3.527   0.218  12.542  0.2170  1.0480 -0.2748
14916TIP3    H166163   3.519   0.308  12.510 -4.1853  0.9944  0.0152
14916TIP3    H266164   3.553   0.167  12.465  0.2037  2.2561 -1.0960
14917TIP3   OH266165   1.646   6.466   4.540 -0.7606  0.3886  0.0707
14917TIP3    H166166   1.729   6.445   4.583 -0.5780  2.4666  0.8770
14917TIP3    H266167   1.588   6.393   4.562  0.6721 -0.8530 -0.0787
14918TIP3   OH266168   0.117   2.796  12.683  0.5699 -0.3767 -0.2032
14918TIP3    H166169   0.102   2.890  12.690 -1.1521 -0.6668  0.5155
14918TIP3    H266170   0.120   2.765  12.773 -0.0941 -1.1752 -0.4408
14919TIP3   OH266171   1.480   0.204   2.678  0.1589 -0.0790  0.2934
14919TIP3    H166172   1.386   0.195   2.690  0.1108  1.8658  2.1056
14919TIP3    H266173   1.490   0.278   2.619  0.5446 -0.1837  0.2225
14920TIP3   OH266174   3.183   4.798   2.865 -0.1360 -0.2978 -0.2964
14920TIP3    H166175   3.252   4.805   2.799 -0.2055 -0.0900 -0.3467
14920TIP3    H266176   3.118   4.864   2.839  0.9083  1.4434  1.2864
14921TIP3   OH266177   0.718   3.802  11.925  0.0401 -0.1301  0.4368
14921TIP3    H166178   0.689   3.736  11.862  1.2420  1.5959 -2.0753
14921TIP3    H266179   0.660   3.877  11.909 -0.0030  0.1523  1.8223
14922TIP3   OH266180   0.203   4.300   4.976 -0.0166  0.0185 -0.6109
14922TIP3    H166181   0.265   4.357   5.021 -0.5121 -0.6288  0.9664
14922TIP3    H266182   0.117   4.328   5.006 -0.2137 -2.9347  2.1252
14923TIP3   OH266183   3.351   5.084   2.407  0.3819 -0.0346 -0.1549
14923TIP3    H166184   3.432   5.039   2.431  0.6083  0.4817  0.0573
14923TIP3    H266185   3.340   5.065   2.314  1.0324  0.3322 -0.3099
14924TIP3   OH266186   0.940   1.019  15.919 -0.7908  0.3749 -0.1753
14924TIP3    H166187   0.854   1.061  15.908 -0.9552  0.1819  0.3316
14924TIP3    H266188   0.971   1.051  16.004  0.0199  1.1055 -0.7321
14925TIP3   OH266189   0.576   5.085  16.929 -0.2868  0.1991  0.9240
14925TIP3    H166190   0.578   5.115  16.838 -0.2930 -1.4894  0.3290
14925TIP3    H266191   0.501   5.130  16.968 -2.0985 -1.2176 -0.7387
14926TIP3   OH266192   6.637   0.997   2.616  0.0713  0.3716 -0.2313
14926TIP3    H166193   6.671   1.054   2.685  1.4045  0.4698 -0.9304
14926TIP3    H266194   6.635   1.052   2.538  3.4758 -0.9604 -1.4594
14927TIP3   OH266195   6.586   4.082   0.725 -0.1804 -0.4356  0.4614
14927TIP3    H166196   6.624   4.167   0.701 -2.0339  0.3848  0.2337
14927TIP3    H266197   6.656   4.019   0.710  0.6186  0.7977 -1.3754
14928TIP3   OH266198   0.292   4.165   2.069 -0.0664  0.5005  0.4169
14928TIP3    H166199   0.270   4.181   1.977  0.7424  2.1213  0.4819
14928TIP3    H266200   0.210   4.134   2.108 -0.4639 -0.0643 -0.7959
14929TIP3   OH266201   3.701   2.917   2.247 -0.2671  0.6147  0.2298
14929TIP3    H166202   3.671   2.904   2.157  0.2351  2.4621 -0.2437
14929TIP3    H266203   3.656   2.996   2.276  1.1495  1.2331  0.8504
14930TIP3   OH266204   0.411   1.851   2.579 -0.1281 -0.0005 -0.3547
14930TIP3    H166205   0.385   1.940   2.605  0.0123 -0.5402  1.7859
14930TIP3    H266206   0.403   1.799   2.659  0.2210 -1.8403 -1.4615
14931TIP3   OH266207   5.395   3.219   0.200 -0.1033  0.2174  0.0013
14931TIP3    H166208   5.442   3.246   0.279 -1.7907 -1.7039  1.8209
14931TIP3    H266209   5.444   3.143   0.168  0.0184  0.3789 -0.1942
14932TIP3   OH266210   4.184   0.983   3.942  0.0733 -0.2424 -0.1992
14932TIP3    H166211   4.252   1.015   4.001  0.6489 -0.9664 -0.4583
14932TIP3    H266212   4.214   1.006   3.855  0.9079 -2.1135 -0.4688
14933TIP3   OH266213   6.005   1.112  15.409 -0.1134  0.6731  0.1526
14933TIP3    H166214   6.098   1.108  15.386 -0.6370 -3.4976 -2.2949
14933TIP3    H266215   5.960   1.130  15.326 -1.5574 -1.8033  0.2807
14934TIP3   OH266216   4.385   4.285  10.538 -0.1560  0.6206 -0.1483
14934TIP3    H166217   4.461   4.344  10.535  0.5010 -0.2215 -0.2015
14934TIP3    H266218   4.391   4.242  10.623  0.0308 -0.2419 -0.5950
14935TIP3   OH266219   4.653   6.218  12.435 -0.5082  0.5793 -0.2637
14935TIP3    H166220   4.598   6.278  12.385 -3.2981 -2.0745 -0.6131
14935TIP3    H266221   4.612   6.214  12.522 -0.2271 -0.5731 -0.1638
14936TIP3   OH266222   0.021   6.623  15.420 -0.2145  0.2119  0.1123
14936TIP3    H166223   0.021   6.595  15.511  2.1456 -0.9547 -0.1477
14936TIP3    H266224   0.110   6.602  15.389 -0.7321  1.1946 -2.2557
14937TIP3   OH266225   2.053   4.464   0.700 -0.1477  0.3833  0.0076
14937TIP3    H166226   2.030   4.382   0.743  0.1917 -1.2220 -2.6709
14937TIP3    H266227   1.998   4.529   0.742  0.2837 -0.9504  2.9371
14938TIP3   OH266228   0.723   3.054  13.149  0.4294  0.0085  0.1406
14938TIP3    H166229   0.657   2.987  13.167 -0.3681  0.9410  0.7721
14938TIP3    H266230   0.734   3.100  13.232  0.2437  1.2681 -0.5092
14939TIP3   OH266231   0.217   1.143   0.140  0.0216 -0.0058  0.3813
14939TIP3    H166232   0.311   1.123   0.135  0.3354  1.2166  0.9475
14939TIP3    H266233   0.213   1.239   0.137 -1.2598 -0.0612 -0.2288
14940TIP3   OH266234   2.811   0.073   5.759 -0.2174 -0.2101  0.1305
14940TIP3    H166235   2.722   0.038   5.764 -0.3623 -0.0899 -1.1231
14940TIP3    H266236   2.803   0.164   5.786 -0.2889 -0.4602  0.9789
14941TIP3   OH266237   5.519   1.872   4.079 -0.3744 -0.0230 -0.3435
14941TIP3    H166238   5.586   1.926   4.037  0.4681 -1.8476 -1.4960
14941TIP3    H266239   5.561   1.786   4.090 -1.6811 -0.5100  1.3110
14942TIP3   OH266240   4.688   4.671  13.016  0.1576 -0.2902  0.0740
14942TIP3    H166241   4.711   4.663  12.924 -2.0756 -1.2109 -0.4622
14942TIP3    H266242   4.676   4.581  13.046  0.3774  0.0195  1.1528
14943TIP3   OH266243   2.378   3.146   4.210 -0.0703 -0.5571 -0.1236
14943TIP3    H166244   2.339   3.062   4.186  1.6030 -1.0041 -1.4913
14943TIP3    H266245   2.471   3.126   4.221  0.4095  1.1616 -0.8095
14944TIP3   OH266246   0.805   4.341   0.719 -0.6015 -0.3353  0.2663
14944TIP3    H166247   0.820   4.429   0.685  0.8208 -1.7752 -3.3132
14944TIP3    H266248   0.890   4.314   0.754 -0.4310 -1.0149 -0.6412
14945TIP3   OH266249   5.860   0.868  12.866 -0.4859  0.0591  0.3857
14945TIP3    H166250   5.806   0.930  12.817  0.9473 -0.3835 -1.9062
14945TIP3    H266251   5.801   0.832  12.933 -2.2403  1.5027 -0.3100
14946TIP3   OH266252   5.635   4.007   4.626  0.2245  0.4057  0.0385
14946TIP3    H166253   5.671   3.919   4.637 -0.6762 -0.1666 -1.3774
14946TIP3    H266254   5.545   3.993   4.596  0.7816  1.7500 -2.5359
14947TIP3   OH266255   3.854   6.646   4.258  0.0670  0.3813  0.0407
14947TIP3    H166256   3.916   6.594   4.208  1.3206  0.8443  1.0512
14947TIP3    H266257   3.906   6.720   4.291 -1.5762  2.1433 -1.1089
14948TIP3   OH266258   0.798   4.184  12.822  0.2385  0.3971 -0.4263
14948TIP3    H166259   0.796   4.109  12.762 -0.4392 -1.2362  1.5062
14948TIP3    H266260   0.706   4.211  12.829  0.6711  2.9978 -2.8221
14949TIP3   OH266261   3.442   4.345   5.560 -0.5428  0.5861 -0.3416
14949TIP3    H166262   3.527   4.386   5.544  0.8790 -1.5006  1.2644
14949TIP3    H266263   3.420   4.369   5.650 -1.8767  1.4051 -0.8561
14950TIP3   OH266264   2.695   6.242  12.844  0.0558 -0.1580 -0.1352
14950TIP3    H166265   2.779   6.201  12.867  0.5684  1.3414  0.7586
14950TIP3    H266266   2.654   6.261  12.928  0.5993  2.6499 -0.4218
14951TIP3   OH266267   4.572   0.665  17.063  0.5998 -0.3299  0.0939
14951TIP3    H166268   4.536   0.721  17.132  1.0017 -0.0699  0.0947
14951TIP3    H266269   4.649   0.712  17.032 -0.7258  0.6517 -1.9878
14952TIP3   OH266270   3.805   4.972  11.205 -0.1504 -0.2730 -0.5849
14952TIP3    H166271   3.811   4.905  11.273 -0.9719  0.8384  0.6020
14952TIP3    H266272   3.816   4.923  11.123  2.3337 -1.4357  0.3528
14953TIP3   OH266273   5.475   0.829   1.996 -0.3159 -0.1349  0.3667
14953TIP3    H166274   5.494   0.793   2.082  0.4354 -0.4779  0.0688
14953TIP3    H266275   5.507   0.763   1.935 -2.5221 -0.7571 -0.1971
14954TIP3   OH266276   0.581   0.997  12.593  0.0475 -0.0749 -0.0460
14954TIP3    H166277   0.627   0.944  12.529 -0.2373 -0.6141  0.1950
14954TIP3    H266278   0.568   0.940  12.668  0.3220  0.5307  0.4784
14955TIP3   OH266279   0.113   6.002  14.710  0.3429 -0.1492  0.5431
14955TIP3    H166280   0.070   5.918  14.691 -0.4279 -0.2894  2.6627
14955TIP3    H266281   0.191   6.003  14.654  0.7812 -2.6173  1.0212
14956TIP3   OH266282   5.891   1.621   3.374  0.1347  0.2761 -0.4858
14956TIP3    H166283   5.929   1.600   3.459  1.5601  1.5084 -0.7695
14956TIP3    H266284   5.865   1.713   3.382  0.6978  0.5413 -1.4972
14957TIP3   OH266285   2.488   2.475  15.668  0.2020  0.0110  0.3045
14957TIP3    H166286   2.580   2.493  15.687  0.1179  2.0149 -0.9049
14957TIP3    H266287   2.455   2.434  15.748  1.7120  0.9262  1.4701
14958TIP3   OH266288   3.990   4.021  13.891  0.6307  0.3601  0.0996
14958TIP3    H166289   3.960   4.064  13.811  1.5899  0.5985 -0.1370
14958TIP3    H266290   3.929   3.948  13.903  0.9096 -0.1215 -1.2529
14959TIP3   OH266291   6.439   6.058  13.597  0.6229  0.3962 -0.4613
14959TIP3    H166292   6.472   6.030  13.511  1.1520  1.2917 -0.5651
14959TIP3    H266293   6.508   6.114  13.632  0.5712 -0.2286  0.7140
14960TIP3   OH266294   4.771   0.669  13.224 -0.1292  0.0511  0.2258
14960TIP3    H166295   4.722   0.700  13.300  0.6426 -2.6991  2.0190
14960TIP3    H266296   4.849   0.627  13.262  1.8881  1.2409 -2.3076
14961TIP3   OH266297   6.283   3.933   4.633 -0.1264  0.5436 -0.1072
14961TIP3    H166298   6.296   3.876   4.558  1.2591  0.8301 -0.1066
14961TIP3    H266299   6.318   3.883   4.707 -1.8335  0.0969  0.4479
14962TIP3   OH266300   6.091   3.920  17.121  0.1253  0.1377 -0.4076
14962TIP3    H166301   6.006   3.946  17.084  0.5895  2.4215 -0.0185
14962TIP3    H266302   6.139   3.883  17.047 -0.8356 -0.2641 -0.8507
14963TIP3   OH266303   1.579   3.045  15.933 -0.5698 -0.2102 -0.1114
14963TIP3    H166304   1.625   3.116  15.978  0.1050 -1.0894  0.6276
14963TIP3    H266305   1.501   3.086  15.897  0.2986  1.1266 -0.5659
14964TIP3   OH266306   3.912   5.999  10.673  0.0138  0.0040  0.1295
14964TIP3    H166307   3.903   5.904  10.662 -0.7581  0.2150 -1.2423
14964TIP3    H266308   3.944   6.009  10.763  0.7483 -1.5760  0.0851
14965TIP3   OH266309   6.170   1.434   2.397  0.1639  0.0841 -0.0799
14965TIP3    H166310   6.079   1.459   2.378  0.2075 -0.3925 -0.9788
14965TIP3    H266311   6.167   1.339   2.408  0.7340 -0.0938 -1.3156
14966TIP3   OH266312   5.686   4.404  13.341  0.1819  0.4850 -0.5753
14966TIP3    H166313   5.618   4.438  13.399  1.0978 -0.3381  1.0527
14966TIP3    H266314   5.755   4.470  13.343  0.0885  0.5984 -0.9905
14967TIP3   OH266315   5.588   1.276   3.737 -0.4733 -0.3245  0.5161
14967TIP3    H166316   5.658   1.331   3.701 -1.8362  1.2450  0.1040
14967TIP3    H266317   5.621   1.246   3.821 -0.1092  2.2240  1.3758
14968TIP3   OH266318   2.169   4.316  13.061  0.2420 -0.0185  0.0881
14968TIP3    H166319   2.122   4.398  13.045 -0.2931 -0.2851  0.2551
14968TIP3    H266320   2.175   4.310  13.156 -1.4084 -1.0811  0.1721
14969TIP3   OH266321   4.724   5.963  13.804  0.0660 -0.1156  0.7972
14969TIP3    H166322   4.744   5.870  13.792  0.0275  0.0263 -0.5166
14969TIP3    H266323   4.734   6.001  13.716 -1.0880  0.8901  1.0827
14970TIP3   OH266324   5.930   1.178   0.888  0.3533 -0.0529 -0.0026
14970TIP3    H166325   5.999   1.147   0.947  0.2490  2.2186  1.4441
14970TIP3    H266326   5.977   1.213   0.812  1.0329  2.4833  1.4332
14971TIP3   OH266327   3.242   2.442   4.734 -0.1203  0.1780  0.1011
14971TIP3    H166328   3.234   2.412   4.825  0.1630 -0.3433 -0.0397
14971TIP3    H266329   3.166   2.497   4.720 -1.3096 -1.4093  0.0327
14972TIP3   OH266330   4.127   2.973  13.979  0.4473  0.2139 -0.0194
14972TIP3    H166331   4.130   3.069  13.978 -1.2999  0.3123 -1.7660
14972TIP3    H266332   4.176   2.947  13.901 -1.4171 -0.1430 -1.1204
14973TIP3   OH266333   6.523   0.583  12.886  0.3774 -0.3398  0.5832
14973TIP3    H166334   6.582   0.652  12.858 -0.5433  0.4917  0.6385
14973TIP3    H266335   6.543   0.510  12.828  1.0696  0.1063  0.2431
14974TIP3   OH266336   1.800   0.792   4.778 -0.4183 -0.2026  0.5586
14974TIP3    H166337   1.725   0.811   4.721 -0.5142 -0.8807  0.4507
14974TIP3    H266338   1.876   0.825   4.730 -0.5084 -0.6963  0.0709
14975TIP3   OH266339   4.283   1.063   3.323  0.6290  0.2926  0.1825
14975TIP3    H166340   4.260   1.116   3.246  0.9662 -1.2110 -0.9904
14975TIP3    H266341   4.368   1.026   3.302  0.5078 -0.5315  1.0779
14976TIP3   OH266342   5.941   3.209  12.058 -0.1034  0.1403 -0.1000
14976TIP3    H166343   6.006   3.200  12.127 -0.6515 -0.5179  0.3412
14976TIP3    H266344   5.860   3.173  12.096 -0.5764  0.3949 -0.8429
14977TIP3   OH266345   5.712   2.119   6.413  0.2470 -0.0465 -0.1851
14977TIP3    H166346   5.639   2.096   6.471 -1.5489  0.7220 -1.9988
14977TIP3    H266347   5.734   2.209   6.438 -0.5658  0.3059 -0.6956
14978TIP3   OH266348   2.443   3.124  13.096 -0.1533  0.4794  0.3636
14978TIP3    H166349   2.413   3.143  13.185 -1.6954 -0.8371  0.1846
14978TIP3    H266350   2.417   3.200  13.045 -1.9740 -0.0009  0.5112
14979TIP3   OH266351   1.975   5.154  14.034 -0.5518  0.0029 -0.0209
14979TIP3    H166352   2.035   5.079  14.033  1.4528  1.5203 -0.6155
14979TIP3    H266353   1.990   5.195  14.119 -0.4425  0.6079 -0.3264
14980TIP3   OH266354   4.528   1.007   4.391 -0.0542  0.1250  0.4893
14980TIP3    H166355   4.550   1.032   4.481 -1.8877  2.0143  0.4648
14980TIP3    H266356   4.434   0.992   4.392  0.2945 -2.6439 -0.5464
14981TIP3   OH266357   4.490   0.311  13.012  0.3884  0.1534  0.0165
14981TIP3    H166358   4.414   0.366  13.028  1.6264  1.4863  1.6816
14981TIP3    H266359   4.537   0.309  13.095  2.1377 -0.7000 -0.9218
14982TIP3   OH266360   5.417   2.850  16.184 -0.1869  0.0420  0.3040
14982TIP3    H166361   5.504   2.876  16.214 -0.8502  0.6214  1.8369
14982TIP3    H266362   5.377   2.932  16.153  0.1126 -0.3751 -1.2807
14983TIP3   OH266363   6.301   4.796   3.423 -0.0965  0.3068 -0.5651
14983TIP3    H166364   6.230   4.760   3.371 -0.7815 -0.6234  0.9361
14983TIP3    H266365   6.295   4.890   3.410 -0.5492  0.1288 -1.7518
14984TIP3   OH266366   5.489   5.808   0.294  0.6007 -0.3085  0.2745
14984TIP3    H166367   5.570   5.797   0.343  1.3243 -0.2363 -0.8960
14984TIP3    H266368   5.445   5.723   0.300  1.1682 -0.6110  0.1801
14985TIP3   OH266369   6.601   4.207  14.046 -0.0219  1.1161  0.6243
14985TIP3    H166370   6.541   4.278  14.022 -0.2890  0.5307 -0.4619
14985TIP3    H266371   6.555   4.127  14.022  0.2358  0.5471  1.9316
14986TIP3   OH266372   6.783   1.209   1.713  0.5569 -0.7994 -0.8390
14986TIP3    H166373   6.869   1.215   1.672 -0.0851  1.8611 -1.9927
14986TIP3    H266374   6.770   1.293   1.755 -0.9737 -1.6297  0.4608
14987TIP3   OH266375   2.164   5.095   0.577 -0.0836 -0.2263 -0.5665
14987TIP3    H166376   2.109   5.163   0.540  1.1858  0.9753 -0.3127
14987TIP3    H266377   2.133   5.085   0.667 -0.2609  0.0225 -0.5984
14988TIP3   OH266378   2.332   1.242  15.901 -0.4192  0.2620  0.1154
14988TIP3    H166379   2.265   1.280  15.959 -1.2491 -1.5611  0.4013
14988TIP3    H266380   2.308   1.150  15.893  1.3385 -0.1559 -0.8420
14989TIP3   OH266381   5.542   5.659   0.529  0.7023 -0.3125  0.5820
14989TIP3    H166382   5.461   5.609   0.515  0.8688 -0.3354 -0.3850
14989TIP3    H266383   5.559   5.651   0.622 -0.6225  0.0183  0.8667
14990TIP3   OH266384   3.204   4.446   5.096  0.3289 -0.0604 -0.2752
14990TIP3    H166385   3.202   4.512   5.027  0.0569 -0.1855 -0.3898
14990TIP3    H266386   3.119   4.454   5.139  0.6302  0.2574  0.2759
14991TIP3   OH266387   3.655   6.471   3.747  0.4035 -0.7181  0.3826
14991TIP3    H166388   3.674   6.562   3.769 -0.0417  0.2731 -2.7953
14991TIP3    H266389   3.562   6.460   3.770  0.3458 -0.2315  0.3987
14992TIP3   OH266390   4.301   3.783   4.990 -0.5007 -0.6181 -0.3962
14992TIP3    H166391   4.237   3.843   4.951  0.4163 -0.0326 -1.0391
14992TIP3    H266392   4.323   3.823   5.074  0.3451  0.1402 -0.9608
14993TIP3   OH266393   5.379   5.984  16.619  0.4345 -0.4513  0.1036
14993TIP3    H166394   5.415   5.981  16.530  1.6520 -0.0550  0.5614
14993TIP3    H266395   5.373   6.077  16.639  1.5584 -0.5475  0.9649
14994TIP3   OH266396   5.352   1.318  13.889 -0.1646  0.0344  0.1110
14994TIP3    H166397   5.428   1.317  13.946  0.3178  1.7183 -0.4306
14994TIP3    H266398   5.387   1.335  13.801 -1.1511  1.1271 -0.0997
14995TIP3   OH266399   0.128   4.206   0.090 -0.3588 -0.5732 -0.3564
14995TIP3    H166400   0.180   4.222   0.011  1.9231  0.0128  1.1671
14995TIP3    H266401   0.039   4.193   0.058  0.6859 -1.6460 -3.1246
14996TIP3   OH266402   3.639   5.467  11.460 -0.3495  0.1056 -0.0780
14996TIP3    H166403   3.550   5.455  11.494 -0.0639  0.9828  1.0503
14996TIP3    H266404   3.695   5.459  11.537  0.4643  0.5860 -0.6114
14997TIP3   OH266405   0.409   0.561   0.662 -0.6831  0.1102 -0.6698
14997TIP3    H166406   0.373   0.623   0.598 -0.6396 -0.1246 -0.9241
14997TIP3    H266407   0.450   0.616   0.728 -1.0735  0.3697 -0.6352
14998TIP3   OH266408   0.212   3.533   1.317 -0.0309  0.2012  0.0851
14998TIP3    H166409   0.250   3.448   1.297  0.6416  0.3906  0.5527
14998TIP3    H266410   0.161   3.519   1.397 -1.7598 -0.2758 -1.0378
14999TIP3   OH266411   1.629   2.005  15.417 -0.0733 -0.0154 -0.0785
14999TIP3    H166412   1.695   2.073  15.404 -0.5750  0.0471 -2.6136
14999TIP3    H266413   1.549   2.040  15.378 -1.0027 -1.0859  0.7865
15000TIP3   OH266414   2.750   0.114  16.892 -0.5556  0.4194  0.1347
15000TIP3    H166415   2.819   0.047  16.893 -1.6616 -0.7581  0.2801
15000TIP3    H266416   2.783   0.181  16.831  0.7443 -0.0675  0.2697
15001TIP3   OH266417   1.223   6.682   4.938  0.4710  0.3229  0.4411
15001TIP3    H166418   1.133   6.660   4.961  0.1988  1.7580  0.8795
15001TIP3    H266419   1.220   6.703   4.844  0.0355  1.6882  0.7317
15002TIP3   OH266420   6.024   3.309  11.222 -0.0297 -0.1194  0.4057
15002TIP3    H166421   5.953   3.374  11.214  1.0688  1.0907  0.2018
15002TIP3    H266422   5.982   3.233  11.262 -1.7832  0.0153 -1.0392
15003TIP3   OH266423   3.500   6.335  14.138  0.5440  0.8096  0.3620
15003TIP3    H166424   3.428   6.289  14.180  0.1324 -0.2162 -1.3439
15003TIP3    H266425   3.516   6.411  14.194 -0.3797 -0.1123  1.9567
15004TIP3   OH266426   0.452   6.282   0.520 -0.2331 -0.0673 -0.2037
15004TIP3    H166427   0.391   6.299   0.448 -0.1216 -2.3009 -0.9289
15004TIP3    H266428   0.470   6.188   0.513  0.3329 -0.2108  2.3407
15005TIP3   OH266429   6.699   4.921  13.404  0.1490 -0.1104 -0.0395
15005TIP3    H166430   6.752   4.844  13.383 -1.1940 -1.1845  0.3369
15005TIP3    H266431   6.685   4.964  13.320  1.4911  0.1188 -0.1592
15006TIP3   OH266432   1.731   0.569   5.577  0.5531 -0.3553  0.1922
15006TIP3    H166433   1.637   0.551   5.579  0.7683 -1.9398 -1.3877
15006TIP3    H266434   1.766   0.524   5.653  0.1199 -0.2883  0.4365
15007TIP3   OH266435   4.466   6.303  14.911  0.1399  0.2172  0.0616
15007TIP3    H166436   4.503   6.357  14.841  1.1298 -2.2940 -1.4598
15007TIP3    H266437   4.541   6.284  14.969 -0.3373  0.9348  0.9483
15008TIP3   OH266438   2.326   2.384  13.418  0.4223  0.3567 -0.0486
15008TIP3    H166439   2.373   2.467  13.419  0.6072  0.2756  1.6581
15008TIP3    H266440   2.326   2.356  13.510 -0.0479 -1.2927 -0.5200
15009TIP3   OH266441   3.298   6.324  11.710 -0.4238 -0.1463 -0.0765
15009TIP3    H166442   3.294   6.246  11.655 -0.4005 -0.8262  0.8564
15009TIP3    H266443   3.210   6.362  11.705  0.0074  0.7477 -1.8642
15010TIP3   OH266444   6.239   1.537   1.707  0.2155  0.4208  0.5862
15010TIP3    H166445   6.240   1.493   1.622  0.6862 -0.7772  1.1869
15010TIP3    H266446   6.164   1.499   1.753 -0.0424  1.0681  0.7107
15011TIP3   OH266447   6.577   0.678  14.486 -0.2909 -0.2009  0.7478
15011TIP3    H166448   6.659   0.630  14.471  0.0385  0.3985  0.5505
15011TIP3    H266449   6.529   0.626  14.549  0.3185 -0.4884  0.9828
15012TIP3   OH266450   4.657   5.974  16.269 -0.2192 -0.0765 -0.1719
15012TIP3    H166451   4.644   6.039  16.199 -1.4698 -0.1830 -0.0668
15012TIP3    H266452   4.740   5.932  16.247  0.9052  1.8856  0.0319
15013TIP3   OH266453   4.501   4.018  16.808  0.3115 -0.1198  0.4283
15013TIP3    H166454   4.457   4.103  16.805  0.9310  0.1891 -1.1195
15013TIP3    H266455   4.594   4.039  16.817  0.3563 -0.6856  1.3859
15014TIP3   OH266456   0.552   1.868  15.277 -0.2279 -0.3971  0.1748
15014TIP3    H166457   0.572   1.922  15.200 -0.9455  0.6254  0.6807
15014TIP3    H266458   0.490   1.920  15.327  1.1054 -0.4916  2.0488
15015TIP3   OH266459   0.489   1.114   0.225  0.0330  0.1046  0.2087
15015TIP3    H166460   0.489   1.147   0.135  0.1833 -0.4040  0.0176
15015TIP3    H266461   0.572   1.145   0.262 -0.1489  0.5391  0.2606
15016TIP3   OH266462   4.996   3.445   3.182  0.1438 -0.0554 -0.1585
15016TIP3    H166463   4.988   3.414   3.273  1.1295  1.4262  0.4662
15016TIP3    H266464   4.952   3.377   3.130  1.3384 -1.9836  1.2149
15017TIP3   OH266465   5.023   4.567  12.090 -0.3147  0.1124  0.2038
15017TIP3    H166466   5.031   4.660  12.112 -1.7012 -0.1964  2.3911
15017TIP3    H266467   4.997   4.566  11.999  1.1866  1.7770 -0.3185
15018TIP3   OH266468   0.386   5.298  15.700 -0.1456 -0.3547  0.1650
15018TIP3    H166469   0.409   5.324  15.611 -0.0500  1.8888  0.7795
15018TIP3    H266470   0.450   5.230  15.722 -0.8011 -1.6814 -1.7720
15019TIP3   OH266471   2.966   4.137   2.384 -0.8043 -0.1388  0.5813
15019TIP3    H166472   2.875   4.107   2.385 -0.9975  0.3866 -0.2076
15019TIP3    H266473   3.017   4.057   2.372 -1.1827 -0.4072  0.7388
15020TIP3   OH266474   4.709   3.540   4.865 -0.3298  0.4004 -0.8032
15020TIP3    H166475   4.649   3.614   4.868 -0.5361  0.2039  1.1876
15020TIP3    H266476   4.690   3.489   4.944  1.2955 -0.5897 -0.9855
15021TIP3   OH266477   3.677   2.127   1.416  0.2518  0.7108 -0.1335
15021TIP3    H166478   3.766   2.111   1.386 -0.1825  2.2768 -2.5017
15021TIP3    H266479   3.632   2.043   1.405  1.4082 -0.1370  1.2449
15022TIP3   OH266480   1.773   6.739  15.537  0.1789  0.6260 -0.1278
15022TIP3    H166481   1.823   6.806  15.491  1.3584 -0.2783 -0.2172
15022TIP3    H266482   1.692   6.783  15.563 -0.7760  1.1160 -3.4148
15023TIP3   OH266483   2.077   2.674   0.922  0.0190 -0.1411 -0.2325
15023TIP3    H166484   2.171   2.691   0.910  0.2687 -1.1293  0.2285
15023TIP3    H266485   2.072   2.627   1.005 -1.0528  1.2362  0.5190
15024TIP3   OH266486   5.270   0.898   2.855 -0.3232  0.3399 -0.0079
15024TIP3    H166487   5.299   0.808   2.874 -0.7152  0.3386  0.6035
15024TIP3    H266488   5.223   0.891   2.772  0.6002  0.1759 -0.5353
15025TIP3   OH266489   2.243   0.682  11.587 -0.4333  0.1033 -0.0406
15025TIP3    H166490   2.176   0.725  11.640 -0.2212 -0.8906  1.1087
15025TIP3    H266491   2.211   0.688  11.497 -1.8817 -0.0203  0.4392
15026TIP3   OH266492   2.442   4.606  12.305  0.2404  0.3733 -0.3901
15026TIP3    H166493   2.493   4.547  12.360 -1.8670 -0.1451  1.1227
15026TIP3    H266494   2.397   4.548  12.243 -1.5565  0.3591  0.8682
15027TIP3   OH266495   3.784   1.936   5.369  0.5955  0.7214  0.3488
15027TIP3    H166496   3.789   2.005   5.304 -2.2760  0.9067  0.1855
15027TIP3    H266497   3.756   1.981   5.449  0.7520  0.0405  0.7941
15028TIP3   OH266498   4.239   3.615  16.448  0.2554 -0.1392 -0.2131
15028TIP3    H166499   4.274   3.547  16.506  0.4815  0.5810  0.4988
15028TIP3    H266500   4.260   3.583  16.360  1.7395 -0.2726  0.1510
15029TIP3   OH266501   5.149   1.137  13.583  0.4842 -0.4354 -0.0331
15029TIP3    H166502   5.105   1.220  13.602 -1.4686 -1.5444  0.5818
15029TIP3    H266503   5.164   1.140  13.488 -1.2542 -0.1099 -0.3375
15030TIP3   OH266504   1.948   3.978  15.677  0.0674 -0.0073 -0.3297
15030TIP3    H166505   2.034   4.000  15.641  0.8218 -0.6595  0.9975
15030TIP3    H266506   1.961   3.979  15.772 -1.6337  0.8256 -0.0580
15031TIP3   OH266507   0.652   6.382  11.171 -0.7051 -0.1498  0.3563
15031TIP3    H166508   0.639   6.446  11.241  2.5274  1.6218 -0.4919
15031TIP3    H266509   0.598   6.415  11.099  0.4253  1.3229  0.1461
15032TIP3   OH266510   6.731   4.799  16.417  0.1844 -0.3139  0.0554
15032TIP3    H166511   6.750   4.852  16.494  0.6898  0.4550 -0.5797
15032TIP3    H266512   6.648   4.833  16.384  0.4909  0.0713 -0.3324
15033TIP3   OH266513   0.628   6.477  16.778  0.0436  0.0514 -0.3040
15033TIP3    H166514   0.640   6.519  16.693  0.4400  0.4414 -0.0585
15033TIP3    H266515   0.542   6.435  16.771  0.6077 -0.9962 -1.3315
15034TIP3   OH266516   6.210   4.862   3.832  0.1389  0.4303 -0.3387
15034TIP3    H166517   6.148   4.867   3.759 -0.9586 -1.3243  0.3842
15034TIP3    H266518   6.161   4.816   3.901  1.1847  1.8783  1.4639
15035TIP3   OH266519   6.679   2.746  16.376 -0.4093  0.1811  0.4319
15035TIP3    H166520   6.661   2.751  16.470 -0.5187 -0.7628  0.4708
15035TIP3    H266521   6.675   2.652  16.356  0.1690  0.3261 -0.4048
15036TIP3   OH266522   2.894   0.840   2.652  0.5504  0.4320 -0.1968
15036TIP3    H166523   2.940   0.765   2.614 -3.5758 -0.8926 -3.2989
15036TIP3    H266524   2.846   0.803   2.727  1.0153  0.7746  0.2774
15037TIP3   OH266525   0.899   6.134   5.538 -0.4686 -0.2464  0.2250
15037TIP3    H166526   0.987   6.099   5.555  0.8083  1.6035 -1.9157
15037TIP3    H266527   0.843   6.057   5.534  1.6982 -1.9034 -1.7171
15038TIP3   OH266528   3.369   5.988  15.573 -1.0995  0.3014 -0.5138
15038TIP3    H166529   3.310   5.930  15.620 -0.4412 -1.2690 -1.5517
15038TIP3    H266530   3.440   5.932  15.543  0.3394  1.9221 -0.3025
15039TIP3   OH266531   6.114   5.424  10.985 -0.3088  0.5411  0.2376
15039TIP3    H166532   6.086   5.513  10.965 -0.4420  0.1496 -1.4817
15039TIP3    H266533   6.209   5.426  10.972 -0.1671  0.6776  1.2426
15040TIP3   OH266534   6.478   0.072   0.884  0.1863 -0.3675 -0.5306
15040TIP3    H166535   6.482   0.015   0.808 -1.4540 -3.1222  1.2933
15040TIP3    H266536   6.570   0.087   0.908  0.6686 -1.5783 -1.5414
15041TIP3   OH266537   3.479   0.112   1.201 -0.6870 -0.5029 -0.3650
15041TIP3    H166538   3.433   0.185   1.243  0.9677  0.6339 -0.4197
15041TIP3    H266539   3.416   0.076   1.139 -1.2550  1.5628 -1.0801
15042TIP3   OH266540   6.789   6.567  14.666  0.5869 -0.0005 -0.4261
15042TIP3    H166541   6.803   6.603  14.578  0.1447  0.2573 -0.3941
15042TIP3    H266542   6.830   6.481  14.663 -1.0412 -0.7886 -1.4782
15043TIP3   OH266543   6.141   4.327   5.248 -0.0373  0.2055 -0.9940
15043TIP3    H166544   6.183   4.374   5.320 -2.3122  0.3330  0.3615
15043TIP3    H266545   6.213   4.288   5.199  1.8833  3.7989 -1.3241
15044TIP3   OH266546   5.413   1.005  11.312 -0.3469  0.0404 -0.2546
15044TIP3    H166547   5.450   0.954  11.239  0.7602  1.3553 -0.6530
15044TIP3    H266548   5.478   0.995  11.382  0.1810  1.3731 -0.5397
15045TIP3   OH266549   6.492   4.525  11.189 -0.7013 -0.4574  0.3954
15045TIP3    H166550   6.532   4.441  11.211  0.4341  0.1494  0.7683
15045TIP3    H266551   6.563   4.589  11.201 -1.7304  0.6453  0.8556
15046TIP3   OH266552   1.362   6.779  13.109  0.0391  0.2994  0.0040
15046TIP3    H166553   1.330   6.696  13.074  1.5217 -0.9633  1.4826
15046TIP3    H266554   1.391   6.828  13.032  2.7379 -2.1751 -0.7240
15047TIP3   OH266555   2.842   1.342  13.485 -0.5964 -0.2442 -0.2143
15047TIP3    H166556   2.832   1.436  13.469  0.3487 -0.1257 -0.1876
15047TIP3    H266557   2.866   1.306  13.399  2.5231  0.0928  0.3908
15048TIP3   OH266558   5.590   5.411  12.333  0.4779  0.8658 -0.5432
15048TIP3    H166559   5.630   5.325  12.341  2.0106  1.4617 -1.4299
15048TIP3    H266560   5.561   5.416  12.242  1.1411  1.5758 -0.7248
15049TIP3   OH266561   2.169   2.806  11.437  0.1090  0.6379 -0.2852
15049TIP3    H166562   2.145   2.819  11.346 -0.0607 -2.8916 -0.8761
15049TIP3    H266563   2.263   2.791  11.436  0.0502  0.2280  0.0681
15050TIP3   OH266564   1.338   0.293  16.197 -0.1624  0.1306  0.3288
15050TIP3    H166565   1.296   0.249  16.122  0.2119  1.6167 -0.8018
15050TIP3    H266566   1.305   0.246  16.273  0.7298 -2.5531 -0.8181
15051TIP3   OH266567   0.283   3.924  13.103  0.4486  0.1028 -0.1744
15051TIP3    H166568   0.349   3.872  13.149 -0.3828 -1.0189 -0.2003
15051TIP3    H266569   0.215   3.861  13.079 -0.0092  0.9932 -1.3274
15052TIP3   OH266570   0.134   1.959   2.668 -0.3216  0.0448 -0.3056
15052TIP3    H166571   0.056   1.934   2.717  0.7008  0.3066  1.5409
15052TIP3    H266572   0.183   1.877   2.658 -0.0751  0.1518 -0.0107
15053TIP3   OH266573   0.687   1.326   4.793 -0.1823  0.0768  0.2268
15053TIP3    H166574   0.625   1.314   4.721  0.1731  1.2015 -0.2906
15053TIP3    H266575   0.680   1.419   4.815 -0.4170 -0.2906  1.7828
15054TIP3   OH266576   5.720   3.580   1.258  0.0685 -0.1363 -0.1186
15054TIP3    H166577   5.739   3.489   1.283  1.1557  0.8582  3.3626
15054TIP3    H266578   5.796   3.607   1.206  1.6773 -0.2650  1.9972
15055TIP3   OH266579   1.872   1.731   2.974  0.2368 -0.3564 -0.4104
15055TIP3    H166580   1.848   1.638   2.975  1.5986 -0.7392 -0.6266
15055TIP3    H266581   1.795   1.776   3.008 -0.0585 -1.6659  0.7809
15056TIP3   OH266582   2.981   5.081   2.569  0.4385  0.1431  0.1470
15056TIP3    H166583   3.036   5.004   2.557  0.7803 -0.0252  2.3583
15056TIP3    H266584   3.041   5.147   2.605  0.1481  1.4751 -1.6775
15057TIP3   OH266585   3.485   1.076  15.905  0.3641 -0.5210 -0.1822
15057TIP3    H166586   3.448   1.122  15.829 -0.3257  0.5114  0.7534
15057TIP3    H266587   3.555   1.022  15.868  2.4027  2.5189 -1.1918
15058TIP3   OH266588   6.667   1.355   3.254  0.0277 -0.6188  0.2572
15058TIP3    H166589   6.593   1.409   3.281  0.4023 -0.0439  0.1404
15058TIP3    H266590   6.729   1.360   3.327 -0.3796 -1.7492  0.7099
15059TIP3   OH266591   5.377   3.627  14.966 -0.1355  0.4911 -0.2227
15059TIP3    H166592   5.350   3.578  15.044  0.6514  0.3164 -0.0415
15059TIP3    H266593   5.303   3.619  14.906  0.8006 -3.0412 -1.1852
15060TIP3   OH266594   2.758   3.905   1.133  0.1776  0.9491 -0.4395
15060TIP3    H166595   2.712   3.890   1.050 -1.4487  0.1538  0.5486
15060TIP3    H266596   2.849   3.920   1.108  0.0593 -0.9033 -2.2729
15061TIP3   OH266597   4.183   6.501   2.318  0.4524  0.3295  0.1968
15061TIP3    H166598   4.126   6.438   2.362  1.6674 -0.0424  1.3243
15061TIP3    H266599   4.124   6.568   2.285 -0.6161  0.2493  1.8086
15062TIP3   OH266600   1.272   1.383  16.005 -0.6297 -0.3029 -0.4572
15062TIP3    H166601   1.361   1.349  16.014 -0.3251  0.7747  0.8131
15062TIP3    H266602   1.228   1.358  16.086 -1.3686 -0.4609 -0.8956
15063TIP3   OH266603   1.306   0.327  14.728  0.3229 -0.4328  0.0942
15063TIP3    H166604   1.312   0.394  14.796  0.6899 -1.3322  0.9863
15063TIP3    H266605   1.224   0.281  14.747 -0.5189  0.4486 -1.2016
15064TIP3   OH266606   3.054   6.701   2.625 -0.1121  0.6174  0.5689
15064TIP3    H166607   3.135   6.733   2.664  0.1534  2.1444 -1.1114
15064TIP3    H266608   2.989   6.768   2.649  0.0091  1.4713 -1.3069
15065TIP3   OH266609   6.732   5.379  13.967 -0.1475  0.6080  0.7970
15065TIP3    H166610   6.698   5.353  13.882  2.8230 -2.1177  0.2369
15065TIP3    H266611   6.808   5.434  13.947 -0.9599  2.2035  1.8434
15066TIP3   OH266612   1.746   4.318  12.958 -0.3198 -0.5962 -0.0598
15066TIP3    H166613   1.706   4.267  13.028  0.3689 -0.7736  0.2082
15066TIP3    H266614   1.690   4.395  12.950 -0.6208 -0.7601  0.4155
15067TIP3   OH266615   0.951   0.937   2.655 -0.5710 -0.3704 -0.5059
15067TIP3    H166616   1.032   0.919   2.702 -0.2327  0.2038 -0.8627
15067TIP3    H266617   0.969   1.016   2.604 -0.9710 -0.8803 -1.4762
15068TIP3   OH266618   3.559   5.716  15.708 -0.2818  0.1327  0.7000
15068TIP3    H166619   3.501   5.769  15.763  1.0808  1.4537  0.9240
15068TIP3    H266620   3.606   5.660  15.769  0.1540  0.5342  0.7369
15069TIP3   OH266621   4.390   5.470  11.658  0.2669  0.7436  0.4680
15069TIP3    H166622   4.379   5.506  11.570 -1.8777  1.1156  0.8328
15069TIP3    H266623   4.343   5.531  11.715  0.8379  0.0169  1.7591
15070TIP3   OH266624   0.112   5.998  14.368  0.3159 -0.2078 -0.4408
15070TIP3    H166625   0.177   5.962  14.430 -0.7290 -1.8422 -0.2289
15070TIP3    H266626   0.165   6.027  14.294  1.3090 -1.6263 -0.3384
15071TIP3   OH266627   6.748   2.709   4.714  0.5550  0.3784  0.1534
15071TIP3    H166628   6.706   2.648   4.654 -1.8954  0.8580  1.2588
15071TIP3    H266629   6.808   2.655   4.766  1.2856 -0.3614 -1.4052
15072TIP3   OH266630   1.125   1.462   5.537 -0.5350 -0.4992 -0.4286
15072TIP3    H166631   1.185   1.448   5.464 -1.3269 -1.4508 -0.9185
15072TIP3    H266632   1.149   1.396   5.601 -0.7089 -0.5302 -0.3946
15073TIP3   OH266633   0.469   2.584   4.968  0.5346 -0.1436 -0.2702
15073TIP3    H166634   0.541   2.522   4.968  0.0225 -0.7760 -1.3568
15073TIP3    H266635   0.415   2.559   5.043  0.5569 -0.7440 -0.4512
15074TIP3   OH266636   6.654   2.783   4.964 -0.3788 -0.2362  0.8613
15074TIP3    H166637   6.736   2.824   4.993 -0.3948 -0.9296  1.9465
15074TIP3    H266638   6.670   2.761   4.872 -0.0690  1.4021  0.4910
15075TIP3   OH266639   0.534   4.214  12.982  0.2406 -0.2463  0.4245
15075TIP3    H166640   0.448   4.256  12.975 -0.1290 -1.2067 -1.9577
15075TIP3    H266641   0.516   4.121  12.967  1.6791 -0.4464 -0.2257
15076TIP3   OH266642   5.713   1.614   3.166 -0.2709 -0.4506  0.4253
15076TIP3    H166643   5.749   1.644   3.082 -2.3752  1.6149  0.1602
15076TIP3    H266644   5.788   1.614   3.225  1.2339 -1.8082 -1.3597
15077TIP3   OH266645   5.231   3.776   0.373 -0.0504  0.4522 -0.2998
15077TIP3    H166646   5.250   3.764   0.280  0.7887  2.1597 -0.3848
15077TIP3    H266647   5.278   3.704   0.416  0.5213  0.3196 -1.1180
15078TIP3   OH266648   4.246   4.355  15.061 -0.4512 -0.8321 -0.0214
15078TIP3    H166649   4.157   4.346  15.093 -0.4809 -1.2833 -0.2248
15078TIP3    H266650   4.259   4.449  15.051 -0.3674 -0.6588  1.5202
15079TIP3   OH266651   2.375   1.546   1.961 -0.2103  0.8016  0.3934
15079TIP3    H166652   2.339   1.561   1.874 -0.7231  3.0300  0.9307
15079TIP3    H266653   2.470   1.547   1.948 -0.2863  0.3468 -0.2414
15080TIP3   OH266654   4.529   2.892  16.387 -0.4537 -0.3141 -0.0046
15080TIP3    H166655   4.590   2.957  16.420  0.3274 -0.4881 -1.0448
15080TIP3    H266656   4.509   2.836  16.462  1.5166 -0.8977  0.1372
15081TIP3   OH266657   5.792   3.514   3.349 -0.3074 -0.1066 -0.5293
15081TIP3    H166658   5.826   3.576   3.284  0.0400 -0.4477 -0.6806
15081TIP3    H266659   5.707   3.549   3.374 -0.0040  0.5660 -0.4261
15082TIP3   OH266660   3.582   0.414   2.617 -0.2469  0.5441 -0.5514
15082TIP3    H166661   3.643   0.483   2.644  0.6653 -0.3865 -0.1894
15082TIP3    H266662   3.632   0.361   2.555 -0.6739 -0.2447 -0.2321
15083TIP3   OH266663   6.144   4.293  14.420  0.4594 -0.0688  0.1396
15083TIP3    H166664   6.087   4.226  14.457  0.8708  0.8105  2.5951
15083TIP3    H266665   6.099   4.376  14.439  1.7595  0.5412  0.7433
15084TIP3   OH266666   0.392   1.378   1.186 -0.5259  0.3829 -0.1504
15084TIP3    H166667   0.327   1.447   1.198  0.2210  1.6595 -2.7392
15084TIP3    H266668   0.475   1.425   1.176  0.1186 -0.9198 -1.1769
15085TIP3   OH266669   5.290   2.997  14.628  0.2932  0.1308  0.3322
15085TIP3    H166670   5.303   3.009  14.722  0.6633 -1.8380  0.5860
15085TIP3    H266671   5.260   3.082  14.597  1.2518  1.1633  2.0276
15086TIP3   OH266672   1.682   3.137  12.392  0.2475  0.4516  0.8505
15086TIP3    H166673   1.635   3.064  12.431 -1.2485  0.4179 -0.8956
15086TIP3    H266674   1.769   3.102  12.373 -0.3617 -0.8012  0.2846
15087TIP3   OH266675   2.977   3.859  16.687 -0.0264 -0.1542  0.0707
15087TIP3    H166676   2.991   3.933  16.628 -2.0849 -0.0872 -0.4134
15087TIP3    H266677   2.983   3.897  16.774  1.6501  0.0203 -0.0939
15088TIP3   OH266678   6.511   5.203  15.111  0.3389  0.6290 -0.0659
15088TIP3    H166679   6.458   5.149  15.052 -0.1755  0.5172  0.4901
15088TIP3    H266680   6.501   5.292  15.078  3.1252  0.1996 -2.4869
15089TIP3   OH266681   1.160   2.429  16.769  0.0804  0.5076 -0.2272
15089TIP3    H166682   1.088   2.485  16.798 -1.7092 -0.6124 -2.3051
15089TIP3    H266683   1.125   2.340  16.772 -0.0301  0.1799 -4.6693
15090TIP3   OH266684   4.151   3.211   1.302  0.2424 -0.0236 -0.4121
15090TIP3    H166685   4.154   3.234   1.394 -1.3320 -1.2693  0.0038
15090TIP3    H266686   4.236   3.237   1.267  0.8131  0.5811  1.3519
15091TIP3   OH266687   4.382   3.958  11.086  0.1133  0.0347 -0.6093
15091TIP3    H166688   4.422   3.944  11.000  0.9622  0.3307 -0.2658
15091TIP3    H266689   4.314   3.892  11.091  0.8868 -0.8085 -0.9888
15092TIP3   OH266690   5.516   5.440  14.031  0.0676  0.0615  0.2623
15092TIP3    H166691   5.432   5.459  14.073 -1.6866 -0.7085 -2.6181
15092TIP3    H266692   5.552   5.526  14.010  0.0953  0.3972  1.5687
15093TIP3   OH266693   4.278   4.433  13.928  0.2578  0.1299 -0.1299
15093TIP3    H166694   4.222   4.366  13.968 -0.5716  1.6702  1.4610
15093TIP3    H266695   4.358   4.432  13.981  1.4464 -1.4406 -1.8366
15094TIP3   OH266696   6.325   0.684   0.368  0.7251 -0.3926  0.1371
15094TIP3    H166697   6.299   0.657   0.456  1.7875  0.7592  0.8483
15094TIP3    H266698   6.379   0.761   0.382  0.6059  0.0424 -1.5706
15095TIP3   OH266699   3.753   2.524   3.162 -0.1411  0.2640 -0.6400
15095TIP3    H166700   3.828   2.470   3.138 -0.5953 -1.6333  1.7957
15095TIP3    H266701   3.792   2.604   3.200  0.6612 -0.4641  0.1165
15096TIP3   OH266702   0.765   0.212  14.018 -0.6845  0.2506 -0.4065
15096TIP3    H166703   0.674   0.187  14.035 -0.2787 -1.9142 -1.0356
15096TIP3    H266704   0.759   0.277  13.948 -1.7254 -0.4688 -1.0208
15097TIP3   OH266705   1.689   2.727   2.585  0.0725 -0.5188 -0.0962
15097TIP3    H166706   1.607   2.680   2.575  0.5020 -1.0811 -1.1113
15097TIP3    H266707   1.664   2.814   2.616 -0.9468 -0.4909 -0.9711
15098TIP3   OH266708   3.447   0.910  15.556 -0.5674  0.1476 -0.1439
15098TIP3    H166709   3.510   0.976  15.527 -0.4410  0.4692  0.8122
15098TIP3    H266710   3.497   0.829  15.563 -0.6986 -0.0331 -1.2184
15099TIP3   OH266711   1.426   5.499  11.772 -0.2767  0.1779 -0.1888
15099TIP3    H166712   1.495   5.455  11.724 -1.1276 -1.2712 -0.1282
15099TIP3    H266713   1.472   5.549  11.840  0.8017  0.7466 -1.2840
15100TIP3   OH266714   3.046   6.429   2.482 -0.2651 -0.4060 -0.4204
15100TIP3    H166715   3.027   6.521   2.502  0.3487 -0.7254  1.9193
15100TIP3    H266716   3.073   6.429   2.390  1.6815  2.0844  0.0524
15101TIP3   OH266717   5.196   3.621  14.760  0.1970 -0.3869  0.4134
15101TIP3    H166718   5.164   3.622  14.670 -1.4748 -1.6224  0.9435
15101TIP3    H266719   5.126   3.659  14.812  1.6799  1.5816  1.1125
15102TIP3   OH266720   3.132   5.347   4.388 -0.4878  0.4558 -0.3268
15102TIP3    H166721   3.220   5.313   4.403 -0.3320  0.4603 -1.2120
15102TIP3    H266722   3.138   5.440   4.410 -0.5824  0.2156  0.7807
15103TIP3   OH266723   5.084   3.613   0.956  0.2483 -0.0371  0.6516
15103TIP3    H166724   5.053   3.691   0.910  1.3596  0.0454  0.0078
15103TIP3    H266725   5.084   3.544   0.889  0.1523 -0.3702  0.9883
15104TIP3   OH266726   3.058   0.275  13.084  0.3621 -0.6069  0.2266
15104TIP3    H166727   3.112   0.213  13.133  0.9585  1.6385  2.6045
15104TIP3    H266728   3.042   0.231  13.000  2.8468 -2.8792  0.7976
15105TIP3   OH266729   4.311   0.733  13.225  0.1617  0.1642  0.0629
15105TIP3    H166730   4.294   0.697  13.312 -0.2110 -1.2360 -0.5629
15105TIP3    H266731   4.234   0.788  13.207  0.3003  0.5637  0.6540
15106TIP3   OH266732   2.099   0.469  14.195  0.5892  0.7309 -0.9259
15106TIP3    H166733   2.091   0.441  14.104 -2.3413  0.8027 -0.7845
15106TIP3    H266734   2.099   0.565  14.191 -0.3105  0.7406 -0.8275
15107TIP3   OH266735   4.190   3.922   4.002 -0.2692 -0.1492  0.3052
15107TIP3    H166736   4.137   3.898   4.078  1.1052  0.9552  1.6742
15107TIP3    H266737   4.199   3.840   3.953  0.0543 -1.2573  2.1233
15108TIP3   OH266738   4.872   4.645   5.335  0.4348  0.2532 -0.4784
15108TIP3    H166739   4.808   4.587   5.376  0.2450  0.5627 -0.3344
15108TIP3    H266740   4.875   4.722   5.392  0.7760  0.3330 -0.6023
15109TIP3   OH266741   1.177   5.144   1.230 -0.0123  0.1011 -0.4194
15109TIP3    H166742   1.171   5.108   1.318 -0.6625  0.2821 -0.3867
15109TIP3    H266743   1.270   5.139   1.208  0.0116 -0.9064 -0.1294
15110TIP3   OH266744   1.069   3.544   2.284 -0.0300  0.3471 -0.2523
15110TIP3    H166745   0.982   3.540   2.323  0.4025  0.9812  0.8284
15110TIP3    H266746   1.071   3.628   2.238 -0.2946 -0.0790 -1.0537
15111TIP3   OH266747   0.582   1.043   3.785 -0.1306  0.0004 -0.0087
15111TIP3    H166748   0.558   1.009   3.699  2.9156 -3.7294  0.3435
15111TIP3    H266749   0.656   1.101   3.768 -0.8896  0.9981 -0.0083
15112TIP3   OH266750   5.541   1.191  12.198 -0.3766  0.0505 -0.3989
15112TIP3    H166751   5.622   1.143  12.216 -0.1162  0.5159 -0.3014
15112TIP3    H266752   5.503   1.148  12.123 -1.3346 -1.7794  1.0590
15113TIP3   OH266753   6.570   3.945  15.888 -0.6750  0.1198  0.1928
15113TIP3    H166754   6.615   3.915  15.809  0.9710 -0.2880  1.2349
15113TIP3    H266755   6.561   4.040  15.876 -0.5869  0.0440 -0.5443
15114TIP3   OH266756   6.160   2.378  11.354  1.1218 -0.8368  0.0342
15114TIP3    H166757   6.175   2.291  11.316 -1.0272 -0.1042 -2.8857
15114TIP3    H266758   6.073   2.372  11.393  1.2794 -0.1863  0.4949
15115TIP3   OH266759   2.847   4.382  11.880  0.0326 -0.1269  0.1861
15115TIP3    H166760   2.791   4.393  11.958  1.5808  1.6244  1.1276
15115TIP3    H266761   2.827   4.457  11.825  0.0046 -0.5819 -0.4358
15116TIP3   OH266762   2.516   0.463  11.287  0.3431 -0.2390  0.2805
15116TIP3    H166763   2.476   0.530  11.232 -0.2625 -0.6350  0.2210
15116TIP3    H266764   2.456   0.453  11.361 -1.3318 -2.9184 -1.2577
15117TIP3   OH266765   6.179   3.239  17.170 -0.1102  0.1383 -0.1615
15117TIP3    H166766   6.202   3.321  17.128  1.4161 -0.9181 -1.5167
15117TIP3    H266767   6.110   3.202  17.114 -0.0892  0.0462 -0.1271
15118TIP3   OH266768   3.266   5.197  11.235 -0.0261  0.3138 -0.0778
15118TIP3    H166769   3.173   5.217  11.227  0.5239  3.4115  0.0857
15118TIP3    H266770   3.273   5.143  11.314 -1.9917 -3.3751 -2.1427
15119TIP3   OH266771   3.702   0.204  16.738 -0.2311  0.3450  0.7284
15119TIP3    H166772   3.640   0.158  16.794  2.1880 -3.1425  0.8247
15119TIP3    H266773   3.725   0.283  16.787 -2.2790  0.2084  2.0189
15120TIP3   OH266774   6.286   5.684  16.271 -0.3529 -0.0212 -0.1050
15120TIP3    H166775   6.311   5.662  16.181 -0.6397 -0.3580 -0.1014
15120TIP3    H266776   6.342   5.758  16.293 -0.9357  0.6850 -0.8944
15121TIP3   OH266777   0.328   4.659   0.591 -0.0095  0.2030 -0.2832
15121TIP3    H166778   0.304   4.621   0.675  0.4371  2.9890  1.2402
15121TIP3    H266779   0.405   4.610   0.563  0.4582 -0.1166  1.4844
15122TIP3   OH266780   0.299   4.479   6.045 -0.4488  0.6281 -0.2774
15122TIP3    H166781   0.351   4.556   6.020  0.4793  0.1536  0.1519
15122TIP3    H266782   0.351   4.435   6.111 -1.9072  0.7237  0.9988
15123TIP3   OH266783   2.248   2.855  14.938 -0.1226 -0.1425  0.0360
15123TIP3    H166784   2.207   2.896  15.014  1.2683  0.4393  0.5057
15123TIP3    H266785   2.277   2.929  14.883  3.2835 -0.3180  1.3557
15124TIP3   OH266786   0.161   0.303  14.645  0.2256 -0.1094  0.1519
15124TIP3    H166787   0.206   0.388  14.656 -0.8813  0.4005  0.9007
15124TIP3    H266788   0.069   0.326  14.632 -0.0797 -1.2028  0.3173
15125TIP3   OH266789   3.203   5.411   5.286 -0.6521  0.0905 -0.8781
15125TIP3    H166790   3.146   5.336   5.303 -2.4301  1.2827 -1.2362
15125TIP3    H266791   3.267   5.379   5.223 -1.0603 -1.2443 -0.6534
15126TIP3   OH266792   0.834   5.250  12.117 -0.6616  0.2013 -0.1570
15126TIP3    H166793   0.762   5.188  12.123  0.5205 -1.3914 -1.2911
15126TIP3    H266794   0.797   5.327  12.073 -1.5171 -0.8688 -1.3903
15127TIP3   OH266795   4.719   6.769  13.775 -0.0791 -0.2056  0.1914
15127TIP3    H166796   4.630   6.769  13.809  0.0919  2.5510  0.9487
15127TIP3    H266797   4.709   6.791  13.682 -0.2326 -1.1235 -0.0140
15128TIP3   OH266798   5.621   4.425  15.007 -0.0892 -0.6166  0.1744
15128TIP3    H166799   5.715   4.445  15.000 -0.2858  0.0868 -0.6483
15128TIP3    H266800   5.578   4.511  15.008 -0.7368 -0.9363  0.4075
15129TIP3   OH266801   4.053   1.294  10.928 -0.7404  0.1217  0.3033
15129TIP3    H166802   3.995   1.230  10.888 -0.3886  0.2004 -0.3543
15129TIP3    H266803   4.104   1.330  10.855 -0.7707  0.9864  0.6918
15130TIP3   OH266804   1.019   0.767   3.038  0.4356  0.2991  0.1042
15130TIP3    H166805   1.060   0.690   3.000  1.6644  0.1793  1.5975
15130TIP3    H266806   1.073   0.840   3.007  0.4351  0.3631  0.2538
15131TIP3   OH266807   0.779   1.261  16.595 -0.2337  0.6347 -0.3134
15131TIP3    H166808   0.709   1.208  16.557 -1.2571  1.3281  0.5706
15131TIP3    H266809   0.779   1.238  16.688  1.4002 -0.1000 -0.4480
15132TIP3   OH266810   0.407   4.171  13.710 -0.4808  0.4695 -0.0481
15132TIP3    H166811   0.403   4.257  13.753 -3.1594  0.9308 -1.0429
15132TIP3    H266812   0.359   4.113  13.769 -0.5329  0.1300 -0.4277
15133TIP3   OH266813   3.713   6.145  10.513 -0.2981 -0.3376  0.5395
15133TIP3    H166814   3.779   6.105  10.570 -0.9122 -1.3184  0.5900
15133TIP3    H266815   3.716   6.238  10.534  1.7506 -0.1936 -0.1739
15134TIP3   OH266816   0.519   0.203  16.318  0.3032  0.5856 -0.1183
15134TIP3    H166817   0.466   0.132  16.281 -1.7866  2.4010 -0.8411
15134TIP3    H266818   0.606   0.165  16.329 -0.3186 -1.6116 -1.9956
15135TIP3   OH266819   3.046   6.348   2.230  0.3195  0.2606  0.2077
15135TIP3    H166820   3.039   6.259   2.263  1.0816 -0.3237 -1.1220
15135TIP3    H266821   3.098   6.340   2.150  1.5496  2.0649  0.7574
15136TIP3   OH266822   1.399   0.345  13.915 -0.8855  0.7690  0.2058
15136TIP3    H166823   1.314   0.318  13.949 -0.6073 -1.8767 -0.9636
15136TIP3    H266824   1.381   0.424  13.865 -2.4384  0.8854  0.8936
15137TIP3   OH266825   4.789   4.784   5.554  0.5598  0.0208 -0.8860
15137TIP3    H166826   4.866   4.827   5.592 -0.0636  0.6542 -0.3126
15137TIP3    H266827   4.761   4.721   5.621 -0.6323  1.2467 -0.1865
15138TIP3   OH266828   6.185   2.638  14.099  0.1620 -0.4220  0.4890
15138TIP3    H166829   6.240   2.560  14.102  2.2472  0.9995  1.7490
15138TIP3    H266830   6.170   2.661  14.191  1.4164  1.8126  0.2156
15139TIP3   OH266831   2.246   0.831   2.839 -0.1033 -0.2825 -0.4158
15139TIP3    H166832   2.200   0.911   2.864  0.6615  0.2059 -0.5630
15139TIP3    H266833   2.313   0.860   2.778  0.3161 -1.0127 -0.3083
15140TIP3   OH266834   3.912   2.412   5.612 -0.2757  0.6091 -0.0808
15140TIP3    H166835   3.989   2.365   5.645 -1.4193 -1.2067  0.1823
15140TIP3    H266836   3.924   2.502   5.642  2.0192  0.5202 -0.5804
15141TIP3   OH266837   2.495   5.089   2.098 -0.2297 -0.1450 -0.3442
15141TIP3    H166838   2.566   5.092   2.161 -1.7952  1.6777  1.4794
15141TIP3    H266839   2.529   5.132   2.020  1.2644 -1.0981 -0.2479
15142TIP3   OH266840   0.668   4.296  15.960  0.3796  0.6388  0.1303
15142TIP3    H166841   0.585   4.265  15.998  0.2247  1.9390  0.9368
15142TIP3    H266842   0.696   4.226  15.902 -1.2917  0.1562 -0.1529
15143TIP3   OH266843   6.151   6.542  11.016 -0.0040  0.0677 -0.3876
15143TIP3    H166844   6.190   6.606  11.075  0.6144  0.9625 -1.7247
15143TIP3    H266845   6.057   6.561  11.018 -0.0435 -0.1895  0.6081
15144TIP3   OH266846   6.500   1.044   4.729 -0.8291  0.2294  0.4364
15144TIP3    H166847   6.464   1.017   4.644 -1.8647  1.0644  0.5819
15144TIP3    H266848   6.512   0.962   4.777 -1.5210 -0.1580 -0.0301
15145TIP3   OH266849   5.133   3.696  11.381  0.4405 -0.0634  0.2088
15145TIP3    H166850   5.134   3.606  11.348  2.4517  0.0306 -0.0872
15145TIP3    H266851   5.060   3.737  11.336 -0.6398 -1.5725  0.4905
15146TIP3   OH266852   6.214   4.827   5.195  0.2795 -0.0120  0.0325
15146TIP3    H166853   6.209   4.885   5.119  1.1332  3.7839  2.5408
15146TIP3    H266854   6.126   4.831   5.233 -0.2094 -2.0691 -0.7497
15147TIP3   OH266855   3.458   6.618   6.811 -0.0235  0.2336 -0.4844
15147TIP3    H166856   3.416   6.590   6.892  1.5253 -1.5731 -0.2394
15147TIP3    H266857   3.401   6.584   6.741 -1.7264  2.3702 -0.2588
15148TIP3   OH266858   0.378   4.037   5.178  0.0822  0.5944 -0.9520
15148TIP3    H166859   0.288   4.036   5.144  1.1150 -0.9580 -3.9964
15148TIP3    H266860   0.431   4.066   5.105  2.2975 -0.5477  0.1085
15149TIP3   OH266861   6.129   5.152   5.150  0.0412 -0.2777  0.3899
15149TIP3    H166862   6.202   5.203   5.186 -0.2903  0.1665  0.4495
15149TIP3    H266863   6.103   5.093   5.221  0.1679 -0.2422  0.4657
15150TIP3   OH266864   6.181   0.893  10.983 -0.1160  0.1401 -0.1864
15150TIP3    H166865   6.150   0.978  11.015  0.9509  1.0462 -1.4175
15150TIP3    H266866   6.259   0.875  11.036 -0.4002 -0.1346  0.1442
15151TIP3   OH266867   2.883   1.020  11.787  0.7954  0.1861  0.6109
15151TIP3    H166868   2.805   0.976  11.752  2.1101 -0.2494 -2.0607
15151TIP3    H266869   2.863   1.113  11.781 -0.5426  0.0905  2.6592
15152TIP3   OH266870   2.748   6.167   3.488  0.3583  0.0524 -0.0327
15152TIP3    H166871   2.841   6.152   3.470 -0.2828 -0.9546 -3.1571
15152TIP3    H266872   2.713   6.080   3.507 -0.0757  0.3390  0.5046
15153TIP3   OH266873   6.766   5.431   5.695  0.6800 -0.1645  0.2910
15153TIP3    H166874   6.775   5.389   5.780 -0.0740  1.6277  1.3179
15153TIP3    H266875   6.735   5.362   5.637 -1.0735 -0.9169  2.0222
15154TIP3   OH266876   4.193   4.953  10.720  0.4321  0.1894 -0.2356
15154TIP3    H166877   4.221   4.980  10.632  0.5909  0.6074 -0.0595
15154TIP3    H266878   4.249   5.004  10.779  0.3493 -0.1156  0.1087
15155TIP3   OH266879   6.117   5.613   0.687 -0.1375 -0.5247  0.7403
15155TIP3    H166880   6.089   5.587   0.775 -0.8308 -2.7793 -0.0810
15155TIP3    H266881   6.044   5.586   0.630  1.5831 -2.0231 -0.8852
15156TIP3   OH266882   4.969   0.777   4.596  0.4935  0.5234  0.0230
15156TIP3    H166883   4.932   0.768   4.508 -0.6867 -0.0345  0.5557
15156TIP3    H266884   4.996   0.869   4.601  0.0214  0.7108 -0.7022
15157TIP3   OH266885   3.949   1.441   0.767 -0.6258 -0.6349 -0.7161
15157TIP3    H166886   4.033   1.445   0.720 -0.8303 -1.0140 -1.1203
15157TIP3    H266887   3.887   1.485   0.709 -0.7651 -0.6081 -0.5461
15158TIP3   OH266888   3.494   3.383   5.426 -0.0864 -0.1970  0.1996
15158TIP3    H166889   3.405   3.418   5.420 -0.3247 -0.8344 -0.0813
15158TIP3    H266890   3.550   3.452   5.391 -0.5285  0.0044 -0.1143
15159TIP3   OH266891   1.636   6.571  13.430 -0.5555  0.1497  0.1077
15159TIP3    H166892   1.611   6.647  13.377 -1.7802  0.2591  0.8148
15159TIP3    H266893   1.711   6.602  13.481 -1.9845  1.4165  1.5258
15160TIP3   OH266894   6.773   1.656  13.195 -0.0933  0.9074  0.0378
15160TIP3    H166895   6.747   1.673  13.286  0.5388  2.6286 -0.0711
15160TIP3    H266896   6.694   1.619  13.154 -0.1462 -0.7047  1.4515
15161TIP3   OH266897   3.813   6.118   2.461 -0.1491 -0.0313  0.1907
15161TIP3    H166898   3.744   6.074   2.411  1.0897 -1.6914 -0.1292
15161TIP3    H266899   3.775   6.131   2.548 -0.6313 -1.6209  0.2511
15162TIP3   OH266900   2.451   5.419  13.323 -0.3944 -0.1163  1.0295
15162TIP3    H166901   2.389   5.402  13.394 -0.1191 -1.8786  0.8836
15162TIP3    H266902   2.533   5.379  13.351  0.1702  0.5375  0.3874
15163TIP3   OH266903   4.338   0.167   5.114  0.9582 -0.0791  0.0414
15163TIP3    H166904   4.298   0.099   5.060  1.1864 -0.0598 -0.1529
15163TIP3    H266905   4.274   0.239   5.112  1.0196 -0.0347 -0.2967
15164TIP3   OH266906   5.663   1.746   1.329  0.0941  0.0663 -0.1458
15164TIP3    H166907   5.731   1.703   1.382  0.2822 -0.0938 -0.5111
15164TIP3    H266908   5.598   1.677   1.314 -0.7363  0.5209  1.1709
15165TIP3   OH266909   3.057   5.760  13.429  0.6697  0.0917 -0.3851
15165TIP3    H166910   3.103   5.771  13.346  0.3206  2.2238 -0.3365
15165TIP3    H266911   2.966   5.783  13.409 -0.0954 -2.3595 -0.0691
15166TIP3   OH266912   0.259   2.643  16.763 -0.6440  0.0895 -0.0277
15166TIP3    H166913   0.227   2.672  16.848  1.7100  0.5611  0.7618
15166TIP3    H266914   0.335   2.589  16.783 -0.6244 -0.6011 -1.8100
15167TIP3   OH266915   0.879   5.338   1.371 -0.2336  0.2733 -0.0486
15167TIP3    H166916   0.838   5.308   1.290 -0.2704  0.0518  0.0533
15167TIP3    H266917   0.808   5.337   1.436 -0.4383  1.3397 -0.2244
15168TIP3   OH266918   5.334   4.424   1.020  0.3192 -0.2827 -0.3593
15168TIP3    H166919   5.260   4.403   1.077 -0.0048  0.5622 -0.4497
15168TIP3    H266920   5.359   4.340   0.981  0.2181 -0.7861  0.6263
15169TIP3   OH266921   2.718   4.596  13.862  0.1102  0.1460  0.4837
15169TIP3    H166922   2.697   4.652  13.788 -0.9412  0.5886  1.0893
15169TIP3    H266923   2.807   4.623  13.888  0.2300  0.4306 -0.1925
15170TIP3   OH266924   0.935   0.195  14.231  0.0370  0.2632 -0.3116
15170TIP3    H166925   0.885   0.219  14.153  0.7825  0.8510 -0.6250
15170TIP3    H266926   1.014   0.249  14.225 -0.3849  1.1387  1.4053
15171TIP3   OH266927   3.655   3.967  13.687 -0.5933 -0.4156 -0.4152
15171TIP3    H166928   3.596   3.913  13.739  0.5272 -2.0416 -0.7734
15171TIP3    H266929   3.704   4.018  13.751  0.1418 -1.7460  0.1309
15172TIP3   OH266930   1.733   5.419   4.074 -0.2722  0.0021  0.4370
15172TIP3    H166931   1.650   5.461   4.053  0.3748  1.8258  1.3635
15172TIP3    H266932   1.764   5.384   3.990 -0.6614  1.7220 -0.4567
15173TIP3   OH266933   2.824   1.100   3.743 -0.1046 -0.1229 -0.3366
15173TIP3    H166934   2.867   1.095   3.657  1.7341 -0.8042  0.5810
15173TIP3    H266935   2.735   1.129   3.723  0.3016 -0.1773 -2.4661
15174TIP3   OH266936   1.096   2.345   0.466 -0.3598  0.1764 -0.3456
15174TIP3    H166937   1.018   2.304   0.430 -0.1141 -0.2726 -0.3737
15174TIP3    H266938   1.169   2.310   0.414  0.4399 -3.1740  2.5957
15175TIP3   OH266939   2.896   2.754   0.225 -0.1099  0.1505 -0.2025
15175TIP3    H166940   2.942   2.722   0.147 -0.9516  0.4709 -0.8383
15175TIP3    H266941   2.884   2.848   0.209  0.6864  0.4559  0.8183
15176TIP3   OH266942   1.855   5.961  12.207  0.0756 -0.2124  0.0520
15176TIP3    H166943   1.861   5.958  12.303 -0.1919 -1.7730  0.0381
15176TIP3    H266944   1.896   5.880  12.178 -0.9165 -0.3154 -1.1091
15177TIP3   OH266945   0.767   6.778   2.300 -0.0534 -0.3061  0.3531
15177TIP3    H166946   0.742   6.869   2.287 -0.3701 -0.4175  0.1599
15177TIP3    H266947   0.724   6.731   2.228 -0.6991 -0.7507  1.0109
15178TIP3   OH266948   0.993   1.832  16.527  0.4765 -0.0308  0.2352
15178TIP3    H166949   1.059   1.848  16.595  0.6758  1.1277 -0.2073
15178TIP3    H266950   0.910   1.834  16.574  0.7618 -2.8963  1.0434
15179TIP3   OH266951   1.988   2.159   6.280  0.3490 -0.8937 -0.3171
15179TIP3    H166952   2.080   2.158   6.307 -0.1518  2.5356  2.3948
15179TIP3    H266953   1.941   2.185   6.360 -2.9200 -1.9555 -1.7596
15180TIP3   OH266954   0.631   2.339  12.144  0.1401  0.3011  0.0260
15180TIP3    H166955   0.719   2.349  12.181  0.4630  0.5042 -0.7744
15180TIP3    H266956   0.596   2.428  12.141  0.7264  0.5015 -1.5960
15181TIP3   OH266957   4.546   2.378  13.027 -0.6795  0.2514 -0.4584
15181TIP3    H166958   4.641   2.384  13.015 -0.8100  1.8081 -0.8585
15181TIP3    H266959   4.533   2.384  13.122 -0.4068  0.6544 -0.4436
15182TIP3   OH266960   4.373   4.584  14.748 -0.4636  0.1703  0.2342
15182TIP3    H166961   4.429   4.507  14.735  1.7008  1.6121  0.3695
15182TIP3    H266962   4.372   4.627  14.662 -1.3962  0.1514  0.2329
15183TIP3   OH266963   3.802   0.576  11.276 -0.0692  0.4377  0.7084
15183TIP3    H166964   3.714   0.609  11.260 -0.1390  1.1047  2.2544
15183TIP3    H266965   3.820   0.600  11.367  2.1516  1.3079  0.0976
15184TIP3   OH266966   5.610   6.370   5.708  0.2120 -0.4339  0.3821
15184TIP3    H166967   5.658   6.368   5.625  0.5498  0.1664  0.5524
15184TIP3    H266968   5.654   6.306   5.763  1.0110  0.3021  0.6284
15185TIP3   OH266969   1.886   2.501  16.419  0.0472 -0.4344 -0.0730
15185TIP3    H166970   1.975   2.486  16.453  0.8265  1.6978 -0.9649
15185TIP3    H266971   1.870   2.594  16.436 -1.4568 -0.4600 -1.1821
15186TIP3   OH266972   2.395   1.934  14.411  0.4008 -0.1118  0.0511
15186TIP3    H166973   2.426   1.929  14.321  0.2959 -1.5740  0.0721
15186TIP3    H266974   2.451   1.873  14.459  0.3363  0.5147  0.9507
15187TIP3   OH266975   5.698   3.186  15.339 -0.0509 -0.7029  0.1882
15187TIP3    H166976   5.695   3.277  15.366 -0.7834 -0.7002  0.1365
15187TIP3    H266977   5.719   3.189  15.245  1.7838 -0.6835  0.5656
15188TIP3   OH266978   0.358   5.417  13.320 -0.1638 -0.4892  0.3826
15188TIP3    H166979   0.430   5.433  13.260 -1.1837  1.3608 -0.4413
15188TIP3    H266980   0.288   5.380  13.266 -0.8252  0.4735  0.5470
15189TIP3   OH266981   5.498   1.730  13.151  0.1380  0.3796  0.2725
15189TIP3    H166982   5.574   1.677  13.126  0.3329  0.0944  1.4116
15189TIP3    H266983   5.510   1.746  13.244 -2.8690 -2.5538  1.3859
15190TIP3   OH266984   1.081   3.872  14.589 -0.6920 -0.2838  0.0889
15190TIP3    H166985   1.080   3.873  14.684 -2.1265  1.4648  0.1020
15190TIP3    H266986   1.045   3.957  14.563 -0.4826 -0.7734 -2.0147
15191TIP3   OH266987   6.186   6.178   4.415 -0.3307 -0.5533 -0.1736
15191TIP3    H166988   6.171   6.084   4.423 -0.0407 -0.4962  1.2108
15191TIP3    H266989   6.106   6.211   4.373  0.4760 -1.6787 -2.7560
15192TIP3   OH266990   4.322   3.291  11.888  0.2652  0.3113 -0.9527
15192TIP3    H166991   4.292   3.263  11.802 -2.2066  1.6089 -0.6053
15192TIP3    H266992   4.388   3.358  11.870 -0.3899  0.7350 -1.8693
15193TIP3   OH266993   6.164   0.517  13.337  0.2257 -0.4224  0.0158
15193TIP3    H166994   6.143   0.428  13.310  0.1816  0.2032 -2.2470
15193TIP3    H266995   6.088   0.569  13.311  0.3466  0.3387  1.0884
15194TIP3   OH266996   3.367   0.197  14.756 -0.1146  0.3026  0.0524
15194TIP3    H166997   3.410   0.127  14.707  0.1135 -0.5430  1.4072
15194TIP3    H266998   3.292   0.222  14.702  1.5952  1.2698 -1.9867
15195TIP3   OH266999   5.159   5.007  14.569 -0.1628  0.1841  0.0022
15195TIP3    H167000   5.227   5.032  14.507 -0.4776 -1.0075 -0.8490
15195TIP3    H267001   5.201   4.941  14.625 -0.1443  0.6171  0.5032
15196TIP3   OH267002   4.336   5.579  16.073 -0.8424 -0.0253 -0.5974
15196TIP3    H167003   4.252   5.625  16.067 -2.1089 -1.7794  1.7896
15196TIP3    H267004   4.397   5.645  16.105 -1.8750  0.7508 -0.1628
15197TIP3   OH267005   2.388   2.734  15.639  0.4042 -0.6555 -0.1201
15197TIP3    H167006   2.445   2.746  15.562 -0.2162  1.4654 -0.2983
15197TIP3    H267007   2.406   2.644  15.667  2.4410 -0.6879 -1.2914
15198TIP3   OH267008   4.958   5.418  15.694 -0.2623  0.4659  0.1924
15198TIP3    H167009   4.903   5.490  15.725  0.9497  2.7217 -2.4350
15198TIP3    H267010   4.924   5.397  15.607  1.8925  0.7447 -0.7827
15199TIP3   OH267011   5.423   2.145   5.185  0.5166 -0.2664 -0.4328
15199TIP3    H167012   5.480   2.216   5.215 -0.3181  0.4453 -0.4907
15199TIP3    H267013   5.337   2.167   5.221  0.2942 -1.3774 -0.2590
15200TIP3   OH267014   1.800   5.300   1.134  0.3144  0.1619  0.1068
15200TIP3    H167015   1.889   5.296   1.169  0.0598 -2.8261  0.6587
15200TIP3    H267016   1.745   5.312   1.211  0.1559  1.8439 -0.2198
15201TIP3   OH267017   0.609   6.607  13.914  0.0544  0.1198  0.3038
15201TIP3    H167018   0.626   6.674  13.848  2.1086  0.0804  0.7123
15201TIP3    H267019   0.623   6.652  13.997 -1.8739  0.0022  0.7318
15202TIP3   OH267020   3.659   3.159   3.734  0.6760  0.3583  0.3446
15202TIP3    H167021   3.713   3.118   3.801  0.3877  0.3868  0.5950
15202TIP3    H267022   3.663   3.253   3.752 -0.9655  0.2470  1.5271
15203TIP3   OH267023   5.490   5.956  10.435 -0.3532  0.1341  0.2431
15203TIP3    H167024   5.404   5.998  10.440  0.3013  1.5522  0.0634
15203TIP3    H267025   5.552   6.026  10.457  0.9660  0.0034 -2.6588
15204TIP3   OH267026   6.066   4.175   1.066 -0.1853  0.9356 -0.4845
15204TIP3    H167027   6.041   4.099   1.013  0.9369  0.7342 -0.7396
15204TIP3    H267028   6.149   4.150   1.106  0.1141  1.9731 -0.4369
15205TIP3   OH267029   5.611   1.055   2.315 -0.5815  0.2666 -0.1124
15205TIP3    H167030   5.658   1.010   2.385 -1.1814  0.4500  0.4209
15205TIP3    H267031   5.634   1.007   2.236  1.3555  1.0184 -0.0452
15206TIP3   OH267032   3.783   3.531   6.617  0.0740 -0.3537 -0.2738
15206TIP3    H167033   3.847   3.459   6.624  2.0569  1.4331  1.5247
15206TIP3    H267034   3.832   3.609   6.645 -2.7244  1.2551  0.4817
15207TIP3   OH267035   4.345   2.344   0.606 -0.2908  0.0997  0.1604
15207TIP3    H167036   4.358   2.261   0.654 -2.4089  0.8240  2.1570
15207TIP3    H267037   4.286   2.321   0.534 -1.7331 -0.0078  1.3236
15208TIP3   OH267038   0.934   1.511  13.802  0.2413  0.2662 -0.0311
15208TIP3    H167039   0.885   1.505  13.720  0.3053 -1.2577 -0.0011
15208TIP3    H267040   0.881   1.460  13.864  0.3250  1.1765  0.8102
15209TIP3   OH267041   2.402   3.239  12.158 -0.0832 -0.1362 -0.4868
15209TIP3    H167042   2.407   3.238  12.253  1.3956 -1.8326 -0.5173
15209TIP3    H267043   2.319   3.195  12.138 -0.8153  0.9908 -0.0039
15210TIP3   OH267044   4.875   6.674  17.014  0.4179 -0.6079  0.2245
15210TIP3    H167045   4.935   6.725  17.067 -0.3477 -0.3171  0.8210
15210TIP3    H267046   4.836   6.611  17.074  2.5311 -3.0874 -0.7742
15211TIP3   OH267047   1.652   0.055   4.286 -0.0892  0.1102  0.2162
15211TIP3    H167048   1.710   0.128   4.262  0.2994  0.2297  1.4711
15211TIP3    H267049   1.697  -0.022   4.251  1.6889  0.0115  2.4625
15212TIP3   OH267050   2.388   2.063   0.611 -0.0700  0.0256  0.0625
15212TIP3    H167051   2.365   2.153   0.589  0.1542  0.1414  0.3041
15212TIP3    H267052   2.483   2.058   0.600  0.2804  0.4874  2.3408
15213TIP3   OH267053   2.562   0.391   4.218 -0.3506 -0.0937 -0.0290
15213TIP3    H167054   2.484   0.336   4.209 -0.0374 -0.5731  0.1695
15213TIP3    H267055   2.611   0.352   4.290  0.8713 -0.7697 -1.1842
15214TIP3   OH267056   2.830   1.691   2.111 -0.3949  0.1166  0.0501
15214TIP3    H167057   2.777   1.738   2.176 -1.2390 -0.2484 -0.3538
15214TIP3    H267058   2.781   1.611   2.093  0.2400 -0.1769 -0.4319
15215TIP3   OH267059   6.301   2.583   0.100  0.0957 -0.4627  0.3187
15215TIP3    H167060   6.291   2.516   0.168 -3.4794 -1.0936 -0.6441
15215TIP3    H267061   6.262   2.544   0.022  0.1187  1.8474 -0.9356
15216TIP3   OH267062   0.714   5.948   5.562  0.1667 -0.5249 -0.0438
15216TIP3    H167063   0.657   5.872   5.554 -1.1442  0.4783 -0.6752
15216TIP3    H267064   0.697   5.981   5.651  1.3162 -1.3839  0.5187
15217TIP3   OH267065   6.606   4.838  15.310 -0.1498  0.6629  0.4299
15217TIP3    H167066   6.634   4.833  15.219 -0.1000  3.0968  0.2569
15217TIP3    H267067   6.634   4.925  15.339 -0.1207 -0.0820  2.7905
15218TIP3   OH267068   1.200   4.490  11.679  0.5312 -0.7496 -0.2876
15218TIP3    H167069   1.170   4.556  11.616 -0.7837 -0.4731  0.5886
15218TIP3    H267070   1.295   4.490  11.670  0.4020 -0.7221 -2.2585
15219TIP3   OH267071   3.053   0.766   4.570  0.0302  0.4319 -0.3788
15219TIP3    H167072   2.978   0.825   4.581  0.7340  0.9789  2.4549
15219TIP3    H267073   3.129   0.820   4.591  0.8515 -1.0148  0.5171
15220TIP3   OH267074   2.105   0.705  11.359  0.3661 -0.2059  0.8934
15220TIP3    H167075   2.036   0.660  11.407 -1.0484  0.0331 -0.8077
15220TIP3    H267076   2.069   0.793  11.343  1.3416  0.1437  0.5560
15221TIP3   OH267077   4.370   5.000   1.115  0.8367  0.3430 -1.0520
15221TIP3    H167078   4.455   5.030   1.147  1.5693 -0.0114 -2.5847
15221TIP3    H267079   4.314   5.077   1.121  0.6680  0.0847  1.8355
15222TIP3   OH267080   4.011   6.035  12.523  0.1425  0.0945  0.2339
15222TIP3    H167081   4.003   5.971  12.452 -0.1097 -0.0781  0.4172
15222TIP3    H267082   4.076   5.997  12.583  1.4540  0.9079 -0.6196
15223TIP3   OH267083   2.039   0.478   1.726 -0.8669 -0.1704 -0.1597
15223TIP3    H167084   2.005   0.388   1.724 -1.0609 -0.1148  0.5533
15223TIP3    H267085   1.966   0.530   1.759 -0.3889  0.0867  0.4997
15224TIP3   OH267086   2.417   4.303  12.298 -0.2691 -0.3391  0.3214
15224TIP3    H167087   2.444   4.212  12.292 -0.9993 -0.5599  0.3026
15224TIP3    H267088   2.323   4.302  12.282 -0.3153  0.4011  0.4747
15225TIP3   OH267089   2.048   1.504   0.853  0.4245  0.3312 -0.2560
15225TIP3    H167090   2.118   1.537   0.909 -0.1155  0.1091  0.5738
15225TIP3    H267091   2.084   1.426   0.811  0.7733  0.3955 -0.0759
15226TIP3   OH267092   1.018   3.007  15.609  0.0210 -0.1482 -0.2435
15226TIP3    H167093   1.050   3.040  15.525 -0.4608 -0.8194 -0.7008
15226TIP3    H267094   1.001   3.085  15.661  2.2332  0.2462 -0.0313
15227TIP3   OH267095   2.341   0.626   1.336 -0.2179  0.3377  0.2617
15227TIP3    H167096   2.305   0.601   1.250  1.3881  1.3000 -0.7380
15227TIP3    H267097   2.272   0.679   1.376 -0.5477  0.8384 -0.9283
15228TIP3   OH267098   2.585   2.796   2.366 -0.0742 -0.5447 -0.3898
15228TIP3    H167099   2.490   2.798   2.367 -0.0650 -0.2175 -0.0033
15228TIP3    H267100   2.612   2.881   2.402  0.3634 -0.1416 -1.6092
15229TIP3   OH267101   3.191   5.489  10.946  0.3095  0.5111 -0.4196
15229TIP3    H167102   3.220   5.478  10.855  0.3649  1.6784 -0.5689
15229TIP3    H267103   3.111   5.436  10.952  1.7893 -1.8431 -0.3136
15230TIP3   OH267104   3.809   1.922   2.305  0.4126 -0.4319  0.3422
15230TIP3    H167105   3.739   1.948   2.364 -1.0966 -1.0916 -1.0966
15230TIP3    H267106   3.806   1.986   2.234  0.2544 -1.3299 -0.4815
15231TIP3   OH267107   3.465   2.730   3.241 -0.0832 -0.6189 -0.0466
15231TIP3    H167108   3.475   2.705   3.149 -0.5607  1.5064 -0.7341
15231TIP3    H267109   3.496   2.821   3.244  0.5136 -0.8594  2.0329
15232TIP3   OH267110   0.944   4.461  14.436 -0.3624  0.1996 -0.1285
15232TIP3    H167111   1.013   4.417  14.386 -1.3204 -1.3298 -0.1584
15232TIP3    H267112   0.875   4.478  14.373 -1.6984 -1.9852  0.6504
15233TIP3   OH267113   5.496   5.269   3.960  0.6864 -0.0829 -0.1055
15233TIP3    H167114   5.569   5.278   4.021  1.2585  0.6523 -0.8732
15233TIP3    H267115   5.497   5.349   3.908  0.2621 -0.7105 -1.1328
15234TIP3   OH267116   3.695   6.009   4.830 -0.6296 -0.1706 -0.2156
15234TIP3    H167117   3.686   5.924   4.789 -2.0803 -0.6716  1.0264
15234TIP3    H267118   3.651   6.070   4.771 -0.1079 -0.3736 -0.8175
15235TIP3   OH267119   0.577   4.366   3.562  0.5583  0.3845 -0.0917
15235TIP3    H167120   0.505   4.398   3.616  1.3541  0.8241  0.7234
15235TIP3    H267121   0.567   4.271   3.563  1.9489  0.1874  2.8600
15236TIP3   OH267122   1.840   3.207   1.355 -0.8713 -0.1418 -0.0557
15236TIP3    H167123   1.844   3.130   1.297 -1.7196 -1.1828  1.1920
15236TIP3    H267124   1.748   3.234   1.352 -0.5059  1.1060 -0.7831
15237TIP3   OH267125   2.835   1.626   0.014  0.5692  0.3064 -0.0653
15237TIP3    H167126   2.929   1.633   0.003  0.3920  1.8418 -0.7645
15237TIP3    H267127   2.801   1.605  -0.073  0.0251  3.0153 -0.6083
15238TIP3   OH267128   4.130   0.727  16.554 -0.1150 -0.2776 -0.3483
15238TIP3    H167129   4.134   0.771  16.469 -1.0616  0.8141  0.1496
15238TIP3    H267130   4.195   0.771  16.608  0.9842 -1.4311 -0.6815
15239TIP3   OH267131   0.945   4.602   3.595  0.0517 -0.7765  0.0240
15239TIP3    H167132   1.017   4.557   3.639  1.3825  0.5904 -0.6541
15239TIP3    H267133   0.889   4.634   3.666  1.3418  0.0732  0.7067
15240TIP3   OH267134   1.547   6.505  15.629 -0.0197  1.0029  0.3133
15240TIP3    H167135   1.630   6.532  15.590  1.2793 -3.1966 -0.3058
15240TIP3    H267136   1.488   6.494  15.554  0.4090 -0.5660  0.1659
15241TIP3   OH267137   2.191   2.970   1.681 -0.1945  0.0959 -0.1672
15241TIP3    H167138   2.134   2.925   1.743  1.1822 -0.8970  0.4361
15241TIP3    H267139   2.261   2.906   1.662  0.0425  0.8044 -1.8432
15242TIP3   OH267140   4.781   1.416  14.689  0.1569  0.2909 -0.1528
15242TIP3    H167141   4.790   1.326  14.656 -2.6856 -0.0118 -0.4028
15242TIP3    H267142   4.802   1.409  14.782 -2.3272 -1.2430  0.3829
15243TIP3   OH267143   6.048   3.040   0.588  0.3796  0.3581  0.2075
15243TIP3    H167144   6.019   3.125   0.555 -0.7009  0.4129  1.2371
15243TIP3    H267145   5.971   3.003   0.631  0.7471 -1.2743 -0.4553
15244TIP3   OH267146   2.780   0.721   4.408 -0.0847 -0.7680  0.4445
15244TIP3    H167147   2.811   0.648   4.354 -0.6728  0.4410 -1.6842
15244TIP3    H267148   2.692   0.696   4.434 -0.0780 -1.0665  0.1898
15245TIP3   OH267149   3.628   3.380  16.931  0.2453 -0.5833 -0.3980
15245TIP3    H167150   3.568   3.356  17.001  0.9169  0.2722  0.5100
15245TIP3    H267151   3.578   3.368  16.851 -1.1327  0.0659  0.3243
15246TIP3   OH267152   2.141   5.658  12.499 -0.1529 -0.1557 -0.2832
15246TIP3    H167153   2.229   5.629  12.522 -0.6766 -1.8051 -0.1925
15246TIP3    H267154   2.147   5.684  12.407  0.6333  0.7330  0.0032
15247TIP3   OH267155   1.950   2.580   1.788  0.1767 -0.5838 -0.4566
15247TIP3    H167156   1.921   2.555   1.700 -1.4535  0.6155 -0.3008
15247TIP3    H267157   1.880   2.550   1.846 -0.5545  1.8293  0.0140
15248TIP3   OH267158   5.834   5.767   1.064 -0.3366  0.3986  0.1873
15248TIP3    H167159   5.928   5.787   1.060  0.0746 -1.6031 -1.7810
15248TIP3    H267160   5.794   5.835   1.009  0.3054 -0.3175 -1.2152
15249TIP3   OH267161   6.246   2.982  16.630  0.3601 -0.2494 -0.1040
15249TIP3    H167162   6.171   2.966  16.573 -0.1280  1.4319  0.0005
15249TIP3    H267163   6.211   2.974  16.719  0.6475 -0.8838 -0.0464
15250TIP3   OH267164   6.097   5.889  13.730 -0.2568 -0.0724 -0.1909
15250TIP3    H167165   6.066   5.816  13.784 -0.6915 -0.0554 -0.4118
15250TIP3    H267166   6.189   5.870  13.714 -0.8171 -1.6045 -1.8873
15251TIP3   OH267167   5.469   2.358  16.748 -0.5019  0.3005 -0.6019
15251TIP3    H167168   5.467   2.262  16.753 -1.7512  0.3659  0.5358
15251TIP3    H267169   5.378   2.385  16.752 -0.0909  1.6533  2.6794
15252TIP3   OH267170   6.086   0.810  13.600 -0.5308  0.2705 -0.7488
15252TIP3    H167171   6.038   0.727  13.600 -0.1485 -0.0088  1.0202
15252TIP3    H267172   6.046   0.860  13.672  1.4707  0.1978  0.5001
15253TIP3   OH267173   6.465   1.019  12.295  0.4289  0.1447  0.1041
15253TIP3    H167174   6.457   1.090  12.358  2.6486 -1.4236  2.3176
15253TIP3    H267175   6.558   0.995  12.297  0.4350 -0.6015 -3.1311
15254TIP3   OH267176   3.780   6.559   1.722  0.0073 -0.2093 -0.3454
15254TIP3    H167177   3.796   6.598   1.808 -1.2541 -2.1710  0.8483
15254TIP3    H267178   3.690   6.584   1.700 -1.3459 -3.3419  1.0800
15255TIP3   OH267179   4.945   4.901  14.338 -0.7581 -0.6750  0.2833
15255TIP3    H167180   4.888   4.863  14.405  0.6925 -1.2934  1.2354
15255TIP3    H267181   5.030   4.860  14.354  0.5056  1.8123  0.3340
15256TIP3   OH267182   6.574   6.501  13.859  0.0590  0.0050  0.5621
15256TIP3    H167183   6.495   6.556  13.858  0.1363  0.1510  1.3925
15256TIP3    H267184   6.646   6.563  13.874  0.2895 -0.1700  0.1863
15257TIP3   OH267185   1.914   2.999  12.476  0.0098 -0.0859  0.3095
15257TIP3    H167186   2.003   3.025  12.454  1.1214 -1.9496  2.2679
15257TIP3    H267187   1.897   2.922  12.422  0.1170 -0.5152  0.8735
15258TIP3   OH267188   2.041   1.759   1.798 -0.4665 -0.5310  0.1154
15258TIP3    H167189   2.014   1.815   1.725 -2.3523 -1.9951 -0.3810
15258TIP3    H267190   2.135   1.746   1.785 -0.5210  0.2934 -1.2909
15259TIP3   OH267191   5.391   1.160   1.064 -0.4299 -0.4049 -0.1986
15259TIP3    H167192   5.351   1.117   0.989  1.3703 -2.3884 -0.1188
15259TIP3    H267193   5.334   1.140   1.138  0.3387 -2.7974 -0.1630
15260TIP3   OH267194   2.963   3.877  12.828  0.1882  0.1596 -0.2014
15260TIP3    H167195   2.882   3.896  12.875  0.8416  1.7419  0.3559
15260TIP3    H267196   3.029   3.934  12.869  0.6279  2.3340 -3.5083
15261TIP3   OH267197   0.313   2.971  14.241 -1.1409  0.4778  0.3620
15261TIP3    H167198   0.341   2.920  14.317 -0.3378  0.9696  0.4054
15261TIP3    H267199   0.353   3.057  14.253  0.7424 -0.0289 -1.6346
15262TIP3   OH267200   1.307   4.815  15.712  0.0761  0.6021  0.2833
15262TIP3    H167201   1.273   4.856  15.633 -1.8411  0.6594  1.0928
15262TIP3    H267202   1.325   4.724  15.685  0.9984  1.0153 -0.5963
15263TIP3   OH267203   2.314   2.255  11.375  0.3737  1.0554 -0.1270
15263TIP3    H167204   2.347   2.236  11.288  1.4176  2.5660 -0.0970
15263TIP3    H267205   2.246   2.322  11.360 -0.3563  0.3906  0.1243
15264TIP3   OH267206   5.495   1.562   2.967  1.1285 -0.4263 -0.0423
15264TIP3    H167207   5.582   1.601   2.973  1.4170 -1.2066  1.3683
15264TIP3    H267208   5.447   1.601   3.040  0.3915 -0.2503 -0.6135
15265TIP3   OH267209   2.275   3.138  15.770 -0.1970 -0.2735 -0.7140
15265TIP3    H167210   2.291   3.094  15.686 -0.5194  0.4519 -1.1601
15265TIP3    H267211   2.254   3.066  15.830 -1.2592 -0.7042 -1.5625
15266TIP3   OH267212   4.630   4.516   4.041  0.4939  0.0720  0.4896
15266TIP3    H167213   4.661   4.576   4.109  2.0546  0.1813 -0.2676
15266TIP3    H267214   4.680   4.540   3.963 -0.3558 -0.8621 -0.3702
15267TIP3   OH267215   6.695   6.649  15.177  0.8428 -0.2345 -0.0193
15267TIP3    H167216   6.748   6.647  15.256 -0.1364 -2.1952  0.6604
15267TIP3    H267217   6.735   6.583  15.119 -0.1843 -0.9716  0.0806
15268TIP3   OH267218   0.455   0.565   2.313 -0.6505  0.4590  0.4261
15268TIP3    H167219   0.452   0.660   2.307 -0.0481  0.5072  0.7873
15268TIP3    H267220   0.549   0.544   2.306 -0.8179 -0.1393 -0.1473
15269TIP3   OH267221   4.798   3.353  16.231  0.2612 -0.6380  0.2270
15269TIP3    H167222   4.747   3.432  16.212 -0.8210 -1.7541 -1.6901
15269TIP3    H267223   4.733   3.283  16.238  1.1985 -1.4185  1.9538
15270TIP3   OH267224   4.006   0.878   3.179  0.0479 -0.2081  0.0392
15270TIP3    H167225   3.925   0.829   3.190 -0.6835  0.8644 -0.4550
15270TIP3    H267226   4.014   0.932   3.257 -1.5410  2.2264 -1.3467
15271TIP3   OH267227   5.214   1.587  14.928 -1.1596 -0.4532  0.3485
15271TIP3    H167228   5.126   1.624  14.924 -0.5729  0.9722 -1.3051
15271TIP3    H267229   5.264   1.639  14.864  1.4048  0.1915  2.7021
15272TIP3   OH267230   6.641   4.140  15.254  0.2230  0.2545 -0.7336
15272TIP3    H167231   6.720   4.113  15.301  0.1111 -1.2133 -1.3107
15272TIP3    H267232   6.664   4.224  15.215  0.5256  1.2170  1.3744
15273TIP3   OH267233   0.085   2.677   3.137  0.0392 -0.3774  0.1130
15273TIP3    H167234   0.089   2.582   3.148  4.3098 -0.3945  0.2679
15273TIP3    H267235   0.151   2.696   3.070  0.0577  2.5583  0.8060
15274TIP3   OH267236   4.070   5.462  15.863 -0.0893 -0.6296 -0.0058
15274TIP3    H167237   4.010   5.439  15.792  1.2082 -0.9537 -1.0180
15274TIP3    H267238   4.109   5.545  15.835 -0.5486 -0.0651  0.9728
15275TIP3   OH267239   3.184   5.572   0.378 -0.7032  0.6064  0.5518
15275TIP3    H167240   3.156   5.502   0.319 -1.2772  0.4684  0.9722
15275TIP3    H267241   3.110   5.632   0.381 -0.1996  1.2594  0.1641
15276TIP3   OH267242   3.544   6.573  12.963  0.3823 -0.1809 -0.3070
15276TIP3    H167243   3.483   6.619  12.906 -0.5605 -1.0526 -0.0136
15276TIP3    H267244   3.553   6.631  13.039  2.7662  1.7028 -1.8599
15277TIP3   OH267245   5.519   5.500   2.312 -0.0182  0.2927 -0.0485
15277TIP3    H167246   5.482   5.423   2.355  2.3746 -0.0736  1.5178
15277TIP3    H267247   5.554   5.553   2.384 -0.5885  2.3096 -1.1847
15278TIP3   OH267248   4.039   0.203  12.398  0.2266 -0.2417  0.0825
15278TIP3    H167249   4.028   0.230  12.307 -1.5279 -2.1836 -0.3368
15278TIP3    H267250   3.952   0.174  12.425  1.2580 -2.1855  1.5234
15279TIP3   OH267251   2.574   0.711   3.493  0.0146 -0.0972  0.0550
15279TIP3    H167252   2.504   0.766   3.460 -1.2598 -0.5662  1.8336
15279TIP3    H267253   2.537   0.668   3.570  1.8319 -1.3841  0.2797
15280TIP3   OH267254   3.333   3.335  14.082  0.0164  0.1817  0.0025
15280TIP3    H167255   3.424   3.366  14.092  0.1394  0.6763 -2.1104
15280TIP3    H267256   3.299   3.331  14.172  1.7794  1.0501  0.7657
15281TIP3   OH267257   3.875   3.875  13.229  0.8279  0.3597 -0.3720
15281TIP3    H167258   3.968   3.898  13.223  1.3512 -0.4825  2.6568
15281TIP3    H267259   3.838   3.941  13.288  0.0462 -0.6072  0.2599
15282TIP3   OH267260   1.169   0.414   1.844 -0.5750 -0.2918 -0.2572
15282TIP3    H167261   1.180   0.372   1.759 -0.5125 -2.1100  0.5848
15282TIP3    H267262   1.240   0.378   1.897 -1.5299 -0.4111  0.9874
15283TIP3   OH267263   0.427   2.634   2.260  0.3697 -0.1270  0.1351
15283TIP3    H167264   0.477   2.702   2.213  0.8780 -0.8531 -0.3930
15283TIP3    H267265   0.492   2.566   2.279 -0.3461 -0.9253 -0.2421
15284TIP3   OH267266   1.234   6.300  16.841  0.4819 -0.0865 -0.2402
15284TIP3    H167267   1.157   6.244  16.853 -0.7934  1.6864  0.3650
15284TIP3    H267268   1.289   6.283  16.917 -0.4692  0.3106  0.5627
15285TIP3   OH267269   4.107   4.890  11.424 -0.5080 -0.7112  0.0779
15285TIP3    H167270   4.114   4.975  11.380  2.4947 -1.2526 -0.7159
15285TIP3    H267271   4.122   4.909  11.516 -2.2699 -0.1264  0.2701
15286TIP3   OH267272   1.409   5.462  16.304  0.0413  0.5540  0.3034
15286TIP3    H167273   1.429   5.377  16.265 -0.9087 -0.3480  1.6713
15286TIP3    H267274   1.322   5.451  16.343  0.2491  1.8961  1.2377
15287TIP3   OH267275   0.862   3.255  11.152  0.4569  0.0746 -0.4427
15287TIP3    H167276   0.907   3.310  11.216 -0.3997 -0.6225  0.8044
15287TIP3    H267277   0.811   3.316  11.099  1.3058  0.6778 -0.5768
15288TIP3   OH267278   5.187   4.119  16.033  0.7153 -0.7198  0.9108
15288TIP3    H167279   5.243   4.152  15.962  0.8346 -0.7115  1.0089
15288TIP3    H267280   5.190   4.189  16.099  0.0212 -0.4031  0.6115
15289TIP3   OH267281   6.232   1.896   2.564 -0.2011 -0.0252  0.2565
15289TIP3    H167282   6.178   1.954   2.509 -0.8272 -0.8585 -0.0216
15289TIP3    H267283   6.225   1.934   2.651 -0.6026  0.3321  0.0773
15290TIP3   OH267284   4.495   4.043  12.726  0.0822  0.0015 -0.7960
15290TIP3    H167285   4.449   3.978  12.780  0.5242  1.2368  1.1281
15290TIP3    H267286   4.426   4.078  12.669 -1.6161  2.0716  2.2575
15291TIP3   OH267287   0.508   0.501   4.399 -0.7810  0.2038  0.5566
15291TIP3    H167288   0.498   0.459   4.485 -1.7980  0.0670  0.3857
15291TIP3    H267289   0.601   0.518   4.391 -0.6247 -0.1600  1.5179
15292TIP3   OH267290   5.186   4.496  12.288 -0.2756 -0.1518 -0.1586
15292TIP3    H167291   5.224   4.584  12.286 -0.3376 -0.1152  0.2992
15292TIP3    H267292   5.130   4.493  12.211  0.5290 -0.1522 -0.7589
15293TIP3   OH267293   6.735   4.544   4.026  0.0988 -0.2439 -0.2154
15293TIP3    H167294   6.678   4.579   4.094 -0.1770 -0.5452 -0.2891
15293TIP3    H267295   6.700   4.580   3.944 -0.2147 -0.7263 -0.2961
15294TIP3   OH267296   5.897   3.836   3.309  0.6555  0.1196  0.3256
15294TIP3    H167297   5.982   3.800   3.284  0.1238 -0.2570 -1.0580
15294TIP3    H267298   5.841   3.821   3.232 -0.7946 -0.0865  1.3783
15295TIP3   OH267299   4.711   5.815   0.434  0.8609 -0.7378  0.1607
15295TIP3    H167300   4.791   5.786   0.391 -0.2392 -1.3691 -1.5411
15295TIP3    H267301   4.663   5.734   0.453  0.3678 -0.3389  0.6591
15296TIP3   OH267302   5.290   5.071   5.533 -0.5419 -0.5707  0.3607
15296TIP3    H167303   5.332   5.132   5.473 -2.3717 -2.6159 -3.3723
15296TIP3    H267304   5.311   4.984   5.498 -0.9894 -1.9746  3.2990
15297TIP3   OH267305   0.704   0.822  16.350  0.4529 -0.5153  0.2957
15297TIP3    H167306   0.674   0.771  16.275 -0.4657 -0.5804  0.6971
15297TIP3    H267307   0.660   0.783  16.425 -1.2843  1.6442  0.4840
15298TIP3   OH267308   3.831   6.053  14.067 -0.1752  0.3603 -0.1415
15298TIP3    H167309   3.850   6.143  14.042 -0.4698  0.0111 -1.7298
15298TIP3    H267310   3.910   6.024  14.114  1.2585  0.4829 -2.3422
15299TIP3   OH267311   2.922   0.602  12.658 -0.1254 -0.0760 -0.2706
15299TIP3    H167312   2.876   0.598  12.574 -1.5063  1.6470  0.3456
15299TIP3    H267313   2.970   0.685  12.655 -1.0793  0.5727  1.0191
15300TIP3   OH267314   2.001   4.467  11.343 -0.2008  0.0031 -0.0376
15300TIP3    H167315   1.994   4.491  11.250 -0.8406  0.0184  0.0157
15300TIP3    H267316   2.090   4.432  11.351  0.4005  1.3666 -0.3477
15301TIP3   OH267317   4.747   1.496  15.286 -0.1431  0.0143  0.6938
15301TIP3    H167318   4.815   1.460  15.343  0.2502  0.0584  0.2560
15301TIP3    H267319   4.710   1.420  15.242  1.5545  0.1821 -1.2007
15302TIP3   OH267320   1.525   1.308   4.857 -0.9246  0.9787 -0.0913
15302TIP3    H167321   1.484   1.233   4.901  0.1524  0.6323  0.3451
15302TIP3    H267322   1.460   1.335   4.792 -2.0318  0.7314  0.8688
15303TIP3   OH267323   2.786   4.033   4.737  0.2457 -0.6059 -0.0312
15303TIP3    H167324   2.717   4.097   4.720 -0.9792 -1.6606  0.7740
15303TIP3    H267325   2.868   4.080   4.721 -0.5578  1.5213  1.6878
15304TIP3   OH267326   0.085   4.805  11.145 -0.2990 -0.7452 -0.4449
15304TIP3    H167327   0.162   4.839  11.190 -0.2695 -1.9486  0.4505
15304TIP3    H267328   0.097   4.832  11.054  1.9658 -2.1869 -0.6472
15305TIP3   OH267329   2.595   1.752   5.163  0.1676 -0.4353 -0.1859
15305TIP3    H167330   2.610   1.841   5.131 -0.0296  0.1378  1.2609
15305TIP3    H267331   2.683   1.717   5.178  0.3149  1.0253  3.1654
15306TIP3   OH267332   3.447   4.467   4.498  0.5353  0.4383  0.4282
15306TIP3    H167333   3.365   4.498   4.536  0.0706  0.3721 -0.4900
15306TIP3    H267334   3.493   4.547   4.472 -1.4163  0.4885 -3.5139
15307TIP3   OH267335   1.796   5.577  10.610 -0.0164 -0.4993  0.2751
15307TIP3    H167336   1.800   5.634  10.533  0.1767 -2.1358 -0.9934
15307TIP3    H267337   1.729   5.615  10.665  0.9999  1.6752  0.1102
15308TIP3   OH267338   2.777   3.460  11.086  0.5642 -0.3399  0.1548
15308TIP3    H167339   2.828   3.404  11.027  2.2636  2.1245 -0.8833
15308TIP3    H267340   2.760   3.539  11.035 -1.5050  0.2571  1.6462
15309TIP3   OH267341   3.804   0.703   2.393  0.5532 -0.6156  0.9770
15309TIP3    H167342   3.869   0.762   2.430 -0.0730  0.8066 -0.1001
15309TIP3    H267343   3.837   0.682   2.305 -0.3367 -0.0068  0.4815
15310TIP3   OH267344   0.158   4.902  10.894 -0.3740 -0.0338 -0.4969
15310TIP3    H167345   0.135   4.850  10.816 -0.3664 -0.8721  0.0402
15310TIP3    H267346   0.202   4.979  10.859  1.4893 -1.3682 -1.2530
15311TIP3   OH267347   3.756   6.087  12.167 -0.2955 -0.0453  0.9129
15311TIP3    H167348   3.732   6.008  12.216  1.5162 -1.1431  0.1321
15311TIP3    H267349   3.836   6.118  12.210 -1.9168  2.4846  2.3450
15312TIP3   OH267350   4.017   1.923  14.009  0.4270  0.1808 -0.6931
15312TIP3    H167351   3.980   2.010  13.998 -3.3370 -1.1987 -0.2230
15312TIP3    H267352   4.008   1.882  13.923 -0.3183 -0.5644 -0.2771
15313TIP3   OH267353   4.455   5.571  12.419 -0.0299  0.2019 -0.1520
15313TIP3    H167354   4.505   5.608  12.492  0.6120 -2.4690  0.8974
15313TIP3    H267355   4.504   5.598  12.341  1.1188  0.5028  0.6383
15314TIP3   OH267356   4.249   4.769   3.560 -0.3609 -0.2546  0.8290
15314TIP3    H167357   4.237   4.697   3.623 -1.0452 -0.3207  0.6297
15314TIP3    H267358   4.176   4.828   3.577 -0.1361  0.1018  0.5839
15315TIP3   OH267359   4.363   0.974  13.792 -0.0814 -0.8376  0.0765
15315TIP3    H167360   4.451   0.969  13.755  0.3634  1.6946  0.5645
15315TIP3    H267361   4.304   0.959  13.718  0.7991  0.4523 -0.9314
15316TIP3   OH267362   6.633   4.588   2.246 -0.4832  0.6502  0.3939
15316TIP3    H167363   6.545   4.606   2.215 -0.2171  1.3718  0.0320
15316TIP3    H267364   6.622   4.520   2.313 -1.3359  0.9691  0.5818
15317TIP3   OH267365   5.226   2.860  11.280 -0.0124 -0.7837  0.4928
15317TIP3    H167366   5.290   2.895  11.219 -0.4775  0.3176  0.6126
15317TIP3    H267367   5.192   2.937  11.326  1.3132 -1.6653  3.1256
15318TIP3   OH267368   3.627   3.525  14.719 -0.2409  0.0397 -0.3288
15318TIP3    H167369   3.669   3.523  14.805  1.4904 -3.2246 -1.0575
15318TIP3    H267370   3.534   3.513  14.737  0.0086  0.0688  1.1136
15319TIP3   OH267371   2.569   3.724  11.084 -0.4277  0.5803 -0.6649
15319TIP3    H167372   2.633   3.757  11.147  1.0154 -1.5170 -0.9472
15319TIP3    H267373   2.547   3.800  11.030  1.0792  1.5780  0.0562
15320TIP3   OH267374   3.632   1.470  14.180 -0.2910 -0.1339 -0.3026
15320TIP3    H167375   3.720   1.508  14.181 -0.2808 -0.1574  0.9195
15320TIP3    H267376   3.627   1.419  14.261 -1.5184  0.0706 -0.2357
15321TIP3   OH267377   3.995   6.542   0.260 -0.1205 -0.0573  0.2425
15321TIP3    H167378   3.919   6.542   0.319 -0.9188  2.9167 -0.6150
15321TIP3    H267379   3.968   6.490   0.185 -1.1049  0.4645  0.2238
15322TIP3   OH267380   0.502   2.263   1.348 -0.1455 -0.0936 -0.0442
15322TIP3    H167381   0.426   2.254   1.291 -0.4069 -0.7641  0.4050
15322TIP3    H267382   0.505   2.182   1.398  1.1719 -0.3090 -0.4312
15323TIP3   OH267383   1.952   1.698  14.497 -0.4181 -0.1286  0.5680
15323TIP3    H167384   1.864   1.728  14.521 -1.4624 -1.9655 -0.7055
15323TIP3    H267385   1.986   1.657  14.576 -1.9251 -1.9743  0.3265
15324TIP3   OH267386   4.658   3.343  13.388 -0.1721  0.0984 -0.1808
15324TIP3    H167387   4.621   3.413  13.334  0.7306  0.4914 -0.3131
15324TIP3    H267388   4.659   3.266  13.331 -1.6696 -0.1949  0.1339
15325TIP3   OH267389   4.049   5.160   4.991 -0.0854 -0.2574  0.3360
15325TIP3    H167390   4.086   5.145   4.904  0.6284  0.1317  0.5683
15325TIP3    H267391   3.968   5.208   4.975  0.7783  1.1095 -0.0305
15326TIP3   OH267392   1.184   5.965  15.655  0.1509 -0.7360 -0.8126
15326TIP3    H167393   1.107   5.988  15.707  0.6921 -1.1105  0.1653
15326TIP3    H267394   1.258   5.996  15.706  0.6472  0.2424 -2.0731
15327TIP3   OH267395   1.884   0.884   5.009  0.5527 -0.2186  0.5166
15327TIP3    H167396   1.972   0.869   4.976  1.0569  1.2676  1.1030
15327TIP3    H267397   1.826   0.853   4.939  1.5617  1.0011 -0.9021
15328TIP3   OH267398   0.795   3.318   5.710  0.1176 -0.5823  0.3412
15328TIP3    H167399   0.815   3.398   5.661 -0.2988 -0.3331  0.5774
15328TIP3    H267400   0.865   3.311   5.774  0.4379 -0.6874 -0.0131
15329TIP3   OH267401   6.081   6.679   4.496  0.3117  0.3580  0.1508
15329TIP3    H167402   6.062   6.728   4.416  1.4687  0.4494 -0.0726
15329TIP3    H267403   6.170   6.704   4.520  1.8581 -3.2347 -1.1869
15330TIP3   OH267404   2.356   6.498  14.912 -0.4411 -0.1681  0.2131
15330TIP3    H167405   2.332   6.577  14.864 -0.1732 -1.2450 -1.7706
15330TIP3    H267406   2.448   6.511  14.936  0.2931 -0.7792 -2.0891
15331TIP3   OH267407   2.504   4.402  13.349 -0.2456 -0.1371  0.0709
15331TIP3    H167408   2.485   4.381  13.258 -0.8687  0.4936  0.0506
15331TIP3    H267409   2.590   4.363  13.365  0.1757  0.3261 -0.9798
15332TIP3   OH267410   1.543   3.528  11.744  0.4552 -0.1285  0.1170
15332TIP3    H167411   1.522   3.514  11.837  3.4238 -0.5022  0.8401
15332TIP3    H267412   1.529   3.443  11.703  0.4381 -0.3245  0.5260
15333TIP3   OH267413   0.802   5.543   5.304  0.2082 -0.1427  0.2209
15333TIP3    H167414   0.858   5.483   5.354 -0.2418 -0.0422  0.8623
15333TIP3    H267415   0.830   5.630   5.331  0.1383 -0.0829  0.1026
15334TIP3   OH267416   1.433   4.022  16.043 -0.0724  0.2231  0.0248
15334TIP3    H167417   1.368   4.064  16.099  0.0693  1.5487 -0.7336
15334TIP3    H267418   1.397   4.032  15.954  0.4875 -0.3221 -0.2684
15335TIP3   OH267419   1.813   4.563  14.535 -0.5457 -0.3021  0.7929
15335TIP3    H167420   1.860   4.577  14.617  0.7435 -1.0320  0.1974
15335TIP3    H267421   1.818   4.469  14.520 -1.3704 -0.2653  0.2199
15336TIP3   OH267422   4.063   3.099  13.066  0.1082  0.3104  0.3563
15336TIP3    H167423   4.019   3.074  12.985 -0.6864  0.4497  0.7344
15336TIP3    H267424   4.144   3.140  13.037  0.0657 -0.0886 -0.3525
15337TIP3   OH267425   3.809   3.223   1.238  0.3236 -0.6633  0.8067
15337TIP3    H167426   3.857   3.142   1.222  0.4269 -0.7313  1.4281
15337TIP3    H267427   3.727   3.195   1.279 -0.9963 -0.6770 -1.6358
15338TIP3   OH267428   4.128   3.955   1.654  0.3261  0.3097 -0.2260
15338TIP3    H167429   4.104   4.028   1.597  0.5558  0.1660 -0.5133
15338TIP3    H267430   4.211   3.982   1.695 -0.5359  0.9986  1.1156
15339TIP3   OH267431   5.309   0.560   3.221  0.2650  0.1090 -0.6142
15339TIP3    H167432   5.387   0.510   3.244 -1.0296 -0.8971  2.0421
15339TIP3    H267433   5.299   0.622   3.293 -1.6247 -0.1040 -0.6508
15340TIP3   OH267434   3.558   6.193   2.061 -0.0270  1.0332  0.0128
15340TIP3    H167435   3.612   6.181   1.983  1.1128  0.6865  0.8234
15340TIP3    H267436   3.586   6.278   2.096  0.2208  0.7134  0.6031
15341TIP3   OH267437   3.130   0.720   0.616 -0.1222  0.2028 -0.2897
15341TIP3    H167438   3.169   0.635   0.633 -0.4200 -0.0870 -0.9777
15341TIP3    H267439   3.146   0.771   0.695 -1.8525 -1.1931  1.0473
15342TIP3   OH267440   1.970   5.632   3.265 -0.5389 -0.0205  0.2950
15342TIP3    H167441   1.945   5.608   3.176  0.8149 -2.2249  0.4329
15342TIP3    H267442   1.943   5.724   3.273 -1.7348 -0.0896 -1.9675
15343TIP3   OH267443   3.937   2.789   2.162  0.1323 -0.2197 -0.3644
15343TIP3    H167444   3.856   2.745   2.136  0.5738 -0.4785 -1.3434
15343TIP3    H267445   3.911   2.878   2.183 -0.8750 -1.0460  2.2021
15344TIP3   OH267446   4.882   2.160  13.805  0.0298 -0.7728 -0.3410
15344TIP3    H167447   4.936   2.103  13.861 -1.0009 -0.7468  0.7347
15344TIP3    H267448   4.792   2.142  13.833 -0.5928 -1.2063 -2.4404
15345TIP3   OH267449   2.289   5.245   2.741 -0.2190  0.3147  0.2506
15345TIP3    H167450   2.195   5.236   2.726 -0.5909  2.5864  0.9099
15345TIP3    H267451   2.320   5.300   2.668  0.0673  1.8106  1.4484
15346TIP3   OH267452   5.929   0.434   2.630  0.3043 -0.7966 -0.0604
15346TIP3    H167453   5.942   0.515   2.580 -2.1165 -1.6949 -2.3657
15346TIP3    H267454   5.896   0.463   2.715  1.5865  0.6631 -0.0129
15347TIP3   OH267455   3.141   5.609   4.021 -0.0037  0.8599  0.1316
15347TIP3    H167456   3.081   5.665   4.070 -0.2103 -0.0270  0.9407
15347TIP3    H267457   3.214   5.595   4.081 -0.8737 -1.3343  0.7774
15348TIP3   OH267458   2.341   1.957   2.783  0.3912  0.1356  0.6447
15348TIP3    H167459   2.339   1.862   2.781 -0.8367  0.1384  0.8072
15348TIP3    H267460   2.433   1.979   2.798  0.4266 -1.0616  2.4162
15349TIP3   OH267461   0.546   5.384  11.400 -0.6697  0.2597 -0.0159
15349TIP3    H167462   0.563   5.290  11.394 -0.6756  0.2158  0.5911
15349TIP3    H267463   0.456   5.395  11.369 -0.9188 -0.0329  0.5810
15350TIP3   OH267464   2.147   4.008   2.299 -0.0660 -0.2362  0.2182
15350TIP3    H167465   2.217   4.062   2.262 -0.8486  1.1247  0.6487
15350TIP3    H267466   2.193   3.939   2.347  0.9840  0.5803  0.4328
15351TIP3   OH267467   0.692   3.149   3.711 -0.3252 -0.1584 -0.5824
15351TIP3    H167468   0.653   3.068   3.744 -3.3970  0.9221 -1.2333
15351TIP3    H267469   0.700   3.205   3.788  0.2336 -0.4801 -0.4018
15352TIP3   OH267470   0.252   3.706   5.938  0.0938  0.1702 -0.2887
15352TIP3    H167471   0.279   3.638   5.876 -0.1382  0.1398 -0.3574
15352TIP3    H267472   0.295   3.785   5.908  1.6170 -0.2446  0.6692
15353TIP3   OH267473   5.546   2.452   3.075  0.5342  0.3042 -0.2059
15353TIP3    H167474   5.581   2.372   3.114  0.4202 -0.1195 -0.9519
15353TIP3    H267475   5.508   2.500   3.148  0.4456 -0.4073  0.2258
15354TIP3   OH267476   1.577   1.902  14.291 -0.4769 -0.1181  0.1408
15354TIP3    H167477   1.588   1.828  14.231 -0.0051 -0.9544  1.2060
15354TIP3    H267478   1.616   1.871  14.373  0.7263  1.7275  0.3126
15355TIP3   OH267479   3.937   0.951  13.029 -0.1630  0.1917  0.0532
15355TIP3    H167480   3.970   0.908  12.950  0.7793 -0.6367  0.8595
15355TIP3    H267481   3.970   0.897  13.101 -2.0798  0.1811  0.9874
15356TIP3   OH267482   2.750   1.800   3.642 -0.0901 -0.1280  0.1013
15356TIP3    H167483   2.660   1.831   3.630 -0.3837 -0.8932  0.2295
15356TIP3    H267484   2.801   1.850   3.579 -0.2551  1.8124  1.4276
15357TIP3   OH267485   0.766   6.295   5.905  0.4010 -0.2436  0.4647
15357TIP3    H167486   0.840   6.343   5.945  1.3247 -1.8862  0.8041
15357TIP3    H267487   0.753   6.220   5.963 -1.8074  0.2003  0.6072
15358TIP3   OH267488   0.188   1.928   3.461  0.0255 -0.2091 -0.0563
15358TIP3    H167489   0.123   1.978   3.413  0.0632 -1.4013 -1.4184
15358TIP3    H267490   0.222   1.865   3.398  4.4539  1.9913 -0.3017
15359TIP3   OH267491   4.572   3.196  12.445  0.0432 -0.0583 -0.2747
15359TIP3    H167492   4.566   3.209  12.540 -1.5400 -0.0827 -0.3494
15359TIP3    H267493   4.665   3.210  12.425  0.0420  2.1210  0.9590
15360TIP3   OH267494   4.605   4.705  17.063 -0.0294  0.4520  0.3894
15360TIP3    H167495   4.688   4.699  17.110  0.0332  1.1468  0.3868
15360TIP3    H267496   4.575   4.615  17.054  0.2160  0.2727  1.3072
15361TIP3   OH267497   3.273   2.827  13.806  0.2139  0.3410  0.1499
15361TIP3    H167498   3.274   2.916  13.841 -0.5095 -0.5636  2.7087
15361TIP3    H267499   3.332   2.778  13.863  0.9527 -0.7706 -1.4806
15362TIP3   OH267500   2.593   1.112   5.088  0.0914 -0.4270 -0.2715
15362TIP3    H167501   2.668   1.168   5.109  0.0343 -0.2509 -0.5283
15362TIP3    H267502   2.621   1.024   5.113  0.6162 -0.4531 -0.9402
15363TIP3   OH267503   3.226   0.815   0.304 -0.1054  0.6754  0.4110
15363TIP3    H167504   3.203   0.784   0.392 -1.5910  1.1717  0.2201
15363TIP3    H267505   3.306   0.767   0.283  0.6698  1.0414  2.2939
15364TIP3   OH267506   4.958   3.706   4.630  0.0099 -0.3014 -0.1701
15364TIP3    H167507   4.957   3.670   4.719 -1.5476 -0.8609 -0.3822
15364TIP3    H267508   4.876   3.755   4.623  1.3598  2.0537 -0.4279
15365TIP3   OH267509   5.587   5.855   1.416 -0.6089  0.1540 -0.0487
15365TIP3    H167510   5.641   5.929   1.388  0.2255 -1.1671 -2.1714
15365TIP3    H267511   5.501   5.893   1.432 -0.9943  1.2629 -3.8488
15366TIP3   OH267512   1.557   0.088  16.201  0.5777  0.3088 -0.1600
15366TIP3    H167513   1.606   0.077  16.283 -2.2981 -0.8861  1.5434
15366TIP3    H267514   1.527   0.179  16.203  1.3461  0.5796 -0.4352
15367TIP3   OH267515   0.703   1.038   4.668  0.1251  0.1346  0.3248
15367TIP3    H167516   0.620   0.992   4.675  0.8800 -1.3640 -0.1890
15367TIP3    H267517   0.679   1.129   4.651 -1.4036 -0.1279  0.9206
15368TIP3   OH267518   6.630   0.446  14.216  0.2650 -0.6734  0.1450
15368TIP3    H167519   6.595   0.506  14.150 -0.1720 -0.6304  0.4151
15368TIP3    H267520   6.553   0.414  14.262  0.2420 -3.2028 -1.4502
15369TIP3   OH267521   6.067   3.211   3.644 -0.2753  0.2733 -0.0246
15369TIP3    H167522   6.020   3.289   3.614  0.2134  0.2880 -0.7842
15369TIP3    H267523   6.043   3.202   3.736 -2.3221 -0.1288 -0.5474
15370TIP3   OH267524   2.386   0.833  15.750 -0.0339 -0.4302  0.3905
15370TIP3    H167525   2.368   0.775  15.823 -0.1265 -0.2530  0.5102
15370TIP3    H267526   2.478   0.817  15.728  0.2989  0.2606  1.2198
15371TIP3   OH267527   4.164   5.214  16.995 -0.8360  0.5990 -0.4241
15371TIP3    H167528   4.158   5.159  17.073 -1.1540  1.4419  0.1623
15371TIP3    H267529   4.114   5.167  16.928 -3.4883  1.4381  0.8237
15372TIP3   OH267530   4.483   5.904   2.716 -0.2648  0.1473  0.3198
15372TIP3    H167531   4.449   5.820   2.687 -1.6518  0.8232 -0.1037
15372TIP3    H267532   4.576   5.902   2.691 -0.3809 -1.0611 -0.0977
15373TIP3   OH267533   5.033   6.465   3.477 -0.2616 -0.4675  0.3480
15373TIP3    H167534   4.995   6.552   3.475 -1.8047 -1.1085 -0.6687
15373TIP3    H267535   5.112   6.472   3.423  0.3794  0.5803  1.3838
15374TIP3   OH267536   6.158   1.604  11.718 -0.0668  0.3665  0.0952
15374TIP3    H167537   6.076   1.574  11.759  0.8377 -1.0779  0.9733
15374TIP3    H267538   6.206   1.645  11.790  0.7292 -0.4511  0.0480
15375TIP3   OH267539   3.041   3.122  12.228 -0.2558 -0.1019 -0.0402
15375TIP3    H167540   3.101   3.146  12.298  2.1673  1.0204 -2.3598
15375TIP3    H267541   3.059   3.029  12.213  0.9832  0.2286 -0.7303
15376TIP3   OH267542   2.203   4.390  16.413  0.4320 -0.0436 -0.2861
15376TIP3    H167543   2.259   4.392  16.491  1.6086  1.1213 -1.1302
15376TIP3    H267544   2.249   4.333  16.352  0.3469  0.3728 -0.7368
15377TIP3   OH267545   0.849   5.377  16.863  0.4901  0.1873  0.3215
15377TIP3    H167546   0.757   5.402  16.873  0.1382 -0.8698 -0.1493
15377TIP3    H267547   0.868   5.323  16.940 -0.2807 -2.3635 -1.1615
15378TIP3   OH267548   2.485   5.994   1.543  0.2825  0.2329  0.2811
15378TIP3    H167549   2.521   6.030   1.624  1.0427  0.5371 -0.1737
15378TIP3    H267550   2.404   6.043   1.528 -0.0256 -0.0446  1.0135
15379TIP3   OH267551   3.361   1.518  11.252  0.1470 -0.0246 -0.0105
15379TIP3    H167552   3.412   1.438  11.238  1.7870  0.9578  0.0276
15379TIP3    H267553   3.318   1.534  11.167  1.4475  0.1137 -0.6784
15380TIP3   OH267554   5.819   6.754   1.247  0.5354 -0.0678  0.0502
15380TIP3    H167555   5.848   6.749   1.156 -1.8969  2.1808 -1.0048
15380TIP3    H267556   5.845   6.842   1.275  0.3447 -0.3569  1.1877
15381TIP3   OH267557   6.125   5.890   4.069 -0.0101 -0.6707  0.3561
15381TIP3    H167558   6.069   5.967   4.059  0.8449 -0.1067 -0.3110
15381TIP3    H267559   6.079   5.820   4.022 -0.0568 -0.1589 -0.3766
15382TIP3   OH267560   6.697   6.245   3.449 -0.0096 -0.6712 -0.1207
15382TIP3    H167561   6.695   6.337   3.473 -0.7427 -0.2211 -1.7515
15382TIP3    H267562   6.704   6.245   3.353  0.2638 -2.3061 -0.1310
15383TIP3   OH267563   4.926   3.319  13.520  0.2479  0.0239 -0.3666
15383TIP3    H167564   4.842   3.296  13.559  0.2748 -1.0037 -0.8887
15383TIP3    H267565   4.909   3.324  13.426  0.5118  1.0419 -0.3795
15384TIP3   OH267566   3.803   6.482  14.504 -0.0671 -0.5069  0.2404
15384TIP3    H167567   3.737   6.545  14.473 -0.3446 -0.4935  0.8542
15384TIP3    H267568   3.754   6.421  14.558  0.8889  1.4864  3.6482
15385TIP3   OH267569   6.395   2.892   4.927  0.1355  0.5104  0.4124
15385TIP3    H167570   6.477   2.844   4.940  0.4438  1.3644  1.8207
15385TIP3    H267571   6.420   2.968   4.874 -0.1004 -0.1183 -0.6415
15386TIP3   OH267572   3.821   4.278   5.223  0.4172  0.1121  0.4766
15386TIP3    H167573   3.875   4.354   5.244 -0.9589  1.5115 -0.8089
15386TIP3    H267574   3.738   4.315   5.195 -1.3691 -1.9521  2.6195
15387TIP3   OH267575   2.659   0.884   4.170  0.3174 -0.0776  0.7820
15387TIP3    H167576   2.572   0.857   4.199 -0.9206  4.1370  1.6599
15387TIP3    H267577   2.719   0.823   4.213 -2.0865 -3.2537 -0.0026
15388TIP3   OH267578   3.931   2.762   0.492 -0.0114  0.2143 -0.4710
15388TIP3    H167579   3.970   2.834   0.442  3.5372 -1.9980 -1.2359
15388TIP3    H267580   3.889   2.707   0.425  1.9566 -1.0857 -0.7203
15389TIP3   OH267581   0.713   3.735   2.968 -0.1163 -0.1938  0.1887
15389TIP3    H167582   0.706   3.793   3.044 -0.5472 -0.4680  0.3654
15389TIP3    H267583   0.805   3.709   2.966 -0.1099 -0.2170  0.6410
15390TIP3   OH267584   6.717   5.110   0.984  0.1449  0.6659  0.2805
15390TIP3    H167585   6.720   5.021   0.949 -0.0864  0.5951  0.4403
15390TIP3    H267586   6.625   5.124   1.008  0.2414  0.8290  0.5636
15391TIP3   OH267587   1.009   4.297   2.375  0.0135  0.4502  0.5673
15391TIP3    H167588   1.080   4.320   2.315 -0.1641  0.7167  0.4567
15391TIP3    H267589   1.051   4.289   2.460  0.0512  1.4238  0.6538
15392TIP3   OH267590   6.139   4.861  15.540 -0.1259  0.3488  0.2526
15392TIP3    H167591   6.179   4.851  15.453 -0.3472  1.2875  0.0324
15392TIP3    H267592   6.054   4.902  15.523 -1.3074 -1.7712  0.6984
15393TIP3   OH267593   6.766   1.301   2.202 -0.3000 -0.3380 -0.6359
15393TIP3    H167594   6.783   1.277   2.111  0.5798 -0.2111 -0.5085
15393TIP3    H267595   6.787   1.222   2.252  1.7772  0.3758 -0.2994
15394TIP3   OH267596   0.686   2.941   5.203  0.0081  0.3786  0.1761
15394TIP3    H167597   0.691   2.942   5.108  1.2923  0.5495  0.2291
15394TIP3    H267598   0.702   3.031   5.230 -0.4061  0.3444  0.5621
15395TIP3   OH267599   6.254   2.174  11.744 -0.9744  0.1933 -0.2129
15395TIP3    H167600   6.237   2.102  11.805 -0.4071 -0.1500 -0.4494
15395TIP3    H267601   6.198   2.245  11.775  0.0136  0.3682  1.3152
15396TIP3   OH267602   6.240   2.021  13.622 -0.0112  0.1066 -0.3247
15396TIP3    H167603   6.172   1.961  13.590 -0.7915  1.6328 -1.7070
15396TIP3    H267604   6.209   2.108  13.596  1.2908  1.0840  1.2213
15397TIP3   OH267605   2.475   1.589   3.012 -0.0906 -0.7480  0.4935
15397TIP3    H167606   2.507   1.546   3.092  0.1341 -1.7535 -0.1214
15397TIP3    H267607   2.547   1.581   2.950 -0.3172 -0.0946  0.1388
15398TIP3   OH267608   3.857   0.075  16.454 -0.2281 -0.2067 -0.3302
15398TIP3    H167609   3.769   0.109  16.469  0.5970  2.2890 -0.6946
15398TIP3    H267610   3.915   0.149  16.472  1.6562 -1.1324 -2.1547
15399TIP3   OH267611   4.776   5.309   4.576 -0.2539 -0.1197  0.4101
15399TIP3    H167612   4.751   5.349   4.493  0.4381  1.6140  0.9820
15399TIP3    H267613   4.707   5.335   4.637  0.0146 -0.1137  0.7140
15400TIP3   OH267614   3.709   1.120  16.599  0.6246  0.1894  0.1963
15400TIP3    H167615   3.691   1.059  16.670  2.9959  1.6684  2.2355
15400TIP3    H267616   3.704   1.207  16.640  0.4791  1.2253 -1.8483
15401TIP3   OH267617   5.691   0.022   4.900  0.0463  0.1798  0.5067
15401TIP3    H167618   5.787   0.019   4.898  0.0550  0.5392 -0.0070
15401TIP3    H267619   5.670   0.115   4.885 -0.3818  0.0345  0.1768
15402TIP3   OH267620   4.464   4.755   1.305 -0.0749  0.2593  0.2549
15402TIP3    H167621   4.539   4.750   1.245  1.3358  0.9608  1.8858
15402TIP3    H267622   4.498   4.800   1.383 -2.6760  2.3381  0.3437
15403TIP3   OH267623   0.432   0.786   1.694  0.3609  0.3082  0.5437
15403TIP3    H167624   0.409   0.875   1.669  2.0494 -0.0988 -2.9932
15403TIP3    H267625   0.495   0.797   1.766 -0.7900  1.8338  1.3684
15404TIP3   OH267626   0.493   5.623  14.433 -0.3344 -0.1372 -0.4455
15404TIP3    H167627   0.573   5.600  14.386  0.2995  2.4425 -0.7865
15404TIP3    H267628   0.487   5.559  14.504  2.6881  0.2877  0.2899
15405TIP3   OH267629   0.607   5.138  16.661 -0.0868 -0.5343 -0.3149
15405TIP3    H167630   0.657   5.081  16.602  1.3479 -2.0570  2.1834
15405TIP3    H267631   0.648   5.224  16.651  0.9825 -1.0576 -0.6264
15406TIP3   OH267632   2.795   4.791   5.536  0.4737  0.0343 -0.3157
15406TIP3    H167633   2.888   4.811   5.547  0.4968  0.0024 -0.4523
15406TIP3    H267634   2.752   4.837   5.608  0.4534  1.0851 -0.9766
15407TIP3   OH267635   4.333   0.276   1.707  0.3185 -0.5853 -0.2261
15407TIP3    H167636   4.241   0.254   1.721 -0.0451  0.4796 -0.8428
15407TIP3    H267637   4.365   0.210   1.646 -0.2228 -0.5696 -0.5273
15408TIP3   OH267638   5.533   2.551   1.853 -0.3696 -0.5751  0.2789
15408TIP3    H167639   5.481   2.472   1.839  1.5631 -1.6361 -1.3728
15408TIP3    H267640   5.624   2.524   1.841  0.3367  2.0031 -1.0946
15409TIP3   OH267641   3.198   0.293   4.855  0.9236 -0.0139  0.0343
15409TIP3    H167642   3.171   0.378   4.822 -0.3033 -0.5990 -0.5362
15409TIP3    H267643   3.200   0.236   4.778  3.0729 -0.2010  0.1907
15410TIP3   OH267644   0.641   3.143  12.554 -0.3589  0.7367 -0.1098
15410TIP3    H167645   0.603   3.215  12.503  0.2871  0.2096 -1.3744
15410TIP3    H267646   0.730   3.171  12.572 -0.6833  1.0622  1.0433
15411TIP3   OH267647   6.101   2.760   3.379 -0.0372 -0.1869  0.3313
15411TIP3    H167648   6.138   2.680   3.417 -0.1181  0.7525  2.5375
15411TIP3    H267649   6.133   2.760   3.288 -0.1791 -2.7764  0.2045
15412TIP3   OH267650   6.067   3.139  10.572 -0.7217  0.2579  0.5975
15412TIP3    H167651   6.073   3.060  10.519  0.7880  0.0132  1.0759
15412TIP3    H267652   6.083   3.211  10.510  3.0771 -0.1153  0.8932
15413TIP3   OH267653   4.415   4.293  15.643 -0.3235  0.1807  0.2374
15413TIP3    H167654   4.408   4.350  15.720 -2.1234  0.3452 -0.0067
15413TIP3    H267655   4.342   4.233  15.652 -0.5151  0.1606 -1.3219
15414TIP3   OH267656   6.702   2.164   2.098 -0.1651 -0.2133 -0.3978
15414TIP3    H167657   6.666   2.248   2.124 -0.0560 -1.1312  3.2114
15414TIP3    H267658   6.662   2.145   2.013 -0.3438  3.2933 -1.2327
15415TIP3   OH267659   5.403   0.972   0.239  0.1595  0.0289 -0.1256
15415TIP3    H167660   5.322   0.972   0.188 -1.9772  1.4751  2.9900
15415TIP3    H267661   5.422   1.065   0.253  0.8013 -0.3169  1.4299
15416TIP3   OH267662   4.147   3.651   5.775  0.0196  0.9367 -0.7090
15416TIP3    H167663   4.203   3.644   5.852  0.5370  1.1260 -1.0623
15416TIP3    H267664   4.100   3.734   5.786 -0.4514  0.6184 -0.2489
15417TIP3   OH267665   6.276   4.255  11.374  0.0040  0.1117  0.4427
15417TIP3    H167666   6.273   4.350  11.373 -2.2779  0.0920  0.2317
15417TIP3    H267667   6.237   4.229  11.291  1.7477 -1.0424 -0.0680
15418TIP3   OH267668   2.276   6.090  14.463 -0.2057 -0.3832 -0.3939
15418TIP3    H167669   2.272   6.006  14.418 -2.0121  0.1939 -1.4436
15418TIP3    H267670   2.327   6.073  14.542 -0.2972 -2.3930 -0.7138
15419TIP3   OH267671   4.862   2.272   1.602  0.3306  0.5521 -0.1000
15419TIP3    H167672   4.916   2.319   1.666 -0.1808 -0.0857  0.8195
15419TIP3    H267673   4.903   2.186   1.594 -0.4811  0.0936  0.5378
15420TIP3   OH267674   1.611   4.514   2.574  0.3312  0.0172 -0.2468
15420TIP3    H167675   1.635   4.513   2.481  0.6696  3.4484 -0.3421
15420TIP3    H267676   1.665   4.585   2.611 -0.1386 -0.9536  2.4835
15421TIP3   OH267677   1.313   1.949  12.495 -0.0178 -0.1183  0.2262
15421TIP3    H167678   1.233   1.914  12.534  0.4703  0.9361  2.3156
15421TIP3    H267679   1.327   1.896  12.417 -0.6639 -2.8756  1.8601
15422TIP3   OH267680   4.303   0.651   1.344 -0.3823  0.6224 -0.3197
15422TIP3    H167681   4.362   0.703   1.399  0.0030 -1.0233  0.9452
15422TIP3    H267682   4.326   0.560   1.365 -2.1382 -0.0665 -1.1678
15423TIP3   OH267683   0.523   4.248   5.704  0.6271  0.1112 -0.0171
15423TIP3    H167684   0.595   4.199   5.663  0.4545  0.1839 -0.4115
15423TIP3    H267685   0.566   4.322   5.747  0.8245 -0.0416  0.0535
15424TIP3   OH267686   0.461   4.697  12.052  0.6172  0.2754 -0.6633
15424TIP3    H167687   0.393   4.676  11.988  1.9236  0.7603 -2.2966
15424TIP3    H267688   0.526   4.747  12.002  1.8385  0.4245  0.9879
15425TIP3   OH267689   1.135   5.702   4.826  0.6484 -0.0456 -0.1773
15425TIP3    H167690   1.196   5.716   4.753  0.1967  0.6881 -0.4209
15425TIP3    H267691   1.076   5.777   4.823 -0.0388 -0.5586  0.2907
15426TIP3   OH267692   5.807   0.868   2.909 -0.5775 -0.3320 -0.0392
15426TIP3    H167693   5.901   0.867   2.927 -0.6316 -2.5400  0.3902
15426TIP3    H267694   5.769   0.918   2.982  0.1440 -0.5541  0.4952
15427TIP3   OH267695   1.250   2.156  14.803  0.0380  0.1996 -0.2594
15427TIP3    H167696   1.197   2.124  14.729  0.0049  0.4139 -0.3291
15427TIP3    H267697   1.240   2.088  14.870  0.6969 -0.3710 -0.7334
15428TIP3   OH267698   1.609   5.809  16.252  0.0679  0.3483 -0.0229
15428TIP3    H167699   1.572   5.848  16.332 -3.2339  0.7360 -1.5720
15428TIP3    H267700   1.661   5.879  16.213  0.3173  0.6962  0.8953
15429TIP3   OH267701   5.330   6.250   0.166 -0.7783 -0.0656 -0.4987
15429TIP3    H167702   5.407   6.199   0.191 -0.2095  0.4606 -1.1152
15429TIP3    H267703   5.265   6.230   0.233  1.3667  3.0894  2.9370
15430TIP3   OH267704   4.400   0.186   3.557  0.2215 -0.1517 -0.1793
15430TIP3    H167705   4.352   0.149   3.631  2.7063 -3.8721 -0.1573
15430TIP3    H267706   4.332   0.224   3.501 -2.2434 -1.3584  1.7925
15431TIP3   OH267707   1.024   5.675  14.522 -0.2045 -0.4278 -0.1874
15431TIP3    H167708   1.117   5.659  14.505  0.0398  0.7648 -0.0788
15431TIP3    H267709   1.021   5.765  14.554 -1.2258 -0.9788  1.3652
15432TIP3   OH267710   0.433   3.690  12.231  0.4082 -0.1886  0.3096
15432TIP3    H167711   0.405   3.598  12.226 -0.7484  0.1645 -0.1447
15432TIP3    H267712   0.399   3.730  12.151  0.6044  0.7142  0.6620
15433TIP3   OH267713   6.676   2.111   5.316 -0.4398 -0.2906 -0.3686
15433TIP3    H167714   6.593   2.077   5.285 -0.2854 -0.3165 -0.7595
15433TIP3    H267715   6.676   2.093   5.410 -0.5008 -1.0679 -0.5172
15434TIP3   OH267716   1.373   3.548   2.250 -0.2117 -0.0190 -0.0068
15434TIP3    H167717   1.373   3.473   2.309 -1.3317 -0.3774 -0.4439
15434TIP3    H267718   1.319   3.614   2.294 -0.5902 -0.0814 -0.3759
15435TIP3   OH267719   5.507   2.473  11.740  0.0418 -0.1619  0.0101
15435TIP3    H167720   5.481   2.393  11.785 -0.0742  0.5450  1.2496
15435TIP3    H267721   5.453   2.474  11.660 -0.2750 -1.0898  0.2033
15436TIP3   OH267722   3.789   2.559  15.034  0.1420  0.0495 -0.2836
15436TIP3    H167723   3.732   2.556  15.111 -0.1457  0.3469 -0.4840
15436TIP3    H267724   3.749   2.625  14.977  1.5547  1.4724  0.2839
15437TIP3   OH267725   0.690   0.443  14.561 -0.5565 -0.0881  0.1206
15437TIP3    H167726   0.719   0.471  14.474  2.4263  0.5133  1.2040
15437TIP3    H267727   0.768   0.405  14.601 -1.4491  0.9239  3.0409
15438TIP3   OH267728   0.910   3.199  15.010 -0.4498 -0.0936 -0.0174
15438TIP3    H167729   0.979   3.266  15.014 -1.9325  1.4548  0.9168
15438TIP3    H267730   0.940   3.138  14.943  1.1985  1.2447 -0.5695
15439TIP3   OH267731   3.888   3.269   4.744 -0.5982 -0.2144  1.1817
15439TIP3    H167732   3.954   3.337   4.743 -0.8852  0.0957 -1.0767
15439TIP3    H267733   3.938   3.187   4.745  0.0207 -0.0419 -2.4917
15440TIP3   OH267734   6.656   0.755  11.977  0.1817  0.1295  0.2383
15440TIP3    H167735   6.744   0.792  11.983  0.2793  0.8192 -3.1654
15440TIP3    H267736   6.605   0.824  11.933 -0.7459 -2.0106 -2.3070
15441TIP3   OH267737   6.640   6.533   2.801 -0.0323 -0.1809  0.1945
15441TIP3    H167738   6.646   6.623   2.833 -1.5774 -0.0691  0.2485
15441TIP3    H267739   6.586   6.539   2.722  0.1297 -1.0184  0.0104
15442TIP3   OH267740   1.901   3.918  14.845 -0.1162 -0.1559  0.4424
15442TIP3    H167741   1.838   3.982  14.811 -0.6260  1.1911  3.5623
15442TIP3    H267742   1.853   3.836  14.846 -1.1115  0.4138  0.8132
15443TIP3   OH267743   1.840   5.736   0.115  0.8821  0.1054 -0.5735
15443TIP3    H167744   1.927   5.768   0.138  1.2137 -0.8008 -0.5382
15443TIP3    H267745   1.816   5.677   0.187  0.4912 -0.1121 -0.8757
15444TIP3   OH267746   3.520   4.946   1.677  0.2145 -0.7314 -0.4310
15444TIP3    H167747   3.454   5.006   1.712 -1.0578 -2.8176  0.9885
15444TIP3    H267748   3.497   4.937   1.585 -1.1151 -0.9379 -0.0947
15445TIP3   OH267749   6.452   1.771   5.322 -0.1530 -0.2143  0.3080
15445TIP3    H167750   6.518   1.745   5.257 -0.6133 -1.2489  0.2277
15445TIP3    H267751   6.463   1.708   5.393  0.3491  0.9150  1.2694
15446TIP3   OH267752   4.493   5.931  15.306 -0.0304 -0.1931  0.2347
15446TIP3    H167753   4.487   5.980  15.389 -1.7626 -0.7746  0.4916
15446TIP3    H267754   4.424   5.968  15.252  0.1769 -0.7808 -0.4455
15447TIP3   OH267755   6.747   0.290   0.689  0.4089 -0.5987 -0.1847
15447TIP3    H167756   6.764   0.268   0.780 -0.2773  0.8496  0.3251
15447TIP3    H267757   6.824   0.341   0.662  0.2858 -0.4150 -0.1894
15448TIP3   OH267758   3.020   3.846   1.060 -0.2225 -0.3328  0.0031
15448TIP3    H167759   3.044   3.900   0.985 -1.1004  0.3327  0.1934
15448TIP3    H267760   3.077   3.878   1.131  0.1397 -0.5149 -0.2006
15449TIP3   OH267761   3.542   2.587   0.324 -0.4368  0.7358  0.1962
15449TIP3    H167762   3.471   2.569   0.385 -1.0467 -4.1216 -1.5116
15449TIP3    H267763   3.542   2.513   0.264  3.5715  2.4795 -2.4197
15450TIP3   OH267764   2.759   4.242   4.459 -0.0393 -0.2380  0.0607
15450TIP3    H167765   2.682   4.255   4.515  0.3076  1.1858  0.2229
15450TIP3    H267766   2.828   4.293   4.499  1.6826 -3.1536  1.1287
15451TIP3   OH267767   6.181   2.425  17.091 -0.1253 -0.7786  0.0495
15451TIP3    H167768   6.111   2.436  17.027 -0.8478 -0.4481  0.8727
15451TIP3    H267769   6.252   2.383  17.042 -0.6535 -0.5291 -0.9581
15452TIP3   OH267770   5.555   1.653  14.565 -0.2676  0.0679  0.2741
15452TIP3    H167771   5.644   1.678  14.541  0.0190 -1.2934 -0.1942
15452TIP3    H267772   5.517   1.732  14.603  2.0423 -0.0170  3.0872
15453TIP3   OH267773   1.610   4.399  15.603  0.2934  0.1570 -0.0897
15453TIP3    H167774   1.614   4.338  15.530  0.0006  1.2318 -1.0422
15453TIP3    H267775   1.516   4.410  15.619  0.3606 -0.2745  0.6328
15454TIP3   OH267776   5.742   5.251  14.215  0.4473  0.2229  0.3052
15454TIP3    H167777   5.833   5.275  14.233 -0.1479  2.6533  0.4748
15454TIP3    H267778   5.728   5.273  14.123  0.0499 -0.1461  0.2742
15455TIP3   OH267779   5.856   1.651   5.916 -0.2289 -0.4272  0.3757
15455TIP3    H167780   5.792   1.716   5.945  2.0695  1.2982  1.8955
15455TIP3    H267781   5.939   1.698   5.910  1.1708 -2.7888 -0.4165
15456TIP3   OH267782   1.155   3.828   3.102 -0.3800  0.0605  0.2581
15456TIP3    H167783   1.071   3.865   3.128  0.5446  2.0145  0.6900
15456TIP3    H267784   1.177   3.766   3.172 -1.2838 -0.2150  0.3122
15457TIP3   OH267785   3.857   3.526   1.701 -0.1214 -0.2625 -0.5540
15457TIP3    H167786   3.813   3.448   1.667 -0.2257 -0.2672 -0.4089
15457TIP3    H267787   3.888   3.571   1.622 -0.6912 -0.0787 -0.6842
15458TIP3   OH267788   3.987   3.594  11.655  0.5311  0.3370 -0.4003
15458TIP3    H167789   3.918   3.649  11.619  0.5430 -0.6898 -2.0712
15458TIP3    H267790   3.976   3.600  11.750 -1.4761  0.6537 -0.6275
15459TIP3   OH267791   5.352   5.240   1.697 -0.3372  0.5618 -0.2996
15459TIP3    H167792   5.369   5.146   1.699  0.4564  0.5557  4.1302
15459TIP3    H267793   5.433   5.279   1.729 -1.0263  2.6988 -1.0122
15460TIP3   OH267794   4.353   6.572  16.721  0.0106 -0.3500  0.0219
15460TIP3    H167795   4.365   6.628  16.797  1.8658 -0.1482 -0.3795
15460TIP3    H267796   4.320   6.631  16.652  0.4184 -0.0799  0.0568
15461TIP3   OH267797   0.807   2.456   4.444 -0.2778  0.1904  0.4508
15461TIP3    H167798   0.762   2.534   4.411  1.3710  1.2554  0.6112
15461TIP3    H267799   0.744   2.385   4.431 -1.0128  1.1493 -1.7273
15462TIP3   OH267800   4.010   2.305  13.510  0.1840  0.2724 -0.1215
15462TIP3    H167801   3.922   2.333  13.485 -0.8066 -2.4467 -0.0039
15462TIP3    H267802   3.998   2.256  13.591  1.5793 -1.2589 -0.7763
15463TIP3   OH267803   2.545   1.732   1.629  0.0822 -0.3651  0.4802
15463TIP3    H167804   2.547   1.645   1.669  1.3863 -1.1093 -1.1014
15463TIP3    H267805   2.543   1.793   1.703  2.4413 -1.6576  1.7249
15464TIP3   OH267806   2.086   6.007   3.958  0.2932  0.0145 -0.1875
15464TIP3    H167807   2.092   5.999   4.054  0.2263 -0.2162 -0.2039
15464TIP3    H267808   1.995   6.033   3.942  0.2140 -0.2756 -0.2115
15465TIP3   OH267809   5.193   1.221   2.058 -0.0723 -0.2266  0.3095
15465TIP3    H167810   5.159   1.194   1.973 -0.3962  1.8741 -0.2797
15465TIP3    H267811   5.272   1.167   2.070  1.0639  0.7162 -2.2342
15466TIP3   OH267812   6.720   2.728  11.883  0.1028 -0.0553  0.1102
15466TIP3    H167813   6.645   2.705  11.828  0.6458 -1.6965  0.0005
15466TIP3    H267814   6.795   2.726  11.824  0.3387  0.8842  0.3633
15467TIP3   OH267815   4.135   0.518  13.700  0.6493 -0.0416  0.2413
15467TIP3    H167816   4.186   0.561  13.631 -0.4747  1.4935  0.3090
15467TIP3    H267817   4.077   0.458  13.653 -0.9956  1.9080 -0.3324
15468TIP3   OH267818   2.103   0.379   2.865  0.3932  0.4358  0.3761
15468TIP3    H167819   2.193   0.350   2.847  0.4176  2.1009 -3.1255
15468TIP3    H267820   2.063   0.385   2.778 -3.9029 -2.2844  1.8633
15469TIP3   OH267821   1.757   0.715   3.106  0.0954 -0.4366  0.5528
15469TIP3    H167822   1.819   0.683   3.172  1.4460 -0.9539 -0.9163
15469TIP3    H267823   1.786   0.804   3.088  1.1239 -1.0243 -0.8915
15470TIP3   OH267824   2.046   1.927   3.083 -0.2977  0.2170  0.2897
15470TIP3    H167825   1.973   1.889   3.035 -0.3572 -1.4378  1.6034
15470TIP3    H267826   2.116   1.862   3.078  0.8259  1.4002 -0.2079
15471TIP3   OH267827   5.761   2.647   3.550 -0.3882  0.6232 -0.6243
15471TIP3    H167828   5.667   2.663   3.550 -0.1852  1.9783 -1.5860
15471TIP3    H267829   5.776   2.589   3.475 -0.5962 -0.6423  0.2923
15472TIP3   OH267830   5.593   0.448  13.931  0.0519 -0.2226 -0.4444
15472TIP3    H167831   5.579   0.525  13.876  0.5877 -0.8238 -1.4427
15472TIP3    H267832   5.517   0.447  13.990 -0.4252  0.5517 -1.0223
15473TIP3   OH267833   4.571   3.736  12.440  0.5512 -0.3429 -0.0176
15473TIP3    H167834   4.643   3.756  12.500  0.5315  0.0829 -0.1335
15473TIP3    H267835   4.579   3.642  12.423  1.7024 -0.1154 -0.8507
15474TIP3   OH267836   5.906   4.024  16.138 -0.2399  0.0621  0.8128
15474TIP3    H167837   5.862   4.063  16.062 -1.0535 -1.2868  0.5531
15474TIP3    H267838   5.997   4.052  16.130 -0.8828  2.3880  0.9867
15475TIP3   OH267839   4.643   0.086  11.220 -0.4098  0.2030  0.6505
15475TIP3    H167840   4.557   0.118  11.193 -0.3906  1.4445  1.8862
15475TIP3    H267841   4.696   0.089  11.141 -0.9323  1.5565  0.3179
15476TIP3   OH267842   4.384   4.242  12.127 -0.3117 -0.3269  0.1001
15476TIP3    H167843   4.417   4.218  12.214  0.7721  0.5820 -0.0546
15476TIP3    H267844   4.359   4.158  12.088 -0.4679 -0.7876  1.1314
15477TIP3   OH267845   4.947   1.161   5.014 -0.1785  0.1478 -0.3590
15477TIP3    H167846   4.956   1.090   4.952  0.8314 -1.0218  1.0555
15477TIP3    H267847   4.878   1.132   5.074 -1.9490  1.7510 -1.4940
15478TIP3   OH267848   0.341   2.022   4.221  0.8713 -0.1909 -0.1789
15478TIP3    H167849   0.393   1.958   4.172  0.2585 -1.4527  0.7807
15478TIP3    H267850   0.344   1.992   4.311 -0.9235  0.1067  0.0144
15479TIP3   OH267851   5.039   0.285   2.397 -0.1647  0.2592  0.3450
15479TIP3    H167852   4.986   0.262   2.321  2.5078 -1.6690 -1.0901
15479TIP3    H267853   5.009   0.373   2.421 -0.9117  1.0882 -3.1149
15480TIP3   OH267854   2.596   2.576   3.474 -0.0354  0.1561 -0.3196
15480TIP3    H167855   2.618   2.655   3.523 -1.3949 -0.0362  0.6799
15480TIP3    H267856   2.509   2.595   3.437  0.1831 -0.3976 -1.1320
15481TIP3   OH267857   1.724   2.241   2.778 -0.4128 -0.3845 -0.1908
15481TIP3    H167858   1.799   2.189   2.806  0.9307  2.1957  1.2967
15481TIP3    H267859   1.760   2.304   2.715 -1.1565  1.2752  0.9693
15482TIP3   OH267860   1.738   3.978  11.670 -0.1925  0.4136  0.1107
15482TIP3    H167861   1.728   3.887  11.642 -0.3297  0.2769  0.6053
15482TIP3    H267862   1.668   4.025  11.624  0.2574  0.3829 -0.6250
15483TIP3   OH267863   1.465   1.513   0.076 -0.5850  0.2975  0.4696
15483TIP3    H167864   1.514   1.474   0.148 -2.4698  2.8491  3.3594
15483TIP3    H267865   1.533   1.556   0.023  0.6826  0.7994  2.3660
15484TIP3   OH267866   3.843   5.476  13.091 -0.4176  0.1322 -0.0059
15484TIP3    H167867   3.789   5.545  13.129  1.0015 -0.5059  3.4919
15484TIP3    H267868   3.926   5.519  13.070  0.2836 -0.3197  1.6914
15485TIP3   OH267869   5.056   0.786  13.487 -0.2061 -0.9212 -0.5315
15485TIP3    H167870   4.964   0.767  13.506 -0.2444 -2.3343 -1.9356
15485TIP3    H267871   5.105   0.728  13.546 -0.1646  0.4147  0.7979
15486TIP3   OH267872   4.699   2.375  12.537 -0.0777  0.3277  0.3964
15486TIP3    H167873   4.704   2.301  12.598  0.6867 -0.8140 -0.9707
15486TIP3    H267874   4.784   2.417  12.543 -0.4452  1.0081  1.0277
15487TIP3   OH267875   4.409   3.330  10.409  0.3248 -0.2497 -0.2234
15487TIP3    H167876   4.464   3.366  10.339  0.5655  1.0510  0.6004
15487TIP3    H267877   4.347   3.401  10.429 -0.2158 -0.8849  0.3805
15488TIP3   OH267878   4.574   2.244  12.318  0.3439  0.4506 -0.3982
15488TIP3    H167879   4.506   2.301  12.281 -1.5812 -2.0443 -0.9834
15488TIP3    H267880   4.584   2.275  12.408 -1.8172  0.7361 -0.2067
15489TIP3   OH267881   4.840   1.034  16.171  0.0107  0.2250 -0.1605
15489TIP3    H167882   4.882   0.952  16.196 -1.7064 -1.0769 -1.3269
15489TIP3    H267883   4.789   1.013  16.093 -3.7220  1.3304  1.7184
15490TIP3   OH267884   2.277   3.645  12.874 -0.2780 -0.1842  0.2050
15490TIP3    H167885   2.367   3.628  12.847 -0.1389  0.7991 -0.0093
15490TIP3    H267886   2.282   3.729  12.921 -1.1994  0.2896 -0.5132
15491TIP3   OH267887   5.586   6.790   5.885  0.1323 -0.0361  0.1053
15491TIP3    H167888   5.518   6.855   5.900 -0.7578 -0.6914 -0.9398
15491TIP3    H267889   5.605   6.797   5.791  0.9371 -0.4252  0.2265
15492TIP3   OH267890   4.282   0.454   3.817 -0.2254 -0.2921 -0.1213
15492TIP3    H167891   4.231   0.531   3.790  0.4223 -0.2567 -1.3506
15492TIP3    H267892   4.373   0.483   3.809  0.0034 -0.7558  0.7782
15493TIP3   OH267893   0.367   6.597   4.712  0.1761 -0.5333 -0.8751
15493TIP3    H167894   0.350   6.525   4.773  1.3736  0.3539  0.5800
15493TIP3    H267895   0.280   6.625   4.683 -0.3964 -1.3588 -0.0214
15494TIP3   OH267896   3.206   4.626   1.758 -0.4987 -0.4031  0.0939
15494TIP3    H167897   3.187   4.548   1.810  1.8156 -0.3613  1.0806
15494TIP3    H267898   3.221   4.695   1.823 -3.2736  1.1609 -0.7527
15495TIP3   OH267899   4.253   0.939  12.182  0.1510 -0.5169  0.0708
15495TIP3    H167900   4.300   0.912  12.103 -0.0921 -3.3486  0.7649
15495TIP3    H267901   4.313   0.998  12.227  0.7042  0.3352 -1.7106
15496TIP3   OH267902   6.149   3.073  16.207  0.7414  0.0544 -0.4075
15496TIP3    H167903   6.172   2.996  16.155 -2.8191 -1.0942 -0.5759
15496TIP3    H267904   6.118   3.137  16.143  1.5786  0.8064 -0.0822
15497TIP3   OH267905   3.668   1.945   4.962 -1.1941 -0.1215  0.1473
15497TIP3    H167906   3.748   1.932   4.911 -0.5258 -1.4167  1.4478
15497TIP3    H267907   3.650   1.859   5.001 -0.9401  1.0426  3.0921
15498TIP3   OH267908   3.497   0.908  11.300 -0.2530 -0.3900 -0.2760
15498TIP3    H167909   3.458   0.968  11.236 -0.1123  0.8139  0.7244
15498TIP3    H267910   3.587   0.895  11.269  0.0374  0.7562  0.0292
15499TIP3   OH267911   3.613   1.861   1.349  0.8130  0.1424  0.0988
15499TIP3    H167912   3.620   1.845   1.255  2.2274 -1.1936  0.3843
15499TIP3    H267913   3.528   1.824   1.373  0.4563  0.4565 -0.6360
15500TIP3   OH267914   2.937   5.130   0.962 -0.3927  0.0347  0.0786
15500TIP3    H167915   2.877   5.200   0.933  0.1574  0.9664  1.1073
15500TIP3    H267916   2.932   5.065   0.892 -1.8431  0.5419 -0.3501
15501TIP3   OH267917   3.908   4.758   1.812  0.5498  0.1962 -0.2544
15501TIP3    H167918   3.850   4.778   1.738  0.7475  1.8768  0.0146
15501TIP3    H267919   3.850   4.720   1.878 -0.1424  1.2585 -0.2348
15502TIP3   OH267920   2.727   3.774   4.836  0.0313  0.3868 -0.0807
15502TIP3    H167921   2.633   3.759   4.842 -0.0321  0.4369 -0.8425
15502TIP3    H267922   2.735   3.866   4.811  0.2065 -0.0553 -1.7870
15503TIP3   OH267923   0.995   3.458  11.333 -0.3792  0.5978  0.2031
15503TIP3    H167924   0.985   3.530  11.395  0.8704  0.6701  0.3442
15503TIP3    H267925   1.041   3.496  11.259  2.0796 -0.4308  1.0937
15504TIP3   OH267926   6.482   2.068  13.470 -0.1967  0.1000  0.0963
15504TIP3    H167927   6.552   2.078  13.534 -1.7794  3.5962  1.5689
15504TIP3    H267928   6.407   2.036  13.521 -0.7868  0.4519 -0.5303
15505TIP3   OH267929   2.158   6.442  17.162  0.5368  0.5448  0.0073
15505TIP3    H167930   2.079   6.446  17.215  0.9118  0.3126  0.5893
15505TIP3    H267931   2.205   6.365  17.194  0.8387  0.4838 -0.5615
15506TIP3   OH267932   2.045   4.117   0.068  0.3724  0.0394  0.5746
15506TIP3    H167933   2.077   4.109  -0.022  2.3177 -0.8271  1.2933
15506TIP3    H267934   2.010   4.031   0.089  3.3267 -0.9859  1.8034
15507TIP3   OH267935   6.121   3.847   4.345 -0.1999  0.5732  0.3982
15507TIP3    H167936   6.164   3.773   4.388  1.1528  0.1185 -1.5939
15507TIP3    H267937   6.055   3.806   4.289  2.6574  0.3989 -3.2021
15508TIP3   OH267938   0.005   0.103  15.612 -0.6754 -0.5255  1.0909
15508TIP3    H167939  -0.043   0.113  15.530 -0.5143  1.2985  1.1717
15508TIP3    H267940  -0.062   0.080  15.676 -1.9853  3.8117  1.6004
15509TIP3   OH267941   4.138   0.654   3.711  0.0968 -0.4722  0.0041
15509TIP3    H167942   4.063   0.688   3.760 -1.0983 -2.0048 -0.6808
15509TIP3    H267943   4.148   0.714   3.637 -0.5632 -0.3380  0.0172
15510TIP3   OH267944   5.129   4.710  14.414  0.8761  0.3195 -0.0537
15510TIP3    H167945   5.097   4.670  14.494  1.1620 -0.4213 -0.2963
15510TIP3    H267946   5.218   4.739  14.435  0.5453  1.1264  0.2192
15511TIP3   OH267947   2.808   1.223   0.135 -0.5428 -0.3684  0.3397
15511TIP3    H167948   2.896   1.259   0.144 -0.8337  0.6584 -0.7151
15511TIP3    H267949   2.802   1.197   0.043 -1.2345 -0.7287  0.4831
15512TIP3   OH267950   6.398   0.110   1.196  0.5662  0.2843 -0.2750
15512TIP3    H167951   6.404   0.158   1.113 -0.0413  1.2214  0.2083
15512TIP3    H267952   6.475   0.137   1.245  0.0632  1.0236  0.1215
15513TIP3   OH267953   4.273   3.031  16.288  1.1438  0.2069 -0.3607
15513TIP3    H167954   4.223   2.973  16.345  0.7494  0.9725  0.0798
15513TIP3    H267955   4.365   3.009  16.306  1.1834  2.1409  2.5107
15514TIP3   OH267956   1.477   2.753  14.378  0.3620  0.4238 -0.0562
15514TIP3    H167957   1.546   2.734  14.442  0.4066  2.3245  0.5048
15514TIP3    H267958   1.513   2.724  14.294 -0.1346 -3.1941  0.8003
15515TIP3   OH267959   0.769   1.308  13.912 -0.6436  0.5730  0.0315
15515TIP3    H167960   0.774   1.217  13.882 -2.3967  0.8449 -1.2629
15515TIP3    H267961   0.676   1.329  13.908 -0.3323  2.2660  0.8565
15516TIP3   OH267962   4.744   5.492  10.332  0.2370  0.3295 -0.0600
15516TIP3    H167963   4.835   5.517  10.316  0.8410 -1.0716  0.9821
15516TIP3    H267964   4.748   5.398  10.351 -1.2781  0.4605  1.0582
15517TIP3   OH267965   2.380   2.328   2.664  0.2311 -0.2410 -0.0104
15517TIP3    H167966   2.401   2.255   2.721 -0.0673  0.4413  0.9941
15517TIP3    H267967   2.393   2.406   2.718 -2.8080  0.3356  0.0852
15518TIP3   OH267968   6.140   4.560   4.328 -0.0162 -0.0430 -0.6733
15518TIP3    H167969   6.167   4.478   4.369  1.4461  0.1508 -1.1945
15518TIP3    H267970   6.059   4.539   4.282  0.0261 -1.0376 -0.3131
15519TIP3   OH267971   6.655   5.111  15.396  0.2323  0.2699  0.0962
15519TIP3    H167972   6.607   5.164  15.332 -0.1532  0.9049  0.8907
15519TIP3    H267973   6.672   5.171  15.469 -0.4677 -0.7663  1.1580
15520TIP3   OH267974   4.682   4.966   6.062  0.1395 -0.3116  0.3434
15520TIP3    H167975   4.627   5.044   6.058  1.2318  0.4521 -0.6039
15520TIP3    H267976   4.655   4.913   5.987 -0.3622 -0.6879  0.7843
15521TIP3   OH267977   3.064   2.348  11.584  0.0960 -0.0774 -0.0456
15521TIP3    H167978   3.065   2.342  11.679 -0.2561 -1.5214 -0.1115
15521TIP3    H267979   3.078   2.441  11.566  1.8746 -0.0265  1.3657
15522TIP3   OH267980   4.821   0.742   5.258  0.2984 -0.4496 -0.0197
15522TIP3    H167981   4.911   0.773   5.248  0.5840 -1.6557 -1.5129
15522TIP3    H267982   4.827   0.672   5.323  0.3070 -0.0649  0.3999
15523TIP3   OH267983   2.026   1.704  16.740 -0.2456 -0.0088 -0.2511
15523TIP3    H167984   1.933   1.692  16.760 -0.1563  0.3460  0.4107
15523TIP3    H267985   2.027   1.737  16.650 -0.7616 -0.0264 -0.2661
15524TIP3   OH267986   1.216   0.784  13.607 -0.0624 -0.1933 -0.4110
15524TIP3    H167987   1.264   0.856  13.566  1.2582 -0.7475  0.1173
15524TIP3    H267988   1.126   0.796  13.577 -0.0663  2.1384  0.2666
15525TIP3   OH267989   1.998   0.263  14.896 -0.1258 -0.3130 -0.2851
15525TIP3    H167990   2.056   0.335  14.919  0.5425 -1.1308  0.7216
15525TIP3    H267991   2.051   0.207  14.838  0.6603 -1.7782  1.7292
15526TIP3   OH267992   0.534   1.844   0.159  0.2896  0.2438 -0.0801
15526TIP3    H167993   0.495   1.762   0.190 -1.1415  1.2787  0.9863
15526TIP3    H267994   0.498   1.855   0.071 -0.3097  0.2200  0.1575
15527TIP3   OH267995   1.389   6.269  11.997 -0.0491 -0.1809  0.6946
15527TIP3    H167996   1.299   6.243  12.015 -0.1866 -1.1746 -1.1821
15527TIP3    H267997   1.382   6.337  11.930  0.5850 -0.0213  0.7811
15528TIP3   OH267998   0.502   2.080   2.442 -0.3157  0.5373 -0.4803
15528TIP3    H167999   0.465   1.992   2.452 -0.7973  0.5690 -1.7385
15528TIP3    H268000   0.596   2.065   2.430 -0.3471  0.2190 -0.3494
15529TIP3   OH268001   0.133   4.558  13.996 -0.2755  0.1806  0.4628
15529TIP3    H168002   0.050   4.567  13.948  0.0009 -1.7683 -0.4928
15529TIP3    H268003   0.184   4.635  13.971 -0.8578  0.1461 -0.9144
15530TIP3   OH268004   2.865   0.966   4.553  0.7382  0.0747 -0.4005
15530TIP3    H168005   2.896   0.994   4.467  1.0370  0.5932 -0.1240
15530TIP3    H268006   2.804   0.894   4.533  3.1788 -1.9929 -0.8681
15531TIP3   OH268007   4.635   5.388   3.961  0.2750 -0.1943 -0.7060
15531TIP3    H168008   4.633   5.425   3.873  0.9688  2.0896  0.1724
15531TIP3    H268009   4.720   5.344   3.966  0.9434  1.0583 -0.6855
15532TIP3   OH268010   5.001   0.515   0.784 -0.3789  0.2927 -0.0691
15532TIP3    H168011   5.031   0.472   0.704 -0.7675  1.3128 -0.7810
15532TIP3    H268012   4.907   0.530   0.769 -0.8564 -1.0414  1.3006
15533TIP3   OH268013   1.975   3.759  13.444  0.0654 -0.1618 -0.0007
15533TIP3    H168014   1.972   3.701  13.367 -1.7574  0.7644 -0.6749
15533TIP3    H268015   1.994   3.845  13.408  2.7612 -0.2389  1.0022
15534TIP3   OH268016   1.962   5.706  12.156  0.6083 -0.2090 -0.2849
15534TIP3    H168017   1.977   5.645  12.084  0.9996 -0.7008  0.2049
15534TIP3    H268018   2.046   5.711  12.202  0.6073  0.7532 -0.3540
15535TIP3   OH268019   4.750   4.435  14.748  0.2664 -0.3143 -0.1555
15535TIP3    H168020   4.658   4.410  14.756  0.0621  0.2889 -0.5531
15535TIP3    H268021   4.780   4.445  14.838  0.0357 -0.8433 -0.0184
15536TIP3   OH268022   3.866   6.436  13.343  0.4203 -1.2101  0.7504
15536TIP3    H168023   3.943   6.489  13.365 -0.4592  0.1980  0.5470
15536TIP3    H268024   3.807   6.449  13.416  0.1223 -1.7810  0.6106
15537TIP3   OH268025   5.741   0.130   2.827 -0.3215 -0.2321 -0.4752
15537TIP3    H168026   5.690   0.180   2.763  0.5112 -0.9312 -1.7204
15537TIP3    H268027   5.735   0.040   2.797  0.3501 -0.5342  0.2698
15538TIP3   OH268028   5.897   2.076   5.882  0.0005 -0.3352  0.1705
15538TIP3    H168029   5.977   2.073   5.934 -1.2943 -1.1724  2.2330
15538TIP3    H268030   5.922   2.039   5.797  1.9701  0.2226  0.4741
15539TIP3   OH268031   2.854   0.176  12.874  0.4653  0.2339  0.0306
15539TIP3    H168032   2.780   0.118  12.889  0.1860  0.5920  0.0422
15539TIP3    H268033   2.826   0.261  12.909  0.8342  0.3987 -0.0692
15540TIP3   OH268034   3.035   4.981   0.277 -0.3626  0.4262 -0.2120
15540TIP3    H168035   3.116   5.004   0.231  1.4713 -1.1244  2.0449
15540TIP3    H268036   3.002   5.064   0.311  1.1839  0.9146  0.1661
15541TIP3   OH268037   1.705   0.086   5.587 -0.2179  0.6220  0.4246
15541TIP3    H168038   1.641   0.030   5.543 -0.8092  1.3480  0.3506
15541TIP3    H268039   1.755   0.026   5.642 -0.7341 -0.0010  0.2262
15542TIP3   OH268040   6.213   1.157   0.360 -0.0435  0.5210  0.5513
15542TIP3    H168041   6.130   1.114   0.343  0.5188 -0.1848 -0.5835
15542TIP3    H268042   6.254   1.107   0.430  0.0772 -0.0650  0.0674
15543TIP3   OH268043   4.114   3.559  13.050  0.5630  0.3754  0.6725
15543TIP3    H168044   4.023   3.560  13.022  0.5635  1.1024  0.6818
15543TIP3    H268045   4.120   3.629  13.115  1.4472  1.2899 -0.3513
15544TIP3   OH268046   6.339   2.723  11.415 -0.4741  0.5758  0.1255
15544TIP3    H168047   6.407   2.791  11.416  0.7318 -0.5795  1.6305
15544TIP3    H268048   6.334   2.695  11.323  0.8628  0.9099 -0.0677
15545TIP3   OH268049   4.605   2.728   3.713  0.9028  0.4506  0.4147
15545TIP3    H168050   4.618   2.682   3.630  1.3547  2.0581 -0.4511
15545TIP3    H268051   4.512   2.716   3.733  0.6844  0.4446 -0.5744
15546TIP3   OH268052   6.220   5.015   4.120  0.7399 -0.3290 -0.0978
15546TIP3    H168053   6.196   4.945   4.181  0.0116 -1.4141 -1.5761
15546TIP3    H268054   6.315   5.008   4.112  0.8218 -0.2859  0.7553
15547TIP3   OH268055   0.768   5.833   0.459  0.1257  0.9822 -0.3162
15547TIP3    H168056   0.734   5.825   0.549  0.0392 -0.0334 -0.4240
15547TIP3    H268057   0.775   5.743   0.429 -0.8000  1.3526 -1.6908
15548TIP3   OH268058   4.438   4.932  13.760 -0.0150 -0.7771 -0.3060
15548TIP3    H168059   4.509   4.946  13.822  0.0218 -0.7445 -0.3558
15548TIP3    H268060   4.416   4.839  13.769 -0.6745 -0.5612  0.4748
15549TIP3   OH268061   4.669   6.456   0.714  0.1062 -0.1705  0.1428
15549TIP3    H168062   4.672   6.550   0.734  0.8187  0.0030 -0.7139
15549TIP3    H268063   4.759   6.426   0.728  0.3919 -0.2576 -1.6613
15550TIP3   OH268064   1.500   2.874   4.940 -0.6417 -0.0736 -0.6894
15550TIP3    H168065   1.490   2.904   4.849 -2.7832 -1.8237 -1.1038
15550TIP3    H268066   1.559   2.799   4.934  0.0136  0.4108 -0.4616
15551TIP3   OH268067   5.263   5.060  17.183 -0.0209  0.2516  0.0125
15551TIP3    H168068   5.268   5.149  17.149  0.6344  0.7752  1.3945
15551TIP3    H268069   5.210   5.067  17.263 -1.2174 -0.8686 -0.6453
15552TIP3   OH268070   1.512   6.160   2.648  0.0573 -0.1308  0.4652
15552TIP3    H168071   1.526   6.220   2.721  0.0529  1.0315 -0.4583
15552TIP3    H268072   1.439   6.105   2.675 -0.7598  1.1058  0.8347
15553TIP3   OH268073   5.505   4.102  13.116 -0.6426  0.0337 -0.8183
15553TIP3    H168074   5.454   4.169  13.160 -0.5555 -0.2213 -0.3216
15553TIP3    H268075   5.459   4.087  13.033 -0.6138  0.7568 -0.9681
15554TIP3   OH268076   1.825   1.404   4.373  0.2362  0.0099 -0.8330
15554TIP3    H168077   1.754   1.341   4.386 -0.7136  1.3201  0.8656
15554TIP3    H268078   1.903   1.360   4.405 -0.4821 -0.2211  0.7297
15555TIP3   OH268079   5.057   6.186  12.629  0.3651  0.1804  0.5377
15555TIP3    H168080   5.027   6.152  12.545 -0.3230 -0.0843  0.8785
15555TIP3    H268081   5.151   6.198  12.618  0.0760  1.5948 -0.7643
15556TIP3   OH268082   0.211   6.669  11.485 -0.7710 -0.0699 -0.0094
15556TIP3    H168083   0.134   6.726  11.494 -0.2762  0.5535  0.4081
15556TIP3    H268084   0.257   6.677  11.569 -0.2685 -0.4561 -0.2402
15557TIP3   OH268085   1.740   5.266  16.813  0.1781 -0.1053  0.4448
15557TIP3    H168086   1.835   5.254  16.822 -0.1248 -3.2281  0.6504
15557TIP3    H268087   1.702   5.203  16.874 -2.1075  2.1775  1.5484
15558TIP3   OH268088   2.671   4.660  15.120  0.1268  0.4642  0.0108
15558TIP3    H168089   2.640   4.749  15.104 -2.3331 -0.4591 -0.7301
15558TIP3    H268090   2.631   4.607  15.051 -1.6405 -1.8288  2.5869
15559TIP3   OH268091   1.093   6.279  11.644 -0.3468 -0.2603  0.3778
15559TIP3    H168092   1.037   6.258  11.719 -0.2209 -0.6909  0.3579
15559TIP3    H268093   1.038   6.331  11.587 -0.3548  0.3204  0.9056
15560TIP3   OH268094   3.014   6.500   0.885 -0.2256 -0.5241  0.6942
15560TIP3    H168095   3.006   6.579   0.938  1.0072 -0.1301  0.3302
15560TIP3    H268096   2.987   6.429   0.943  1.3361 -0.1430  1.9737
15561TIP3   OH268097   3.677   0.330  11.172 -0.6380  0.2854  0.3569
15561TIP3    H168098   3.596   0.381  11.170 -0.5626  0.4109  0.5340
15561TIP3    H268099   3.745   0.392  11.198 -0.5412  0.1019  0.5500
15562TIP3   OH268100   1.978   3.758   2.454 -0.1451  0.0608  0.1889
15562TIP3    H168101   1.919   3.687   2.432 -1.2669  0.7502  0.9071
15562TIP3    H268102   1.933   3.838   2.426  0.3323  0.6207  0.9437
15563TIP3   OH268103   5.245   5.302  14.533 -0.1470 -0.1132 -0.4714
15563TIP3    H168104   5.286   5.253  14.462  0.8401 -0.1438  0.1002
15563TIP3    H268105   5.314   5.312  14.599 -0.8741  0.4086  0.2396
15564TIP3   OH268106   5.779   0.914   5.675  0.2844  0.0926 -0.2875
15564TIP3    H168107   5.764   0.940   5.765 -0.6486  1.4232 -0.7884
15564TIP3    H268108   5.819   0.990   5.634 -1.5878  0.4807 -1.5614
15565TIP3   OH268109   6.268   5.688   5.697  0.7002 -0.2488  0.2145
15565TIP3    H168110   6.300   5.778   5.689  2.2221 -0.7701  0.1407
15565TIP3    H268111   6.321   5.649   5.766  1.4719 -1.6771 -1.1166
15566TIP3   OH268112   1.843   0.969  14.677 -1.2016 -0.3696  0.2809
15566TIP3    H168113   1.856   1.028  14.752  1.7698 -0.9760  0.3432
15566TIP3    H268114   1.853   1.025  14.600 -2.2179 -0.1414  0.2897
15567TIP3   OH268115   5.159   5.427   0.788  0.0557  0.6381  0.1598
15567TIP3    H168116   5.118   5.341   0.780  1.5377 -0.0391 -0.5880
15567TIP3    H268117   5.200   5.426   0.875 -1.1991  1.1925  0.7753
15568TIP3   OH268118   1.372   6.531  16.029  0.3567  0.5671  0.2660
15568TIP3    H168119   1.289   6.571  16.003  0.4549  1.6262  1.4666
15568TIP3    H268120   1.352   6.438  16.037 -0.7029  0.7938  0.4412
15569TIP3   OH268121   3.897   6.280  12.601 -0.0487  0.1916  0.8306
15569TIP3    H168122   3.914   6.189  12.574 -0.0534  0.2154  0.7471
15569TIP3    H268123   3.837   6.313  12.535 -0.7370 -0.0153  1.3465
15570TIP3   OH268124   5.979   0.150  14.386  0.1159  0.7198 -0.3426
15570TIP3    H168125   6.001   0.165  14.294  1.0517  1.5209 -0.0128
15570TIP3    H268126   5.885   0.133  14.386  0.1492  0.4530 -1.4717
15571TIP3   OH268127   2.906   5.218   0.340  0.5016  0.3763 -0.0120
15571TIP3    H168128   2.939   5.301   0.373  2.3689 -1.1002  2.1345
15571TIP3    H268129   2.836   5.194   0.401  1.6396 -0.7230  0.9330
15572TIP3   OH268130   6.694   4.424   2.469 -0.7508 -0.8805  0.1910
15572TIP3    H168131   6.691   4.451   2.561 -0.3912  1.0820 -0.3300
15572TIP3    H268132   6.628   4.354   2.462 -1.6483 -0.2307  1.6846
15573TIP3   OH268133   3.978   4.321  15.274 -0.4773 -0.0685 -0.3500
15573TIP3    H168134   4.034   4.245  15.292  1.3445  1.2915  0.0856
15573TIP3    H268135   3.906   4.314  15.337  0.0864 -1.0074  0.2099
15574TIP3   OH268136   4.768   2.703  14.357 -0.4190 -0.2941 -0.0685
15574TIP3    H168137   4.825   2.630  14.379  1.0526  0.7592 -0.2884
15574TIP3    H268138   4.793   2.773  14.417 -2.3252 -0.1639  0.6609
15575TIP3   OH268139   0.509   6.058  13.826  0.1494 -0.2639 -0.5977
15575TIP3    H168140   0.507   5.977  13.776 -0.1179 -0.3299 -0.4778
15575TIP3    H268141   0.462   6.121  13.771 -1.0624 -0.5939  0.0260
15576TIP3   OH268142   1.440   2.945  14.763 -0.2373  0.3160 -0.3292
15576TIP3    H168143   1.434   2.937  14.668 -1.9533 -0.7372 -0.1696
15576TIP3    H268144   1.527   2.983  14.778  0.2486  0.0971 -2.2808
15577TIP3   OH268145   4.897   1.983   0.483 -0.2583  0.1955 -0.2664
15577TIP3    H168146   4.812   2.028   0.481 -0.5454 -0.3383 -0.2608
15577TIP3    H268147   4.888   1.920   0.555  0.4555  0.7338  0.3089
15578TIP3   OH268148   4.507   5.251   5.362  0.6384  0.2041  0.0382
15578TIP3    H168149   4.472   5.188   5.299 -1.4148  0.3994  0.8912
15578TIP3    H268150   4.453   5.329   5.350  0.7678  0.5290  1.4359
15579TIP3   OH268151   2.735   0.575  11.002  0.0359 -0.0170  0.0300
15579TIP3    H168152   2.741   0.486  11.035  2.0514 -0.2083 -0.6688
15579TIP3    H268153   2.674   0.619  11.061 -0.0440 -1.5362  1.1374
15580TIP3   OH268154   1.394   3.501   1.983  0.3823  0.4365 -0.0116
15580TIP3    H168155   1.416   3.407   1.983  1.7424  0.7322 -0.2588
15580TIP3    H268156   1.366   3.519   2.072  0.1757 -0.1969  0.0587
15581TIP3   OH268157   5.953   2.877  11.416  0.8732 -0.6187 -0.0281
15581TIP3    H168158   6.011   2.905  11.487  0.4108 -2.0909  0.9814
15581TIP3    H268159   5.883   2.828  11.459  0.3965 -1.2852 -1.4712
15582TIP3   OH268160   1.921   6.407   3.079 -0.2405 -0.2978 -0.2104
15582TIP3    H168161   1.852   6.458   3.036 -0.7869  0.0615  1.0509
15582TIP3    H268162   1.885   6.386   3.165  0.7128 -1.2522 -0.0290
15583TIP3   OH268163   5.707   5.419  10.200 -0.0897  0.5071  0.3494
15583TIP3    H168164   5.765   5.361  10.151  0.7389  0.9985  0.7103
15583TIP3    H268165   5.621   5.408  10.160  0.5958  1.0759 -1.3866
15584TIP3   OH268166   2.921   4.603   5.856 -0.1762  0.1344  0.1371
15584TIP3    H168167   2.826   4.601   5.859 -0.1510 -1.7072  0.7086
15584TIP3    H268168   2.945   4.530   5.799  0.8751  2.2810 -2.4054
15585TIP3   OH268169   2.061   3.337   4.286 -0.3589  0.1309 -0.1270
15585TIP3    H168170   2.118   3.406   4.320  0.0763 -0.3544  0.1459
15585TIP3    H268171   2.038   3.285   4.363 -0.1279 -0.4222 -0.4193
15586TIP3   OH268172   5.742   2.336  12.146  0.5894  0.6278 -0.8490
15586TIP3    H168173   5.742   2.389  12.226 -0.8624  1.7053 -1.5010
15586TIP3    H268174   5.758   2.399  12.076  0.7400 -0.1213 -1.4980
15587TIP3   OH268175   1.313   4.027  14.757  0.4545 -0.1794  0.1454
15587TIP3    H168176   1.318   4.010  14.662 -0.3594  0.4317 -0.0173
15587TIP3    H268177   1.388   3.981  14.793  0.4797 -0.8618 -0.7400
15588TIP3   OH268178   4.964   0.940   4.826 -0.3103  0.3885  0.0725
15588TIP3    H168179   5.019   0.868   4.858  1.8291  0.9824 -2.0296
15588TIP3    H268180   4.875   0.907   4.835  0.5489 -2.1033  0.2102
15589TIP3   OH268181   6.733   4.297  11.906 -0.4377 -0.1844 -0.1600
15589TIP3    H168182   6.673   4.295  11.980  1.0013  1.6286  1.1588
15589TIP3    H268183   6.763   4.207  11.897  0.9857 -0.1404  2.9390
15590TIP3   OH268184   0.044   6.558   4.650 -0.0165  0.5520  0.2300
15590TIP3    H168185   0.090   6.476   4.633  0.5913  1.0918 -0.8396
15590TIP3    H268186   0.077   6.618   4.584 -2.9787  0.7432 -1.2240
15591TIP3   OH268187   2.475   3.313   3.773 -0.4394 -0.2961 -0.1522
15591TIP3    H168188   2.561   3.326   3.734  0.3414 -0.7910  1.3220
15591TIP3    H268189   2.483   3.351   3.861 -1.4925 -0.9871  0.2577
15592TIP3   OH268190   2.582   4.307   0.404  0.3920  0.1245 -0.1491
15592TIP3    H168191   2.602   4.326   0.312 -1.0027 -0.8577 -0.6835
15592TIP3    H268192   2.558   4.392   0.441  0.5275  0.4569 -0.8056
15593TIP3   OH268193   4.822   1.838  13.832 -0.2801  0.0732 -0.2103
15593TIP3    H168194   4.767   1.902  13.877 -0.4162  1.4501 -2.1743
15593TIP3    H268195   4.777   1.824  13.748 -0.1706 -2.5327  0.1014
15594TIP3   OH268196   1.827   2.279  16.267 -0.7910  0.1489  0.4316
15594TIP3    H168197   1.874   2.359  16.292  0.5158 -0.3377 -0.3620
15594TIP3    H268198   1.801   2.294  16.177 -0.4284 -0.3559  0.2359
15595TIP3   OH268199   5.064   1.421   5.115  0.2688  0.0007  0.4034
15595TIP3    H168200   4.976   1.459   5.113 -0.1210 -0.8526  0.8614
15595TIP3    H268201   5.050   1.328   5.098  1.2266  0.0685 -0.9776
15596TIP3   OH268202   3.082   4.797  12.515 -0.5358 -0.1729 -0.1686
15596TIP3    H168203   3.112   4.842  12.594 -0.8353  0.6470 -0.5164
15596TIP3    H268204   3.159   4.791  12.459 -1.0111  2.3173 -1.2478
15597TIP3   OH268205   5.970   3.885   5.785  0.4145 -0.0050  0.2088
15597TIP3    H168206   5.925   3.801   5.784  0.8270 -0.2465  1.1215
15597TIP3    H268207   6.026   3.884   5.707 -1.3394  0.4290 -1.1388
15598TIP3   OH268208   0.944   1.234  15.567 -0.3021 -0.0614  0.5749
15598TIP3    H168209   0.988   1.154  15.594 -0.5725  0.2710  2.1467
15598TIP3    H268210   0.984   1.302  15.622 -0.0445  0.8967 -0.7559
15599TIP3   OH268211   0.402   5.922  11.932 -0.5898 -0.2598 -0.6563
15599TIP3    H168212   0.453   5.897  12.009 -0.5375 -1.6756 -1.1198
15599TIP3    H268213   0.462   5.907  11.858 -1.6382 -2.0016 -1.2187
15600TIP3   OH268214   3.914   5.120   6.388 -0.4179 -0.1194  0.7607
15600TIP3    H168215   3.939   5.211   6.403 -0.8341  0.0699  0.3481
15600TIP3    H268216   3.996   5.073   6.375 -0.1411  0.0101  1.9660
15601TIP3   OH268217   2.069   1.725  16.328 -0.6396 -0.9651  0.4215
15601TIP3    H168218   1.996   1.760  16.379 -1.8251 -0.5321 -1.4706
15601TIP3    H268219   2.133   1.796  16.326 -1.5387 -0.1415 -0.4930
15602TIP3   OH268220   2.536   5.795   6.347 -0.4342  0.1229  0.9571
15602TIP3    H168221   2.531   5.762   6.436  0.8689 -1.1949  0.5787
15602TIP3    H268222   2.614   5.754   6.310  0.0701  2.0069 -0.2409
15603TIP3   OH268223   2.084   6.518   5.384  0.1056 -0.1893 -0.5471
15603TIP3    H168224   2.139   6.465   5.441 -0.0652 -0.0399 -0.2459
15603TIP3    H268225   2.013   6.459   5.357 -0.0130 -0.1532 -0.3165
15604TIP3   OH268226   5.403   6.349  14.068  0.4290  0.0153  0.5119
15604TIP3    H168227   5.460   6.285  14.110 -0.1143 -0.6292  0.2808
15604TIP3    H268228   5.434   6.352  13.977 -0.4404 -0.9780  0.1674
15605TIP3   OH268229   5.594   2.466  12.537  0.5699  0.3899  0.3109
15605TIP3    H168230   5.610   2.379  12.502  1.0198 -0.1041  1.6917
15605TIP3    H268231   5.597   2.455  12.632  1.3642  2.0450  0.5086
15606TIP3   OH268232   2.500   3.634   1.006  0.2770 -0.3726 -0.7035
15606TIP3    H168233   2.449   3.624   0.926  1.2782 -2.5893 -1.1416
15606TIP3    H268234   2.587   3.660   0.976  0.2307  0.4124 -0.1923
15607TIP3   OH268235   4.584   6.699   5.389  0.5217 -0.3724  0.2173
15607TIP3    H168236   4.658   6.741   5.346  0.5209 -0.7979 -0.2168
15607TIP3    H268237   4.624   6.647   5.459  0.5729 -0.0896  0.3978
15608TIP3   OH268238   1.054   3.232  13.104  0.1658 -0.0091  0.0454
15608TIP3    H168239   1.134   3.191  13.135  0.0124  0.6280  1.4078
15608TIP3    H268240   1.073   3.261  13.015  0.7199 -1.7394 -0.4338
15609TIP3   OH268241   5.046   0.045   3.233 -0.5841 -0.8829  0.3700
15609TIP3    H168242   5.128   0.096   3.238 -0.2858 -1.2751 -0.4065
15609TIP3    H268243   5.072  -0.044   3.257 -1.3356 -0.4847  2.9612
15610TIP3   OH268244   0.898   0.866  14.650  0.0133  0.1249  0.1320
15610TIP3    H168245   0.897   0.861  14.554 -2.6454  1.0089  0.0346
15610TIP3    H268246   0.991   0.859  14.673  0.5721 -2.5849 -2.3151
15611TIP3   OH268247   3.779   1.508   3.344 -0.1889  0.4772 -0.4852
15611TIP3    H168248   3.822   1.572   3.287  0.3419  1.2380  0.7160
15611TIP3    H268249   3.732   1.562   3.408 -0.7538 -0.3509 -0.1920
15612TIP3   OH268250   4.906   5.115   2.210 -0.0112 -0.0291  0.3788
15612TIP3    H168251   4.868   5.185   2.263 -1.6995 -0.0666 -0.7110
15612TIP3    H268252   4.834   5.053   2.196  0.8513 -0.8690 -0.5442
15613TIP3   OH268253   6.375   3.905   5.739  0.1870 -0.1496  0.0968
15613TIP3    H168254   6.430   3.908   5.818 -0.1533  0.6556  0.3136
15613TIP3    H268255   6.404   3.980   5.687  1.1467 -1.2699 -1.0715
15614TIP3   OH268256   5.816   3.917   3.573 -0.6333 -0.1195  0.1457
15614TIP3    H168257   5.813   4.007   3.543 -2.2015 -0.9045 -2.3046
15614TIP3    H268258   5.824   3.865   3.493 -1.2256 -2.2161  1.3719
15615TIP3   OH268259   5.750   4.158   4.417  0.3360  0.0498 -0.0769
15615TIP3    H168260   5.816   4.097   4.386 -0.1482 -0.2991 -0.4383
15615TIP3    H268261   5.725   4.124   4.503 -0.4724 -0.7178 -0.5880
15616TIP3   OH268262   4.669   4.412   0.178  0.4011 -0.2729 -0.2607
15616TIP3    H168263   4.743   4.356   0.155  0.2255 -0.3001 -0.7759
15616TIP3    H268264   4.659   4.470   0.103 -0.0727 -0.2410 -0.1731
15617TIP3   OH268265   0.046   6.513  12.915  0.1333  0.2649  0.1505
15617TIP3    H168266   0.039   6.469  12.999  0.7464 -1.1418 -0.4949
15617TIP3    H268267   0.118   6.574  12.925 -0.4088  0.7918  0.9176
15618TIP3   OH268268   5.335   3.721   1.851  0.0951 -0.0808  0.5066
15618TIP3    H168269   5.364   3.727   1.760 -1.7794  0.3577 -0.1147
15618TIP3    H268270   5.260   3.660   1.848 -2.0207  2.3106  1.1628
15619TIP3   OH268271   5.478   2.032   6.621 -0.0099 -0.1157 -0.1582
15619TIP3    H168272   5.487   1.976   6.544  0.5862  0.0555 -0.2197
15619TIP3    H268273   5.450   1.973   6.691 -0.3389 -0.3099 -0.4540
15620TIP3   OH268274   5.344   6.015   4.235 -0.4994 -0.1982  0.4064
15620TIP3    H168275   5.432   6.033   4.202 -0.4074  0.9614  1.2139
15620TIP3    H268276   5.310   5.946   4.178  0.5756  0.0031 -0.5043
15621TIP3   OH268277   0.628   4.067   1.422 -0.3164  0.3570 -0.5817
15621TIP3    H168278   0.607   4.151   1.463  0.1666 -0.3760  1.3030
15621TIP3    H268279   0.588   4.071   1.336  0.1252  2.7151 -0.7501
15622TIP3   OH268280   3.765   2.103   5.160  0.1554  0.4503  0.5178
15622TIP3    H168281   3.728   2.032   5.107  1.7781 -0.0052 -0.0753
15622TIP3    H268282   3.719   2.181   5.130  1.3354  0.2949 -2.0257
15623TIP3   OH268283   0.002   3.300   3.848 -0.5549  0.1556  0.6804
15623TIP3    H168284  -0.064   3.262   3.790 -0.7458 -0.1303  1.0776
15623TIP3    H268285   0.059   3.227   3.871 -0.3572  0.3102  0.6897
15624TIP3   OH268286   5.507   2.830   4.006 -0.3339 -0.2709  0.3395
15624TIP3    H168287   5.481   2.901   3.948 -0.2981  0.2786  0.9813
15624TIP3    H268288   5.460   2.848   4.088  2.0160  0.7610  1.5430
15625TIP3   OH268289   3.728   0.946  10.646 -0.0894  0.2393  0.1032
15625TIP3    H168290   3.804   0.888  10.650 -1.2936 -1.3599  0.6852
15625TIP3    H268291   3.710   0.955  10.553 -1.1118 -2.0855 -0.0057
15626TIP3   OH268292   5.713   1.504   5.368  0.6886 -0.5457  0.4883
15626TIP3    H168293   5.795   1.548   5.388 -0.0344  0.3782  1.5370
15626TIP3    H268294   5.721   1.478   5.276  2.4076 -1.0845  0.7616
15627TIP3   OH268295   5.585   3.740  15.900 -0.1883 -0.1861 -0.5599
15627TIP3    H168296   5.678   3.723  15.911 -0.6507 -2.1464  0.7355
15627TIP3    H268297   5.580   3.835  15.887  1.7422  0.5702  2.8512
15628TIP3   OH268298   0.697   5.472   1.578 -1.0963 -0.5402 -0.0287
15628TIP3    H168299   0.689   5.556   1.623  0.9735  0.0394 -0.6552
15628TIP3    H268300   0.640   5.479   1.502  0.0647  0.8607 -0.8197
15629TIP3   OH268301   1.528   5.353  10.271 -0.8269  0.2960 -0.0450
15629TIP3    H168302   1.558   5.262  10.279  1.7594  0.8612 -2.0580
15629TIP3    H268303   1.526   5.385  10.361  0.1024 -1.1942  0.5542
15630TIP3   OH268304   4.243   2.324   3.756  0.6271  0.5246 -0.2000
15630TIP3    H168305   4.196   2.261   3.702  0.6590 -0.0079  0.3882
15630TIP3    H268306   4.331   2.287   3.766  1.5858  2.0675 -2.2576
15631TIP3   OH268307   4.923   5.097   6.107  0.1857 -0.0308 -0.0266
15631TIP3    H168308   4.898   5.187   6.128  0.6694  0.3942 -1.2168
15631TIP3    H268309   4.840   5.051   6.092 -0.0304  0.3920 -0.1314
15632TIP3   OH268310   1.845   1.348  16.979 -0.1714  0.0512  0.1982
15632TIP3    H168311   1.792   1.364  16.901  0.9185  1.7681 -0.2384
15632TIP3    H268312   1.878   1.259  16.967  1.1046  0.7535 -2.0329
15633TIP3   OH268313   4.603   0.007   0.416 -0.2811 -0.4757 -0.2394
15633TIP3    H168314   4.524  -0.045   0.403 -1.9038  1.3277  1.7291
15633TIP3    H268315   4.577   0.096   0.392  0.8361  0.3324  1.3574
15634TIP3   OH268316   0.272   6.086  11.326 -0.3603  0.1754 -0.1396
15634TIP3    H168317   0.206   6.098  11.257 -1.0543  1.2457  0.6918
15634TIP3    H268318   0.238   6.015  11.380 -0.1510 -0.1993 -0.4948
15635TIP3   OH268319   5.443   4.866   0.275 -0.2745  0.2926  0.2868
15635TIP3    H168320   5.495   4.852   0.353  0.0677  0.1374  0.0345
15635TIP3    H268321   5.496   4.830   0.204 -0.5005  0.5894 -0.0375
15636TIP3   OH268322   0.093   2.166  12.908 -0.3329 -0.0257  0.4015
15636TIP3    H168323   0.133   2.082  12.885  1.7343  0.7737  0.9038
15636TIP3    H268324   0.001   2.144  12.926 -0.7428 -1.6015 -2.8911
15637TIP3   OH268325   2.992   5.379  12.910 -0.4614  0.0954  0.4078
15637TIP3    H168326   3.049   5.454  12.891 -2.5424  1.3883 -1.0380
15637TIP3    H268327   2.961   5.349  12.825 -0.6504 -1.6655  1.0493
15638TIP3   OH268328   4.038   5.242  11.810  0.2587 -0.4091  0.7188
15638TIP3    H168329   4.073   5.211  11.893 -0.2772 -1.2651  0.6449
15638TIP3    H268330   4.114   5.269  11.759  0.7514 -1.4802  0.8604
15639TIP3   OH268331   0.582   0.431   3.129 -0.2948  0.5127  0.5677
15639TIP3    H168332   0.641   0.388   3.067 -1.2440  1.3162 -0.9638
15639TIP3    H268333   0.634   0.443   3.208  0.4993 -1.9807  0.5260
15640TIP3   OH268334   1.330   1.286   4.180  0.4950  0.0759 -0.5730
15640TIP3    H168335   1.354   1.340   4.105  1.9151 -0.4531 -0.5268
15640TIP3    H268336   1.324   1.347   4.253  0.5978  0.3717 -0.8102
15641TIP3   OH268337   0.772   2.756   2.114 -0.4254  0.9031 -0.0816
15641TIP3    H168338   0.769   2.675   2.062 -0.4019  1.3487 -0.7905
15641TIP3    H268339   0.863   2.786   2.107 -0.1637  0.4368  1.0647
15642TIP3   OH268340   3.169   0.458   1.279 -0.0534  0.4012 -0.5334
15642TIP3    H168341   3.120   0.380   1.306  1.4229 -0.7467 -1.0332
15642TIP3    H268342   3.121   0.531   1.319 -0.1734 -0.9038  1.9542
15643TIP3   OH268343   1.426   6.459  12.700 -0.1343 -0.1389 -0.7537
15643TIP3    H168344   1.389   6.465  12.788  0.2392  3.0280 -0.7097
15643TIP3    H268345   1.519   6.477  12.711  0.0777 -0.5865 -1.7104
15644TIP3   OH268346   2.966   0.503   6.140 -0.1920  0.3649  0.0375
15644TIP3    H168347   2.912   0.573   6.103 -1.5571 -0.2322  0.7894
15644TIP3    H268348   3.004   0.540   6.219 -2.4749 -0.2267  1.5280
15645TIP3   OH268349   0.799   4.662   4.011  0.1741 -0.3473 -0.5062
15645TIP3    H168350   0.787   4.626   4.099 -1.1279  1.8318  0.2882
15645TIP3    H268351   0.790   4.587   3.953  0.0501 -1.6843  1.1540
15646TIP3   OH268352   4.005   4.140  14.888 -0.2348  0.0693  0.3084
15646TIP3    H168353   4.001   4.136  14.792 -0.1547  2.0938  0.1707
15646TIP3    H268354   3.958   4.221  14.910  2.2624  1.2462  1.7495
15647TIP3   OH268355   6.733   4.152  16.716 -0.0379 -0.4040  0.4306
15647TIP3    H168356   6.709   4.147  16.623 -0.6942 -0.8002  0.6131
15647TIP3    H268357   6.680   4.084  16.758 -0.0725  0.0640  1.1650
15648TIP3   OH268358   0.605   2.313   4.223 -0.2636 -0.1839 -0.3266
15648TIP3    H168359   0.529   2.313   4.165 -1.1744 -1.8236  0.7843
15648TIP3    H268360   0.575   2.358   4.302  0.5568  0.8952 -0.6132
15649TIP3   OH268361   1.846   2.264  16.647 -0.3156  0.4256 -0.1288
15649TIP3    H168362   1.815   2.300  16.564  0.1910 -0.3225 -0.6635
15649TIP3    H268363   1.891   2.336  16.689 -0.8694  0.9098 -0.3448
15650TIP3   OH268364   1.323   3.214   5.577  0.1451  0.3457  0.1431
15650TIP3    H168365   1.287   3.227   5.489  0.1373  1.8695  0.3472
15650TIP3    H268366   1.418   3.212   5.564  0.1094 -0.9209 -0.0587
15651TIP3   OH268367   5.642   1.253  13.951  0.4581  0.0497  0.2744
15651TIP3    H168368   5.655   1.266  14.045 -0.3561 -0.0948  0.4149
15651TIP3    H268369   5.620   1.160  13.943 -1.4465  0.4658  0.1906
15652TIP3   OH268370   1.702   4.087  15.521 -0.1187  0.1812  0.0273
15652TIP3    H168371   1.750   4.100  15.440 -0.4339  0.8614 -0.0531
15652TIP3    H268372   1.763   4.039  15.578  0.4783  0.6119 -0.2431
15653TIP3   OH268373   4.524   4.058  15.970 -0.2710  0.2965  0.7315
15653TIP3    H168374   4.483   4.007  16.040  1.0819 -0.6228  0.9019
15653TIP3    H268375   4.474   4.035  15.892 -0.6489 -0.1059  1.0780
15654TIP3   OH268376   5.415   4.470   4.221 -0.2334 -0.2992  0.1689
15654TIP3    H168377   5.393   4.390   4.173  1.1745 -1.8059  1.8794
15654TIP3    H268378   5.338   4.526   4.212 -0.3122 -0.7521 -3.1804
15655TIP3   OH268379   6.690   3.513  16.977  0.0247  0.1554  0.0323
15655TIP3    H168380   6.698   3.550  16.889  1.0522 -0.3476 -0.0915
15655TIP3    H268381   6.719   3.423  16.967  0.0195  0.0612  0.8691
15656TIP3   OH268382   1.517   4.325  16.503 -0.7480  0.5991 -0.2031
15656TIP3    H168383   1.496   4.315  16.410 -0.9752  1.7792 -0.2948
15656TIP3    H268384   1.609   4.299  16.509 -0.7547  0.4288 -0.7362
15657TIP3   OH268385   3.692   1.808  15.673 -0.0828 -0.1558 -0.1833
15657TIP3    H168386   3.751   1.809  15.598  1.6468 -2.3341  1.0397
15657TIP3    H268387   3.646   1.725  15.667 -1.1879  0.3971  0.2838
15658TIP3   OH268388   1.404   5.339   0.981 -0.2644 -0.0069  0.1090
15658TIP3    H168389   1.454   5.411   0.943  0.5871 -0.0167  1.1461
15658TIP3    H268390   1.432   5.262   0.932 -0.4250  0.2215 -0.3436
15659TIP3   OH268391   0.765   2.200   1.630  0.2054  0.1627  0.1008
15659TIP3    H168392   0.674   2.172   1.620 -0.2968  1.6554  0.2088
15659TIP3    H268393   0.816   2.133   1.585 -1.0277 -0.1761 -0.8502
15660TIP3   OH268394   0.820   1.556  14.259  0.1403 -0.1119 -0.1542
15660TIP3    H168395   0.742   1.590  14.302  0.4449  1.4870 -0.7891
15660TIP3    H268396   0.865   1.505  14.327 -0.8817 -0.1144  0.5307
15661TIP3   OH268397   5.910   2.111  16.310  0.5150 -0.5552  0.6278
15661TIP3    H168398   5.885   2.025  16.275 -1.0810 -0.0959  0.5807
15661TIP3    H268399   5.999   2.125  16.277 -0.3639 -0.7756 -2.1169
15662TIP3   OH268400   2.944   2.260  16.369 -0.2298  0.1120 -0.1392
15662TIP3    H168401   2.994   2.187  16.333  1.3907  1.2217 -0.2048
15662TIP3    H268402   2.914   2.228  16.455  0.9711 -0.4158  0.1013
15663TIP3   OH268403   4.118   2.131  10.556  0.4400  0.2864  0.3798
15663TIP3    H168404   4.077   2.046  10.541  1.5941 -0.4207  1.0273
15663TIP3    H268405   4.205   2.109  10.589  0.7148  1.7311  0.6644
15664TIP3   OH268406   5.528   1.696   0.880  0.0008 -0.2518  0.6206
15664TIP3    H168407   5.438   1.712   0.910  0.1958  1.0956  0.5539
15664TIP3    H268408   5.570   1.782   0.886  0.3427 -0.1094 -2.5830
15665TIP3   OH268409   5.917   4.173   1.417 -0.1742 -0.3639  0.0110
15665TIP3    H168410   5.852   4.169   1.488  0.0238  0.6850  0.2683
15665TIP3    H268411   5.866   4.162   1.337 -0.2431 -2.9610  0.3406
15666TIP3   OH268412   6.354   3.217  16.533 -0.6615 -0.1549  0.7573
15666TIP3    H168413   6.298   3.144  16.561 -0.9112  0.6866  2.6532
15666TIP3    H268414   6.351   3.214  16.438 -0.7092 -2.5712  0.7542
15667TIP3   OH268415   5.184   2.287   6.055 -0.2251 -0.6617  0.2174
15667TIP3    H168416   5.105   2.301   6.109 -0.1778  0.7935 -0.0393
15667TIP3    H268417   5.177   2.353   5.986 -0.1242 -2.2911 -1.4151
15668TIP3   OH268418   6.034   3.169   4.812 -0.2958  0.4574  1.0101
15668TIP3    H168419   6.072   3.142   4.896 -0.9992  0.3536  1.3011
15668TIP3    H268420   5.989   3.091   4.780  2.1897 -0.3738 -0.7942
15669TIP3   OH268421   2.715   5.016  11.789  0.1947  0.2169  0.2351
15669TIP3    H168422   2.707   5.090  11.850  0.5669  0.6921 -0.2744
15669TIP3    H268423   2.683   5.051  11.706  2.9590  0.7316 -0.7251
15670TIP3   OH268424   5.815   3.874   6.239  0.7329  0.2974 -0.3933
15670TIP3    H168425   5.838   3.938   6.171  0.7774  1.1673  0.4133
15670TIP3    H268426   5.887   3.811   6.237  0.6165  0.1828 -1.3038
15671TIP3   OH268427   2.233   5.481  12.903  0.3753 -0.7894  0.4945
15671TIP3    H168428   2.272   5.501  12.818  0.8977 -1.9310  0.4505
15671TIP3    H268429   2.288   5.411  12.939 -0.4327 -1.0127  1.3333
15672TIP3   OH268430   4.579   3.664   1.211 -0.3832 -0.3359 -0.0679
15672TIP3    H168431   4.488   3.649   1.234 -0.7519  1.3784 -0.2601
15672TIP3    H268432   4.616   3.707   1.288  0.2172 -0.8389 -0.0685
15673TIP3   OH268433   3.802   5.692  16.063 -0.0654 -0.2834  0.1893
15673TIP3    H168434   3.865   5.743  16.012 -0.3512  0.1956  0.2971
15673TIP3    H268435   3.844   5.681  16.148 -0.5855  1.0672  0.6631
15674TIP3   OH268436   0.796   4.638  12.368  0.0736 -0.0687  0.1291
15674TIP3    H168437   0.810   4.729  12.396 -1.4693  0.0440  0.6313
15674TIP3    H268438   0.780   4.645  12.274 -1.0332  0.3105  0.3355
15675TIP3   OH268439   0.300   3.264  13.143 -0.3146 -0.4443 -0.0873
15675TIP3    H168440   0.262   3.232  13.061 -0.3049  0.5652 -0.5003
15675TIP3    H268441   0.241   3.232  13.211 -1.0224 -0.2462 -0.5944
15676TIP3   OH268442   1.994   4.208   4.666  0.1349 -0.1904 -0.1655
15676TIP3    H168443   2.028   4.298   4.663  0.8825 -0.4107  0.9348
15676TIP3    H268444   2.033   4.171   4.745 -1.7959 -0.8395  0.5425
15677TIP3   OH268445   4.204   6.220   0.625  0.4999 -0.4233  0.3882
15677TIP3    H168446   4.225   6.253   0.537 -3.1638 -0.5748 -0.7001
15677TIP3    H268447   4.192   6.300   0.677  0.1534 -0.2535  0.0558
15678TIP3   OH268448   0.648   4.487   4.200  0.3954 -0.8343 -0.4215
15678TIP3    H168449   0.713   4.451   4.260  0.7394 -0.1813 -0.3959
15678TIP3    H268450   0.566   4.445   4.226  0.5225 -0.5037  0.5735
15679TIP3   OH268451   4.935   1.093  11.399 -0.0887  0.0206  0.6309
15679TIP3    H168452   4.859   1.151  11.407 -0.8736 -0.9477  0.3728
15679TIP3    H268453   4.996   1.124  11.467 -1.5665 -0.4618  2.2441
15680TIP3   OH268454   3.062   4.795   5.619 -0.6771  0.3518 -0.0956
15680TIP3    H168455   3.135   4.742   5.650 -1.4219 -0.0970  0.9523
15680TIP3    H268456   3.103   4.875   5.585  0.3864 -0.4879 -0.8642
15681TIP3   OH268457   2.026   0.561  13.722  0.4470  0.2686 -0.0080
15681TIP3    H168458   2.012   0.482  13.774 -1.5554  1.7976  1.9743
15681TIP3    H268459   2.121   0.571  13.719  0.7348 -1.9563  0.0057
15682TIP3   OH268460   0.874   0.894  15.011  0.0196 -0.8101 -0.2789
15682TIP3    H168461   0.917   0.930  15.089  1.4141 -1.1059 -0.8691
15682TIP3    H268462   0.874   0.965  14.948  1.2448 -1.3037 -0.8688
15683TIP3   OH268463   0.236   4.464  16.094  0.5574 -0.6939 -0.3201
15683TIP3    H168464   0.329   4.442  16.097  0.8970  0.6408  1.4968
15683TIP3    H268465   0.234   4.559  16.080 -0.4828 -0.5725  0.4807
15684TIP3   OH268466   1.381   0.552   4.981 -0.5171  0.4797 -0.1597
15684TIP3    H168467   1.404   0.472   4.933 -0.6000 -0.6929  1.6692
15684TIP3    H268468   1.459   0.573   5.031  0.0597  2.4980 -1.7665
15685TIP3   OH268469   1.582   2.927  16.997 -0.0154  0.2480 -0.1581
15685TIP3    H168470   1.663   2.977  16.984  0.2476  0.3430  1.5198
15685TIP3    H268471   1.606   2.861  17.063 -1.6747  1.3165  1.6307
15686TIP3   OH268472   5.264   5.112   2.593 -0.5437  0.2254  0.5718
15686TIP3    H168473   5.276   5.100   2.687  0.5609 -1.5330  0.2426
15686TIP3    H268474   5.296   5.031   2.554 -4.2976 -0.6776 -1.1226
15687TIP3   OH268475   4.280   0.352   2.016 -0.6207  0.5770  0.0895
15687TIP3    H168476   4.252   0.438   1.986  0.2444  0.6295 -0.6201
15687TIP3    H268477   4.314   0.309   1.937  0.3746  0.1626  0.7237
15688TIP3   OH268478   0.440   0.346   6.132  0.1274 -0.4617 -0.0280
15688TIP3    H168479   0.348   0.373   6.140  0.0091 -0.0997 -2.0824
15688TIP3    H268480   0.442   0.291   6.054  1.8712  0.5689 -0.7640
15689TIP3   OH268481   4.557   3.347   0.942 -0.4455 -0.2389  0.4617
15689TIP3    H168482   4.478   3.386   0.904 -1.1847 -0.2617  1.9099
15689TIP3    H268483   4.598   3.299   0.870  0.1626  2.6220 -1.2370
15690TIP3   OH268484   6.557   5.897  11.237  0.0382  0.1174 -0.2188
15690TIP3    H168485   6.616   5.873  11.309  0.1329 -0.7208 -0.5714
15690TIP3    H268486   6.517   5.979  11.266  0.3362 -0.0287  0.6398
15691TIP3   OH268487   5.531   1.564   5.854  0.1625  0.2205  0.0091
15691TIP3    H168488   5.582   1.491   5.889  3.0282  0.8100 -2.5127
15691TIP3    H268489   5.585   1.642   5.873 -0.3664  1.0343 -1.6592
15692TIP3   OH268490   2.619   3.344   2.174  0.0428 -0.0007  0.0695
15692TIP3    H168491   2.564   3.266   2.166 -0.4328  0.3056  0.3398
15692TIP3    H268492   2.690   3.317   2.232  0.0945 -0.3494 -0.1496
15693TIP3   OH268493   4.245   5.867  16.667 -0.0460  0.3800 -0.2704
15693TIP3    H168494   4.218   5.886  16.577 -1.4192 -1.9672 -0.4274
15693TIP3    H268495   4.168   5.885  16.720 -0.1986 -1.0484  0.0240
15694TIP3   OH268496   1.187   4.886  13.811 -0.1267 -0.1368  0.0912
15694TIP3    H168497   1.218   4.969  13.775 -1.1887 -0.7133 -2.4050
15694TIP3    H268498   1.213   4.888  13.903  0.8003  2.4800 -0.1415
15695TIP3   OH268499   5.855   6.432   4.206 -0.0907  0.5972 -0.6734
15695TIP3    H168500   5.924   6.460   4.145 -0.6951  2.0798 -0.7317
15695TIP3    H268501   5.891   6.453   4.292 -0.2967  0.9848 -0.6805
15696TIP3   OH268502   2.429   6.168   3.090 -0.1211  0.9058  0.1414
15696TIP3    H168503   2.433   6.230   3.017  2.4316  2.3379  1.3743
15696TIP3    H268504   2.515   6.173   3.131 -0.5783 -1.8210  1.7067
15697TIP3   OH268505   4.152   4.954  11.946 -0.4538 -0.2410  0.1552
15697TIP3    H168506   4.062   4.967  11.976  0.2596  0.9987  1.9560
15697TIP3    H268507   4.193   4.903  12.016  0.1437 -1.1694 -0.8583
15698TIP3   OH268508   6.733   4.155   6.409 -0.4261  0.5151  0.2370
15698TIP3    H168509   6.691   4.076   6.375  2.5376 -1.9440  1.8653
15698TIP3    H268510   6.695   4.168   6.495 -0.9573  0.9575 -0.0547
15699TIP3   OH268511   5.937   4.073  13.856  0.8443 -0.6949 -0.1801
15699TIP3    H168512   6.004   4.118  13.908  0.8668 -0.2621 -0.5793
15699TIP3    H268513   5.947   4.108  13.767  0.4170 -0.9944 -0.3533
15700TIP3   OH268514   4.705   6.534  15.191  0.3781 -0.2574 -0.0789
15700TIP3    H168515   4.645   6.609  15.199  0.7673 -0.0321  0.8986
15700TIP3    H268516   4.746   6.546  15.105  0.4148  0.6428  0.0480
15701TIP3   OH268517   1.739   6.007  14.596  0.5174  0.4706  0.0878
15701TIP3    H168518   1.822   6.048  14.573  0.2368  1.1368  0.2190
15701TIP3    H268519   1.689   6.077  14.639  0.6150 -0.4125  1.7358
15702TIP3   OH268520   6.667   5.066   3.254 -0.0713  0.0762  0.6692
15702TIP3    H168521   6.648   5.155   3.283 -1.0848  0.4931 -1.1058
15702TIP3    H268522   6.707   5.077   3.167 -0.6938 -1.1989  0.1961
15703TIP3   OH268523   0.395   4.479   0.110 -0.0595  0.0342  0.3306
15703TIP3    H168524   0.440   4.447   0.031  1.7857  0.2470  1.2325
15703TIP3    H268525   0.446   4.442   0.183 -1.7876 -0.2588  1.4590
15704TIP3   OH268526   0.913   3.396  14.503  0.1473 -0.1552 -0.0910
15704TIP3    H168527   0.959   3.455  14.561 -1.3880  0.9969  0.0229
15704TIP3    H268528   0.898   3.447  14.423 -1.0411 -0.4157 -0.0607
15705TIP3   OH268529   6.637   1.994  16.527  0.7231 -0.7447  0.3457
15705TIP3    H168530   6.547   1.966  16.516  0.3989 -0.5956  2.3446
15705TIP3    H268531   6.687   1.913  16.536  0.6206 -0.7940  0.4586
15706TIP3   OH268532   3.272   4.126   4.665  0.0249 -0.5776 -0.1086
15706TIP3    H168533   3.182   4.130   4.695  0.9001 -1.8118  3.1017
15706TIP3    H268534   3.309   4.211   4.688 -0.0455 -0.4467 -0.4720
15707TIP3   OH268535   0.314   6.558   4.032 -0.1825  0.1211 -0.3182
15707TIP3    H168536   0.393   6.583   3.982 -0.7792  1.3128 -0.7082
15707TIP3    H268537   0.335   6.582   4.123  0.0247  0.1509 -0.3731
15708TIP3   OH268538   6.636   1.645   4.400  0.5345  0.6249  0.8154
15708TIP3    H168539   6.615   1.738   4.389 -0.5672  0.1225 -2.9466
15708TIP3    H268540   6.560   1.609   4.446 -0.6800  1.1086 -0.7086
15709TIP3   OH268541   2.019   4.186   5.473  0.1583 -0.1434  0.0914
15709TIP3    H168542   1.965   4.108   5.484  0.5358 -0.4686 -0.3052
15709TIP3    H268543   2.061   4.174   5.387  0.9179  0.0549  0.4263
15710TIP3   OH268544   0.923   0.432  12.463  0.5870 -0.0383 -0.5201
15710TIP3    H168545   0.891   0.344  12.484 -1.0292  0.4789 -0.6789
15710TIP3    H268546   0.844   0.482  12.443  1.4876  1.4421 -0.5109
15711TIP3   OH268547   2.378   5.935   3.516  0.1544 -0.0845  0.2992
15711TIP3    H168548   2.291   5.900   3.498 -0.1654  0.1379  1.3153
15711TIP3    H268549   2.377   5.954   3.610  0.7948  1.3102  0.0556
15712TIP3   OH268550   1.182   6.125   6.573  0.1473  0.1158  0.0033
15712TIP3    H168551   1.208   6.039   6.604 -1.6117 -0.5247 -0.1596
15712TIP3    H268552   1.240   6.144   6.500 -0.5507 -1.7433 -1.0934
15713TIP3   OH268553   0.607   1.991  14.741 -0.2407 -0.2854 -0.6826
15713TIP3    H168554   0.670   2.056  14.711 -0.3599 -0.4413 -1.2820
15713TIP3    H268555   0.588   1.939  14.664 -0.7989 -0.4939 -0.4075
15714TIP3   OH268556   5.702   4.792   3.919  0.1361  0.4532  0.6446
15714TIP3    H168557   5.718   4.712   3.969 -1.3850  0.7882  1.7336
15714TIP3    H268558   5.678   4.761   3.831  2.0799 -0.1684  0.2867
15715TIP3   OH268559   2.750   1.957   3.890  0.3804 -0.3668  0.0807
15715TIP3    H168560   2.775   1.899   3.818  0.7402  1.3563 -1.2744
15715TIP3    H268561   2.830   1.965   3.943  0.0628 -1.7822  0.8093
15716TIP3   OH268562   6.006   6.766  12.264  0.4579 -0.0969  0.2948
15716TIP3    H168563   6.038   6.747  12.176  0.4729 -0.3327  0.3503
15716TIP3    H268564   6.057   6.843  12.292 -0.4232  0.7550 -0.3738
15717TIP3   OH268565   1.934   0.882  12.754 -0.0103 -0.4576 -0.6518
15717TIP3    H168566   1.980   0.936  12.818  0.6045 -0.4911 -1.0571
15717TIP3    H268567   1.880   0.823  12.807 -0.5839  0.4554 -0.2052
15718TIP3   OH268568   0.456   5.303  15.424 -0.2641  0.6068  0.0409
15718TIP3    H168569   0.549   5.309  15.401 -0.4286  3.4459 -0.2710
15718TIP3    H268570   0.424   5.228  15.374  1.5343  0.4436 -0.9720
15719TIP3   OH268571   3.492   3.677  13.546  0.0247 -0.2608  0.5304
15719TIP3    H168572   3.549   3.696  13.472 -0.8741 -2.5174 -0.8655
15719TIP3    H268573   3.410   3.721  13.524 -0.5359 -1.6643 -0.3456
15720TIP3   OH268574   3.343   2.896  13.426 -0.0437 -0.4290  0.5617
15720TIP3    H168575   3.305   2.967  13.374 -0.7694 -1.0446  0.2351
15720TIP3    H268576   3.438   2.910  13.420 -0.1904  1.4038  1.7870
15721TIP3   OH268577   2.411   2.949   0.161  0.4905  0.3071 -0.1115
15721TIP3    H168578   2.485   2.990   0.206 -0.8429  1.4756  1.1203
15721TIP3    H268579   2.398   2.866   0.208  0.8122  0.2512 -0.1202
15722TIP3   OH268580   1.841   0.849   0.694 -0.3507 -0.4797  0.4765
15722TIP3    H168581   1.886   0.909   0.753 -1.2002  1.4905 -0.8063
15722TIP3    H268582   1.884   0.861   0.610 -0.8396 -1.3594  0.0826
15723TIP3   OH268583   1.011   0.759   0.595 -0.1730  0.0042  0.0129
15723TIP3    H168584   1.103   0.775   0.577 -0.4000  1.2939 -0.0711
15723TIP3    H268585   1.005   0.758   0.691 -0.0235 -0.4120  0.0199
15724TIP3   OH268586   1.484   1.680   1.427  0.4643 -0.4145  0.3346
15724TIP3    H168587   1.434   1.661   1.348 -1.1188  1.0093  0.9190
15724TIP3    H268588   1.423   1.663   1.499  1.1966  0.2244  1.1415
15725TIP3   OH268589   5.335   1.126  14.495  0.6963  0.3949 -1.1473
15725TIP3    H168590   5.313   1.202  14.440 -0.0090  0.7920 -0.3364
15725TIP3    H268591   5.388   1.162  14.566  2.0693 -0.2005 -1.8163
15726TIP3   OH268592   3.187   1.508  15.088  0.0932 -0.2032  0.5155
15726TIP3    H168593   3.283   1.504  15.097 -0.1442 -2.2161  4.1990
15726TIP3    H268594   3.161   1.580  15.144 -0.6187 -0.2017  0.1936
15727TIP3   OH268595   1.641   5.536   1.735 -0.7654  0.2555  0.0202
15727TIP3    H168596   1.603   5.624   1.746 -1.2089  0.1206 -0.3844
15727TIP3    H268597   1.570   5.485   1.695 -0.4476 -0.2387  0.0912
15728TIP3   OH268598   6.488   3.586   0.361  0.2606 -0.1464  0.0914
15728TIP3    H168599   6.409   3.638   0.374  0.2811 -0.0274 -0.2604
15728TIP3    H268600   6.456   3.496   0.353  0.0988 -0.0108 -0.7821
15729TIP3   OH268601   3.791   4.172   1.510  0.1334  0.5768 -0.3828
15729TIP3    H168602   3.782   4.225   1.590  2.6319 -1.6151  1.5073
15729TIP3    H268603   3.879   4.191   1.478  0.1017 -0.5028 -1.1675
15730TIP3   OH268604   2.417   5.569   5.733 -0.1994  0.3588 -0.0332
15730TIP3    H168605   2.328   5.542   5.757 -0.0116 -0.9169 -0.7065
15730TIP3    H268606   2.459   5.588   5.817 -0.7791 -0.0959  0.3724
15731TIP3   OH268607   2.719   5.100   2.280  0.3112 -0.1952 -0.3658
15731TIP3    H168608   2.674   5.036   2.336 -1.1776  1.2315  0.1508
15731TIP3    H268609   2.781   5.143   2.339 -0.1019  0.1893 -0.2065
15732TIP3   OH268610   4.005   5.772   4.468  0.7503  0.1043 -0.0685
15732TIP3    H168611   4.004   5.677   4.461 -2.1205  0.0365  0.1470
15732TIP3    H268612   4.010   5.789   4.562  2.1542  0.2285 -0.1441
15733TIP3   OH268613   5.722   1.706   5.131 -0.1732  0.1659 -0.0461
15733TIP3    H168614   5.745   1.778   5.073 -0.8885  1.0654  0.7740
15733TIP3    H268615   5.794   1.702   5.195  0.0740 -0.1388 -0.3325
15734TIP3   OH268616   2.532   4.623   1.250 -0.1840 -0.1693  0.1114
15734TIP3    H168617   2.559   4.549   1.195 -1.3591  0.2463 -1.0687
15734TIP3    H268618   2.462   4.589   1.305  1.1495 -0.6497  1.5954
15735TIP3   OH268619   0.663   2.618  11.720  0.3971  0.0333  0.2120
15735TIP3    H168620   0.590   2.573  11.764  1.1273 -1.2046  0.1957
15735TIP3    H268621   0.741   2.591  11.769  0.6606  3.5949  2.0732
15736TIP3   OH268622   6.148   2.690   1.112 -0.0671  0.0802  0.2735
15736TIP3    H168623   6.234   2.732   1.108  0.0976 -0.2855 -0.1237
15736TIP3    H268624   6.154   2.619   1.048 -1.1917  1.0359 -0.9475
15737TIP3   OH268625   0.463   1.676  14.933  0.0980  0.5712 -0.1484
15737TIP3    H168626   0.387   1.620  14.921 -0.4949  0.9016  1.7121
15737TIP3    H268627   0.435   1.740  14.999  1.6091  1.4124 -0.2820
15738TIP3   OH268628   2.973   2.919   1.643  0.2280 -0.2671 -0.1255
15738TIP3    H168629   2.963   2.962   1.728  1.5976  1.1565 -0.6422
15738TIP3    H268630   2.883   2.900   1.615 -0.4793  2.4107  0.0854
15739TIP3   OH268631   6.575   1.035  13.188  0.3353  0.1926 -0.1501
15739TIP3    H168632   6.506   0.978  13.224 -1.7039  1.8648 -1.2223
15739TIP3    H268633   6.592   1.000  13.101  0.4612  0.1102 -0.0937
15740TIP3   OH268634   2.372   0.040   2.477  0.2485  0.1322 -0.1547
15740TIP3    H168635   2.289   0.002   2.505 -0.6934  0.5860 -2.1346
15740TIP3    H268636   2.438  -0.023   2.506 -0.9023 -0.9290  0.2687
15741TIP3   OH268637   6.242   2.170   5.449  0.4671 -0.1265 -0.5560
15741TIP3    H168638   6.179   2.234   5.482  1.7003  0.8104  0.0264
15741TIP3    H268639   6.314   2.222   5.414  1.0213 -1.1816 -1.0268
15742TIP3   OH268640   3.453   4.790  16.098 -0.4513  0.0718 -0.1145
15742TIP3    H168641   3.500   4.708  16.107 -1.6159 -0.6112 -0.1507
15742TIP3    H268642   3.432   4.816  16.188 -0.8065 -0.1051 -0.1450
15743TIP3   OH268643   1.295   0.912   0.799  0.1912 -0.5964 -0.0754
15743TIP3    H168644   1.374   0.921   0.745  0.0779 -0.0239 -0.1453
15743TIP3    H268645   1.233   0.974   0.761 -0.8029 -2.0244 -0.9272
15744TIP3   OH268646   0.549   0.703   0.840  0.0703  0.7096 -0.5269
15744TIP3    H168647   0.622   0.664   0.791 -1.4724 -3.1284 -0.0855
15744TIP3    H268648   0.591   0.751   0.911  2.1790  0.9344 -1.8265
15745TIP3   OH268649   3.600   6.365  16.709  0.3519  1.2445 -0.0118
15745TIP3    H168650   3.636   6.444  16.668  0.2755  0.7490 -1.0731
15745TIP3    H268651   3.562   6.316  16.636  0.0250  0.4288  0.6972
15746TIP3   OH268652   5.702   2.726   2.858  0.7920 -0.4818 -0.2371
15746TIP3    H168653   5.643   2.692   2.925  1.3494  1.4090  1.3099
15746TIP3    H268654   5.753   2.650   2.829  0.7053 -1.3224  1.6843
15747TIP3   OH268655   1.873   1.055  13.054  0.0397  0.4431 -0.5237
15747TIP3    H168656   1.856   1.147  13.033  1.3596  0.9721  0.6017
15747TIP3    H268657   1.811   1.035  13.124  0.1350  0.6473 -0.3800
15748TIP3   OH268658   6.295   1.211   0.091  0.1917 -0.3126  0.0589
15748TIP3    H168659   6.243   1.135   0.066 -0.5282  0.3021 -0.3877
15748TIP3    H268660   6.311   1.201   0.184 -2.0558  0.2164  0.5688
15749TIP3   OH268661   2.563   6.243   2.605  0.1373  0.1560  0.7878
15749TIP3    H168662   2.526   6.163   2.641  1.2552 -0.4016  0.7228
15749TIP3    H268663   2.565   6.229   2.510 -0.0656  0.4332  0.7415
15750TIP3   OH268664   6.545   6.789   2.853  0.4056 -0.5765 -0.6891
15750TIP3    H168665   6.537   6.873   2.807 -1.0262 -0.2226  0.1439
15750TIP3    H268666   6.455   6.756   2.858  0.3266 -0.2037  2.4976
15751TIP3   OH268667   5.201   5.000   3.814 -0.4272  0.1040 -0.4606
15751TIP3    H168668   5.121   4.952   3.834  0.4764 -1.2326  0.0762
15751TIP3    H268669   5.197   5.078   3.869 -0.2584 -1.1310  1.3915
15752TIP3   OH268670   5.897   0.252  15.799 -0.1543  0.1044 -0.1493
15752TIP3    H168671   5.979   0.298  15.783  0.6618 -1.5161 -0.8826
15752TIP3    H268672   5.883   0.258  15.893  0.7234  0.5224 -0.0403
15753TIP3   OH268673   3.180   4.335   3.506  0.7575  0.9927 -0.4941
15753TIP3    H168674   3.124   4.276   3.556 -3.0643  4.0135 -0.8241
15753TIP3    H268675   3.206   4.283   3.430 -2.4220 -0.3633 -0.8040
15754TIP3   OH268676   6.461   2.095  15.925  0.9650  0.2127  0.3770
15754TIP3    H168677   6.370   2.068  15.939  0.6292  0.4044 -1.2776
15754TIP3    H268678   6.512   2.016  15.941  0.2977 -0.4959 -0.8415
15755TIP3   OH268679   5.043   2.071  13.982  0.2892  0.2720  0.1050
15755TIP3    H168680   5.025   2.039  14.071 -2.0483  0.8736 -0.0699
15755TIP3    H268681   5.061   1.992  13.931  1.1255 -0.1282  0.9829
15756TIP3   OH268682   5.821   4.110  11.310 -0.1795  0.6557  0.2572
15756TIP3    H168683   5.871   4.182  11.348  0.6421  0.2867 -0.1120
15756TIP3    H268684   5.872   4.031  11.330 -2.2363 -0.1931  2.8107
15757TIP3   OH268685   1.236   2.807  13.080 -0.0233  0.3533  1.0782
15757TIP3    H168686   1.174   2.740  13.051  0.3678  0.5332 -0.2801
15757TIP3    H268687   1.182   2.873  13.123 -0.6628  0.0694  0.7256
15758TIP3   OH268688   4.951   0.999   4.074  0.2033  0.3134 -0.1231
15758TIP3    H168689   4.868   0.952   4.067  0.9599 -1.2970  0.8407
15758TIP3    H268690   5.014   0.943   4.028  0.9524  0.8915  0.1788
15759TIP3   OH268691   5.003   6.718   1.853 -0.0064 -0.3826 -0.2818
15759TIP3    H168692   5.019   6.811   1.842 -0.2713 -0.1623  1.0526
15759TIP3    H268693   5.086   6.683   1.885  0.0987 -0.6281 -0.7943
15760TIP3   OH268694   4.532   1.055  12.915 -0.0124 -0.0075 -0.2374
15760TIP3    H168695   4.611   1.064  12.968  0.9442  1.0511 -1.7835
15760TIP3    H268696   4.491   0.975  12.947 -0.2622  1.2929  3.0757
15761TIP3   OH268697   5.962   1.599   5.269  0.0406  0.1949  0.1892
15761TIP3    H168698   6.015   1.674   5.296  1.0979  1.0950 -3.6759
15761TIP3    H268699   6.024   1.526   5.262  0.1562  0.3822 -1.0669
15762TIP3   OH268700   5.193   4.768   2.699  0.3301 -0.1551 -0.7473
15762TIP3    H168701   5.262   4.780   2.635  0.2180 -1.0311 -1.0441
15762TIP3    H268702   5.214   4.685   2.742 -1.3365 -1.2351 -1.8955
15763TIP3   OH268703   5.439   2.473   0.207  0.1106  0.4814 -0.2222
15763TIP3    H168704   5.457   2.563   0.179  1.1346 -0.0554 -1.3743
15763TIP3    H268705   5.436   2.423   0.126  1.9444 -0.9245  0.5295
15764TIP3   OH268706   6.250   4.860  11.802  0.4032 -0.4407 -0.2999
15764TIP3    H168707   6.299   4.778  11.810 -0.6986 -1.1781 -0.8025
15764TIP3    H268708   6.232   4.867  11.708  1.8307  1.2078 -0.4890
15765TIP3   OH268709   4.351   4.334   0.235  0.5590  0.0236  0.2622
15765TIP3    H168710   4.318   4.361   0.321 -0.2082 -1.7638  0.5811
15765TIP3    H268711   4.419   4.397   0.214  0.0406  1.1135  1.7145
15766TIP3   OH268712   5.573   4.432  17.023  0.3073 -0.2449 -0.0496
15766TIP3    H168713   5.630   4.378  16.968 -0.5259 -0.7585 -0.4244
15766TIP3    H268714   5.520   4.481  16.960 -1.9987 -2.2479  0.2321
15767TIP3   OH268715   2.508   0.539  12.743 -0.2215  0.1869 -0.3116
15767TIP3    H168716   2.586   0.587  12.770 -0.1404  0.5269 -1.1440
15767TIP3    H268717   2.543   0.460  12.700 -0.3493 -0.0920  0.0858
15768TIP3   OH268718   5.228   1.823  15.331  0.2286  0.5380  0.4471
15768TIP3    H168719   5.180   1.744  15.305  0.1883  0.8927 -0.6082
15768TIP3    H268720   5.250   1.809  15.423 -0.3152 -0.4306  0.4393
15769TIP3   OH268721   1.677   1.573   0.566  0.4518 -0.3630  0.4772
15769TIP3    H168722   1.759   1.524   0.557  0.4420 -0.6728  1.8702
15769TIP3    H268723   1.704   1.659   0.599  0.1502 -0.9460  2.3822
15770TIP3   OH268724   2.295   1.894   1.269  0.1242  0.4724 -0.1193
15770TIP3    H168725   2.270   1.838   1.342 -0.2341  0.6548 -0.0964
15770TIP3    H268726   2.328   1.834   1.202 -0.2997  0.2293 -0.1129
15771TIP3   OH268727   1.489   6.307   3.138 -0.0041  0.2128  0.2044
15771TIP3    H168728   1.538   6.346   3.210  1.6293  1.0706 -1.2854
15771TIP3    H268729   1.476   6.215   3.164 -1.8967  1.0970  2.7472
15772TIP3   OH268730   5.188   4.023   4.454  0.0300 -0.5233 -0.1526
15772TIP3    H168731   5.256   4.055   4.394  1.1952  1.9251  2.2800
15772TIP3    H268732   5.106   4.046   4.410  0.7576 -1.2120 -1.9795
15773TIP3   OH268733   4.259   1.565  15.405 -0.4203  0.6353 -0.5369
15773TIP3    H168734   4.314   1.490  15.380  0.2753  0.9521  0.0088
15773TIP3    H268735   4.308   1.642  15.375 -0.1337  0.9605  0.7022
15774TIP3   OH268736   1.051   4.561  12.784 -0.4092 -0.0770 -0.0461
15774TIP3    H168737   0.969   4.514  12.773 -0.9652  1.0041 -0.6535
15774TIP3    H268738   1.027   4.643  12.827  0.5599 -0.3685  1.1189
15775TIP3   OH268739   1.569   2.191   2.514 -0.0078 -0.3539  0.1094
15775TIP3    H168740   1.595   2.099   2.506  1.0000  0.0433 -2.1477
15775TIP3    H268741   1.533   2.212   2.428 -0.9778  1.1667  0.8610
15776TIP3   OH268742   6.551   4.935  12.920  1.0693 -0.5429 -0.1889
15776TIP3    H168743   6.582   4.951  12.831  0.1479 -0.2763 -0.4758
15776TIP3    H268744   6.456   4.930  12.912  0.9160  0.1700  0.8717
15777TIP3   OH268745   6.415   0.342  15.168  0.4335 -0.5705  0.7933
15777TIP3    H168746   6.342   0.294  15.128 -0.5876  0.6936  1.0905
15777TIP3    H268747   6.455   0.389  15.095  2.4210 -2.9523  0.1903
15778TIP3   OH268748   1.641   0.062  11.136  0.1068 -0.5768 -0.7108
15778TIP3    H168749   1.660   0.032  11.225 -1.1588 -1.0353 -0.5675
15778TIP3    H268750   1.546   0.072  11.134  0.3655  3.5439 -0.7254
15779TIP3   OH268751   3.124   3.514   2.242 -0.0275 -0.4807 -0.1899
15779TIP3    H168752   3.050   3.552   2.289  0.7504  1.4460 -0.4031
15779TIP3    H268753   3.191   3.583   2.244  1.4225 -1.8166 -0.7936
15780TIP3   OH268754   1.143   3.278   4.428  0.3082  0.0025  0.1194
15780TIP3    H168755   1.179   3.364   4.407  1.2847 -0.6475 -0.9629
15780TIP3    H268756   1.183   3.256   4.512  1.1121  0.0303 -0.2497
15781TIP3   OH268757   5.657   6.773   5.352  0.2712 -0.7047  0.4085
15781TIP3    H168758   5.731   6.713   5.352 -1.2144 -2.7117 -1.5110
15781TIP3    H268759   5.678   6.838   5.285  0.2920 -1.2885 -0.1517
15782TIP3   OH268760   6.210   2.706   4.607 -0.0666  0.3064 -0.0133
15782TIP3    H168761   6.264   2.676   4.680  0.0844  1.1654  0.2290
15782TIP3    H268762   6.120   2.696   4.638 -0.0147  0.2184  0.1107
15783TIP3   OH268763   3.300   2.502  12.239  0.1954 -0.3376  0.2305
15783TIP3    H168764   3.235   2.431  12.240 -0.2901  0.1042  0.5691
15783TIP3    H268765   3.383   2.458  12.223 -0.4205 -0.7064 -2.5077
15784TIP3   OH268766   1.548   4.784  12.512  0.3606  0.2493  0.0188
15784TIP3    H168767   1.527   4.759  12.602  1.0105  0.5534  0.2647
15784TIP3    H268768   1.547   4.702  12.463  0.3528  0.0318  0.3796
15785TIP3   OH268769   1.947   3.811  14.170  0.4705 -0.0773  0.4444
15785TIP3    H168770   1.928   3.730  14.217 -0.6240 -0.3961 -0.5139
15785TIP3    H268771   1.868   3.830  14.119  1.5304  0.3379 -1.1413
15786TIP3   OH268772   1.163   1.993   0.147 -0.0854 -0.5123 -0.0578
15786TIP3    H168773   1.165   1.907   0.104  0.2199  0.5441 -2.3040
15786TIP3    H268774   1.085   2.035   0.112  0.4657  0.6111  0.0308
15787TIP3   OH268775   5.521   3.578  15.656 -0.4740 -0.3569 -0.3292
15787TIP3    H168776   5.535   3.638  15.728  0.5125 -0.5234 -0.3699
15787TIP3    H268777   5.476   3.503  15.695  2.2712 -1.5963  0.6998
15788TIP3   OH268778   5.508   2.769  16.792  0.6502 -0.2789  0.1083
15788TIP3    H168779   5.505   2.857  16.753 -0.4366 -0.9042 -1.3144
15788TIP3    H268780   5.522   2.785  16.886 -0.0545  1.4465 -0.0359
15789TIP3   OH268781   5.717   5.859   3.606  0.4237  1.1014  0.9418
15789TIP3    H168782   5.661   5.932   3.580  1.0174  1.5077  0.7624
15789TIP3    H268783   5.657   5.787   3.622 -0.1020  1.3529  0.1643
15790TIP3   OH268784   2.839   4.251  16.233  0.8103  0.5564 -0.0831
15790TIP3    H168785   2.760   4.253  16.287  0.0545  2.1230 -1.1742
15790TIP3    H268786   2.899   4.194  16.280 -0.9066 -0.5389  0.8649
15791TIP3   OH268787   5.277   2.295   4.420  0.0469 -0.1064 -0.4694
15791TIP3    H168788   5.268   2.200   4.426  0.5464 -0.2187 -1.3321
15791TIP3    H268789   5.302   2.311   4.329 -0.4845  0.8918 -0.4518
15792TIP3   OH268790   5.993   5.734  11.309 -0.8533 -0.2496 -0.9352
15792TIP3    H168791   6.089   5.727  11.307 -0.9101 -1.2859 -2.9622
15792TIP3    H268792   5.976   5.816  11.354  0.9225 -0.7712  0.8786
15793TIP3   OH268793   6.276   6.265  13.771  0.1419 -0.2752  0.1626
15793TIP3    H168794   6.348   6.203  13.774  0.0115 -0.4238  0.2666
15793TIP3    H268795   6.198   6.213  13.791  0.2614  0.2721  2.3471
15794TIP3   OH268796   5.894   2.081  11.134  0.3101  0.0384 -0.1468
15794TIP3    H168797   5.909   2.104  11.042  1.5861  2.5365  0.5929
15794TIP3    H268798   5.981   2.067  11.171 -0.0431  0.8340  1.0657
15795TIP3   OH268799   4.593   5.266  11.144  0.1943 -0.0145 -0.2264
15795TIP3    H168800   4.599   5.349  11.193  3.1717 -0.6232  0.6662
15795TIP3    H268801   4.561   5.203  11.208 -0.0369  0.0208 -0.3058
15796TIP3   OH268802   4.411   4.507   1.407  0.2139  0.1481 -0.0859
15796TIP3    H168803   4.438   4.593   1.374  2.2308 -0.7376 -0.9060
15796TIP3    H268804   4.444   4.505   1.497 -1.4525  0.8847  0.5866
15797TIP3   OH268805   3.964   4.028  11.970  0.6193  0.1990 -0.4575
15797TIP3    H168806   3.977   3.945  12.015  0.0429 -1.0830 -2.5124
15797TIP3    H268807   3.905   4.077  12.028  0.7936 -0.8983  0.7006
15798TIP3   OH268808   0.732   1.877  16.137 -0.8321 -0.0184  0.2480
15798TIP3    H168809   0.755   1.813  16.205  0.0711 -0.8464 -0.7846
15798TIP3    H268810   0.728   1.961  16.183  1.4516 -0.2845  1.0539
15799TIP3   OH268811   5.730   3.556   0.132 -0.5789  0.3549  0.5830
15799TIP3    H168812   5.659   3.610   0.099  0.0609  0.8429 -0.0061
15799TIP3    H268813   5.793   3.550   0.060  0.7851  1.3520  1.6355
15800TIP3   OH268814   3.108   3.621  16.124 -0.2691 -0.6788 -0.5515
15800TIP3    H168815   3.030   3.632  16.179  0.0472  1.4123 -0.4322
15800TIP3    H268816   3.139   3.710  16.108  1.9006 -1.4358 -0.9162
15801TIP3   OH268817   4.992   1.075   4.590  0.0195  0.2822  0.3118
15801TIP3    H168818   4.982   1.036   4.678  0.9501  0.0094  0.3088
15801TIP3    H268819   5.065   1.135   4.599 -1.4569  2.1702  0.3289
15802TIP3   OH268820   2.272   5.366  16.233  0.1943 -0.3827 -0.1856
15802TIP3    H168821   2.295   5.273  16.232  0.7467 -0.2576  0.2250
15802TIP3    H268822   2.271   5.389  16.326  1.0165  0.2489 -0.3222
15803TIP3   OH268823   0.396   1.152  14.030 -0.1415  0.6389 -0.7919
15803TIP3    H168824   0.303   1.149  14.053  0.2530  1.0631  0.9638
15803TIP3    H268825   0.436   1.205  14.098  1.5969 -0.6300 -0.7598
15804TIP3   OH268826   1.843   6.200  16.714  0.2422 -0.1781 -0.8609
15804TIP3    H168827   1.886   6.192  16.629 -0.4937 -1.3675 -1.1494
15804TIP3    H268828   1.801   6.286  16.711  2.0871  0.7798 -0.7846
15805TIP3   OH268829   3.723   2.071  12.888  0.1368 -0.5523 -0.5531
15805TIP3    H168830   3.785   2.101  12.954 -0.3049 -0.4623 -0.1755
15805TIP3    H268831   3.764   1.993  12.850  0.6865 -0.2335 -0.6282
15806TIP3   OH268832   0.378   2.097   5.323 -0.0099 -0.2183 -0.3068
15806TIP3    H168833   0.307   2.033   5.317 -0.2508 -0.0890  1.0519
15806TIP3    H268834   0.446   2.053   5.373  0.2007  0.2558 -0.1695
15807TIP3   OH268835   5.215   5.375   6.163 -0.0822 -0.2416  0.0856
15807TIP3    H168836   5.128   5.371   6.203 -0.4960 -0.9737 -0.8464
15807TIP3    H268837   5.260   5.297   6.195 -0.2925 -0.6459 -0.6002
15808TIP3   OH268838   5.443   5.780   5.670  0.7807  0.0530  0.2586
15808TIP3    H168839   5.509   5.830   5.718  0.0452  1.1007  0.2205
15808TIP3    H268840   5.477   5.774   5.581  1.8322 -1.3167  0.7212
15809TIP3   OH268841   0.611   3.955  13.673 -0.0729  0.1864  0.9593
15809TIP3    H168842   0.548   4.019  13.640  1.1568  1.4584  0.9193
15809TIP3    H268843   0.605   3.961  13.768 -0.6388 -0.3542  0.9586
15810TIP3   OH268844   1.569   4.444  11.450 -0.1963 -0.1919  0.9542
15810TIP3    H168845   1.616   4.491  11.380 -0.0554 -0.2473  1.0118
15810TIP3    H268846   1.490   4.411  11.407 -0.2702  0.0523  0.9006
15811TIP3   OH268847   2.032   5.995   3.701  0.1126  0.7535  0.9687
15811TIP3    H168848   2.069   5.906   3.695 -1.2251  0.1782  0.9842
15811TIP3    H268849   2.057   6.025   3.788 -0.2584 -0.0026  1.3485
15812TIP3   OH268850   2.448   3.639  15.885 -0.2545 -0.0149  0.2579
15812TIP3    H168851   2.517   3.660  15.822  1.4622 -2.3722  1.1964
15812TIP3    H268852   2.392   3.576  15.840  0.4435 -1.0002  0.7352
15813TIP3   OH268853   0.289   6.422   1.297  0.2203 -0.5633  0.1263
15813TIP3    H168854   0.272   6.384   1.211  3.3827 -0.5808 -0.6209
15813TIP3    H268855   0.326   6.350   1.349  0.7060  0.0542  0.6544
15814TIP3   OH268856   3.385   2.066  16.774 -0.0569 -0.5697 -0.1410
15814TIP3    H168857   3.434   2.054  16.692 -1.3390 -0.4202 -0.9485
15814TIP3    H268858   3.332   2.144  16.760  0.2028 -0.1353  1.1062
15815TIP3   OH268859   1.164   3.493   4.778 -0.2589 -0.3907  0.3293
15815TIP3    H168860   1.174   3.544   4.859  0.4256 -0.5379  0.3367
15815TIP3    H268861   1.174   3.557   4.708 -2.8549  0.1351  0.3384
15816TIP3   OH268862   5.752   4.337  16.394  0.1722 -0.5273 -0.3126
15816TIP3    H168863   5.762   4.407  16.458 -0.5553  0.1989 -0.9648
15816TIP3    H268864   5.672   4.291  16.420 -0.6906  0.3969 -1.2459
15817TIP3   OH268865   2.972   3.583   4.681  0.1616 -0.1641  0.1629
15817TIP3    H168866   2.975   3.501   4.632 -2.0357  0.3390 -0.9265
15817TIP3    H268867   2.961   3.555   4.772  0.2748 -1.0678 -0.0867
15818TIP3   OH268868   3.905   1.978  11.300  0.6792 -0.6915  0.4096
15818TIP3    H168869   3.880   1.894  11.260 -0.5509 -1.0467  1.8286
15818TIP3    H268870   3.975   1.955  11.361  2.4069 -0.1819 -1.2774
15819TIP3   OH268871   0.041   3.646  11.192  0.7114 -0.1269 -0.3867
15819TIP3    H168872   0.015   3.601  11.272 -0.7518  0.4842 -0.4834
15819TIP3    H268873   0.113   3.703  11.219  0.0416  0.2968  0.5739
15820TIP3   OH268874   5.635   5.679  10.336 -0.3112 -0.2688  0.1285
15820TIP3    H168875   5.677   5.717  10.414  0.8257  1.2208 -1.1375
15820TIP3    H268876   5.688   5.602  10.315  0.0758 -0.0207  0.1820
15821TIP3   OH268877   2.651   6.546   3.800  0.3246 -0.1009  0.5956
15821TIP3    H168878   2.712   6.487   3.756 -0.3311 -0.5975  0.3438
15821TIP3    H268879   2.699   6.577   3.877  0.4103 -1.5370  1.1356
15822TIP3   OH268880   6.618   3.534   4.843 -0.3265 -0.1738 -0.3224
15822TIP3    H168881   6.679   3.474   4.887 -1.1103  0.1227  1.2474
15822TIP3    H268882   6.674   3.588   4.787  0.5790 -1.3329 -0.5772
15823TIP3   OH268883   1.269   3.916   3.760  0.9664 -0.3039  0.0661
15823TIP3    H168884   1.321   3.839   3.783 -1.2854 -1.5483  1.2667
15823TIP3    H268885   1.213   3.886   3.688  1.5634  0.8848 -0.9235
15824TIP3   OH268886   1.920   0.866   0.356 -0.1968  0.1507  0.0416
15824TIP3    H168887   1.862   0.895   0.285 -0.1716 -0.7745 -0.3727
15824TIP3    H268888   1.979   0.803   0.314  0.8119  0.7224  0.5582
15825TIP3   OH268889   1.105   4.520   3.367 -0.2722 -0.0004  1.1797
15825TIP3    H168890   1.056   4.554   3.292  0.3360 -0.0246  0.7658
15825TIP3    H268891   1.061   4.556   3.444 -1.6495 -0.9343  0.8600
15826TIP3   OH268892   4.544   2.529  16.978  0.7003 -0.3568  0.2175
15826TIP3    H168893   4.625   2.568  17.011  0.6866 -0.6721  0.6358
15826TIP3    H268894   4.479   2.599  16.986  0.3937 -0.7947  2.1186
15827TIP3   OH268895   4.394   2.780  11.020 -0.2289 -0.3796 -0.1622
15827TIP3    H168896   4.428   2.825  11.097  1.6115 -0.7536 -0.7116
15827TIP3    H268897   4.355   2.850  10.967  2.4573  0.6342 -0.9363
15828TIP3   OH268898   6.204   0.702  12.462 -0.2311  0.1629 -0.8753
15828TIP3    H168899   6.160   0.769  12.409 -1.2532 -0.1187 -0.3994
15828TIP3    H268900   6.135   0.666  12.518  1.0007  1.2229  1.4930
15829TIP3   OH268901   6.097   0.052   2.654  0.3959  0.0003  0.3618
15829TIP3    H168902   6.032  -0.011   2.623  0.4175  0.6915 -1.1472
15829TIP3    H268903   6.096   0.122   2.589  1.1528  1.0419  1.4381
15830TIP3   OH268904   6.526   3.357   1.442  0.6962  0.0798  0.7479
15830TIP3    H168905   6.562   3.386   1.526 -0.7940  2.4447  0.6638
15830TIP3    H268906   6.450   3.305   1.466  2.2604 -2.2825  0.8603
15831TIP3   OH268907   0.038   0.993   5.372  0.0805  0.5595  0.1698
15831TIP3    H168908  -0.018   1.032   5.439 -0.0776 -1.1687  1.1116
15831TIP3    H268909   0.065   0.909   5.410  2.7499  1.0101 -0.5286
15832TIP3   OH268910   0.239   3.184   5.144  0.0764 -0.9351  0.2937
15832TIP3    H168911   0.179   3.118   5.108  0.1354 -0.2751 -1.0761
15832TIP3    H268912   0.183   3.240   5.197 -0.9387  0.6688 -2.2829
15833TIP3   OH268913   1.894   6.308  14.430 -0.6809 -0.0451  0.0485
15833TIP3    H168914   1.974   6.276  14.389  0.8585  3.7877 -0.3138
15833TIP3    H268915   1.827   6.299  14.362 -0.0027 -0.9900 -0.5207
15834TIP3   OH268916   2.985   2.726  15.578  0.0340  0.0642 -0.6151
15834TIP3    H168917   3.035   2.757  15.502  1.0855  1.4435  0.5763
15834TIP3    H268918   3.029   2.644  15.603  1.9506  1.3652  0.5439
15835TIP3   OH268919   1.053   0.175   3.459 -0.1574 -0.5156  0.4406
15835TIP3    H168920   1.135   0.218   3.432 -0.3871 -0.8862 -0.9344
15835TIP3    H268921   1.026   0.126   3.381 -1.8018 -0.2388  0.8124
15836TIP3   OH268922   6.044   3.592   0.451 -0.0086  0.5434  0.3893
15836TIP3    H168923   6.067   3.555   0.536 -2.5195 -1.7174  0.2140
15836TIP3    H268924   6.000   3.675   0.473  2.9544  2.1091  0.9539
15837TIP3   OH268925   3.402   5.105  11.551  0.6481  0.0913  0.5209
15837TIP3    H168926   3.332   5.040  11.561  1.2924 -0.7718 -0.3992
15837TIP3    H268927   3.475   5.070  11.603  0.9982  0.0524  0.0143
15838TIP3   OH268928   2.455   2.343   5.012 -0.5505  0.2816  0.1432
15838TIP3    H168929   2.366   2.308   5.017 -0.6831  0.5099 -0.5014
15838TIP3    H268930   2.464   2.372   4.921  0.4326 -0.3966  0.0084
15839TIP3   OH268931   1.427   5.674  17.100 -0.2944  0.1655 -0.5006
15839TIP3    H168932   1.358   5.664  17.035 -0.8727  0.3283  0.0720
15839TIP3    H268933   1.495   5.612  17.074 -0.5320  0.2095 -1.2371
15840TIP3   OH268934   3.546   3.588  12.624 -0.3508  0.0217 -0.3241
15840TIP3    H168935   3.576   3.628  12.542 -0.3631 -1.1368 -0.9084
15840TIP3    H268936   3.474   3.645  12.653  1.2289  1.8432  0.1972
15841TIP3   OH268937   5.998   4.081   4.299  0.4155 -0.5271  0.3575
15841TIP3    H168938   6.030   3.994   4.323 -0.3431 -1.1095 -0.6616
15841TIP3    H268939   6.002   4.083   4.203  2.6492  1.4564  0.4007
15842TIP3   OH268940   3.197   3.290   3.198  0.4363 -0.3454  0.4270
15842TIP3    H168941   3.155   3.337   3.270  0.4802 -1.5656  1.2829
15842TIP3    H268942   3.216   3.203   3.234  0.7024 -0.8947 -0.9801
15843TIP3   OH268943   3.256   0.320   6.077  0.0994 -0.0702 -0.0522
15843TIP3    H168944   3.180   0.295   6.025  0.3630  0.5982 -0.7847
15843TIP3    H268945   3.220   0.377   6.145  0.0821  1.3393 -1.1941
15844TIP3   OH268946   1.335   6.666  12.449 -0.3334  0.1935 -0.1626
15844TIP3    H168947   1.391   6.597  12.486  0.8261  1.9217  1.4950
15844TIP3    H268948   1.328   6.643  12.357  0.4340 -1.8551  0.2186
15845TIP3   OH268949   3.111   2.770   6.114 -0.2995 -0.3676  0.7091
15845TIP3    H168950   3.042   2.707   6.092  0.0523 -0.0936 -1.3272
15845TIP3    H268951   3.084   2.850   6.070  0.7408  0.0782  0.8732
15846TIP3   OH268952   3.328   1.661   6.094  0.2977 -0.1217 -0.0863
15846TIP3    H168953   3.299   1.588   6.039  0.2674  0.3597 -0.7294
15846TIP3    H268954   3.397   1.625   6.149 -0.6100 -0.9573  0.5363
15847TIP3   OH268955   3.391   0.044  16.525 -0.1996  0.8192 -0.3986
15847TIP3    H168956   3.466   0.098  16.503  0.3234  0.7662  1.1572
15847TIP3    H268957   3.384  -0.019  16.453 -0.4140  2.4897 -1.9025
15848TIP3   OH268958   3.458   5.598  13.849 -0.5499 -0.3435 -0.5486
15848TIP3    H168959   3.551   5.623  13.856 -0.0926 -1.1846 -2.9108
15848TIP3    H268960   3.452   5.517  13.899 -0.1220 -0.0889 -0.0645
15849TIP3   OH268961   4.249   3.128  16.687 -0.2401  0.1841 -0.3369
15849TIP3    H168962   4.294   3.048  16.663 -0.8954 -0.2635 -0.1165
15849TIP3    H268963   4.256   3.133  16.782 -0.8362 -0.0111 -0.2765
15850TIP3   OH268964   1.870   4.949  13.234  0.5381  0.2183  0.2599
15850TIP3    H168965   1.837   4.877  13.288 -2.3007  0.7065 -0.6548
15850TIP3    H268966   1.814   5.023  13.257 -1.2404  0.3153 -3.6229
15851TIP3   OH268967   0.366   2.518   6.107 -0.4592 -0.7077  0.1146
15851TIP3    H168968   0.282   2.485   6.138 -1.5228  0.5569 -1.2600
15851TIP3    H268969   0.377   2.479   6.021 -0.6857  0.7653 -0.6032
15852TIP3   OH268970   5.770   1.056  16.984  0.3282  0.7135  0.3904
15852TIP3    H168971   5.723   1.025  17.062  0.6254  1.9667  1.0861
15852TIP3    H268972   5.824   0.981  16.958  0.6885  0.4645  1.7569
15853TIP3   OH268973   4.809   6.147   1.952 -0.1163 -0.1961  0.5357
15853TIP3    H168974   4.809   6.233   1.911  1.5194 -1.0491 -1.3925
15853TIP3    H268975   4.751   6.094   1.898  0.4714 -0.8213  0.5009
15854TIP3   OH268976   0.615   3.659  14.481  0.1532  0.7576 -0.1055
15854TIP3    H168977   0.696   3.667  14.431 -1.0403  0.4038 -2.2673
15854TIP3    H268978   0.579   3.748  14.483  0.1946  0.7695  0.1214
15855TIP3   OH268979   1.030   1.867   1.046  0.2223 -0.0665  0.0023
15855TIP3    H168980   1.110   1.866   1.098  0.3171 -0.7696 -0.1560
15855TIP3    H268981   1.024   1.780   1.008 -0.4836  0.0582 -0.1967
15856TIP3   OH268982   3.807   5.511   3.529  0.3903  0.2521 -0.7420
15856TIP3    H168983   3.897   5.540   3.517  0.3688  0.3598 -0.6406
15856TIP3    H268984   3.802   5.487   3.622  0.4832 -0.3271 -0.8781
15857TIP3   OH268985   6.289   2.251   4.850 -0.6299  0.0041 -0.2165
15857TIP3    H168986   6.383   2.246   4.831 -0.8245 -0.0935 -1.1836
15857TIP3    H268987   6.285   2.271   4.943  0.3662  1.8445 -0.5238
15858TIP3   OH268988   0.339   3.637  13.061 -0.1686  0.0416  0.0536
15858TIP3    H168989   0.296   3.576  13.001 -0.2038  0.1211 -0.0032
15858TIP3    H268990   0.409   3.677  13.009 -1.1287  1.2078 -0.4067
15859TIP3   OH268991   3.632   3.108  13.679  0.3082  0.5002  0.6177
15859TIP3    H168992   3.548   3.146  13.652 -0.0183  0.3953  1.4335
15859TIP3    H268993   3.668   3.171  13.741  0.9353  0.6399  0.1125
15860TIP3   OH268994   6.426   5.180  13.209 -0.5943  0.5246 -0.8454
15860TIP3    H168995   6.446   5.226  13.128 -0.3891 -0.5152 -1.4145
15860TIP3    H268996   6.474   5.097  13.201  0.5745  0.9638  0.9569
15861TIP3   OH268997   5.836   3.149  14.694  0.3580  0.2574 -0.2330
15861TIP3    H168998   5.903   3.095  14.737  1.2956  2.2459  0.9526
15861TIP3    H268999   5.859   3.146  14.601 -0.4563 -2.4346 -0.4370
15862TIP3   OH269000   0.890   4.043   1.398 -0.0594  0.4149  0.4944
15862TIP3    H169001   0.795   4.049   1.396  0.0029  1.2713 -0.3191
15862TIP3    H269002   0.910   3.955   1.367 -0.6237 -0.3831  2.2477
15863TIP3   OH269003   6.633   1.950   1.257  0.2279  0.1773 -0.0697
15863TIP3    H169004   6.636   2.038   1.294  2.8918  0.6623 -1.2130
15863TIP3    H269005   6.701   1.902   1.304  0.8879 -0.3547 -1.4986
15864TIP3   OH269006   5.018   0.736  16.575 -0.0918  0.6763 -0.5000
15864TIP3    H169007   4.997   0.820  16.532 -0.5686  1.4863  1.2453
15864TIP3    H269008   5.106   0.749  16.610 -0.5171  0.7699  0.5414
15865TIP3   OH269009   4.202   6.771  16.564 -0.1850 -0.3309 -0.1632
15865TIP3    H169010   4.107   6.770  16.551 -0.6575  2.4875  2.0708
15865TIP3    H269011   4.237   6.811  16.484 -1.0611  0.1660 -0.3093
15866TIP3   OH269012   6.009   3.079   5.784  0.2612  0.4091  0.3840
15866TIP3    H169013   6.018   3.175   5.787  1.1732  0.3861 -0.6522
15866TIP3    H269014   6.091   3.047   5.821 -0.7576 -0.0171  2.3600
15867TIP3   OH269015   3.004   0.869  12.322 -0.9984 -0.8665  0.2069
15867TIP3    H169016   3.048   0.887  12.405  1.7608  0.8145 -1.4537
15867TIP3    H269017   2.925   0.925  12.324  0.0300  0.6333  0.9609
15868TIP3   OH269018   1.902   2.199  13.463 -0.2589  0.4770  0.5295
15868TIP3    H169019   1.895   2.294  13.478  2.3526  0.5870  1.5432
15868TIP3    H269020   1.902   2.190  13.368  0.5409  1.6214  0.4049
15869TIP3   OH269021   4.776   2.011   3.637 -0.0125 -0.0278 -0.1309
15869TIP3    H169022   4.773   2.079   3.705 -1.4502  0.3424 -0.5365
15869TIP3    H269023   4.864   2.018   3.601 -0.1442  1.6803 -0.2018
15870TIP3   OH269024   4.223   3.270   2.257  0.6705  0.5690  0.0065
15870TIP3    H169025   4.202   3.229   2.173  0.1359  2.9797 -1.1379
15870TIP3    H269026   4.138   3.280   2.301  0.9155 -0.4282  0.7448
15871TIP3   OH269027   3.434   3.352   0.343 -0.0010 -0.1215  0.6773
15871TIP3    H169028   3.457   3.262   0.366 -0.8120 -0.5186  0.0077
15871TIP3    H269029   3.478   3.406   0.408 -0.9683 -1.1003  2.2013
15872TIP3   OH269030   6.470   1.997  14.798  0.1802 -0.3285  0.3646
15872TIP3    H169031   6.466   2.014  14.704 -0.7272 -2.0518  0.0490
15872TIP3    H269032   6.530   2.063  14.832  0.1406  0.6407 -1.3434
15873TIP3   OH269033   2.572   2.458   5.231  0.9141 -0.2611 -0.0038
15873TIP3    H169034   2.537   2.399   5.164  1.4083  0.7343 -1.1859
15873TIP3    H269035   2.500   2.518   5.249  0.5977 -0.8647  0.7836
15874TIP3   OH269036   1.603   5.323  14.185 -0.6440 -0.3157 -0.5251
15874TIP3    H169037   1.542   5.329  14.112 -1.0717 -3.2115 -0.5279
15874TIP3    H269038   1.551   5.345  14.262 -0.9903 -0.1702 -0.7970
15875TIP3   OH269039   2.026   6.650  16.791 -0.3973 -0.3826  0.1842
15875TIP3    H169040   2.054   6.560  16.811  0.7633  0.0715  0.6761
15875TIP3    H269041   2.020   6.693  16.876 -0.6183  0.0987 -0.0731
15876TIP3   OH269042   5.814   6.269   2.867 -0.1487 -0.4058 -0.1951
15876TIP3    H169043   5.823   6.300   2.957 -0.3836 -0.7406 -0.0560
15876TIP3    H269044   5.730   6.223   2.866 -0.4898  0.2054 -0.7606
15877TIP3   OH269045   5.642   4.750  11.706 -0.1104 -0.0629  0.2872
15877TIP3    H169046   5.661   4.656  11.708 -1.9932 -0.4595  2.3252
15877TIP3    H269047   5.571   4.758  11.642  0.2546  0.0232 -0.1094
15878TIP3   OH269048   0.681   1.028   1.704  0.0082 -0.5957  0.3388
15878TIP3    H169049   0.684   1.037   1.800  0.8452 -2.1064  0.4908
15878TIP3    H269050   0.590   1.045   1.681 -0.0590  0.4955  1.3213
15879TIP3   OH269051   6.016   2.089   4.244  0.4790  0.2165  0.0430
15879TIP3    H169052   6.085   2.099   4.310  0.8344  0.3865 -0.3429
15879TIP3    H269053   5.987   2.179   4.226 -0.7346  0.0499  1.1190
15880TIP3   OH269054   3.016   5.506  14.759 -0.4939 -0.3663 -0.5456
15880TIP3    H169055   2.935   5.556  14.761 -1.0609 -1.2098 -1.6430
15880TIP3    H269056   3.038   5.498  14.666  0.4087 -0.8447 -0.3062
15881TIP3   OH269057   6.790   6.491   4.335  1.0573  0.1640  0.2589
15881TIP3    H169058   6.707   6.446   4.350  0.4186  0.7328 -1.3554
15881TIP3    H269059   6.856   6.435   4.377 -0.0980 -0.4306  1.3325
15882TIP3   OH269060   4.743   1.707  16.416 -0.0952  0.1639  0.6329
15882TIP3    H169061   4.681   1.774  16.388 -0.1643 -0.2273 -0.1698
15882TIP3    H269062   4.696   1.625  16.409  0.5220 -0.1447 -0.0450
15883TIP3   OH269063   1.253   5.273   2.459  0.8183 -0.5885  0.2707
15883TIP3    H169064   1.191   5.228   2.402 -1.3161  1.7113  0.5984
15883TIP3    H269065   1.235   5.238   2.546 -1.0958  1.0266  0.5847
15884TIP3   OH269066   3.649   4.538  13.490  0.0852  0.7781 -0.4339
15884TIP3    H169067   3.601   4.590  13.425  2.1483  2.0299 -1.0433
15884TIP3    H269068   3.741   4.552  13.468  0.7936 -3.0890 -0.5491
15885TIP3   OH269069   5.846   0.161  14.108 -0.2773 -0.0067 -0.3327
15885TIP3    H169070   5.751   0.170  14.100 -0.1555  0.0022 -2.2013
15885TIP3    H269071   5.874   0.124  14.024  1.1064 -2.4514  1.0626
15886TIP3   OH269072   4.413   4.208  13.700 -0.5580 -0.5446  0.1456
15886TIP3    H169073   4.372   4.192  13.615 -2.7691  0.9775  0.8548
15886TIP3    H269074   4.362   4.156  13.762  0.2091 -0.6025  0.7495
15887TIP3   OH269075   2.763   5.117   2.833 -0.3143  0.6430  0.0206
15887TIP3    H169076   2.776   5.209   2.811  0.8164  0.7916  1.1786
15887TIP3    H269077   2.668   5.109   2.846 -0.4785  1.5270 -0.5218
15888TIP3   OH269078   1.209   6.714  11.585  0.8251 -0.5418 -0.5233
15888TIP3    H169079   1.197   6.771  11.662 -0.0471 -0.0643 -0.9928
15888TIP3    H269080   1.133   6.732  11.530  0.7242 -1.9027 -0.8652
15889TIP3   OH269081   0.966   1.605   1.629 -0.6094 -0.0267 -0.3712
15889TIP3    H169082   0.958   1.612   1.534 -1.1374 -2.4171 -0.5811
15889TIP3    H269083   0.889   1.554   1.656  0.1457 -0.4239  1.1605
15890TIP3   OH269084   6.558   0.213   6.047 -0.2106 -0.3109  0.6569
15890TIP3    H169085   6.646   0.196   6.014 -1.0616 -1.3227 -1.2754
15890TIP3    H269086   6.536   0.301   6.014  0.1263  0.0063  1.2732
15891TIP3   OH269087   5.176   4.007   4.077  0.1934 -0.1159  0.1729
15891TIP3    H169088   5.215   3.925   4.108 -0.9647 -1.1715 -1.0261
15891TIP3    H269089   5.082   3.989   4.075  0.1241  0.1378 -3.0651
15892TIP3   OH269090   3.385   6.160   6.021  0.2606  0.3596  0.4038
15892TIP3    H169091   3.407   6.137   6.112  0.9903  0.2761  0.2117
15892TIP3    H269092   3.466   6.194   5.985  0.0705  0.0517 -0.3306
15893TIP3   OH269093   4.165   2.827   4.116  0.1165  0.1665 -0.0987
15893TIP3    H169094   4.188   2.741   4.151  3.1997  0.0117 -2.0537
15893TIP3    H269095   4.122   2.808   4.032 -0.9540  0.5604  0.3477
15894TIP3   OH269096   6.183   3.431   5.688 -0.3982 -0.2241  0.3135
15894TIP3    H169097   6.199   3.525   5.680 -3.5305  0.6805  2.8453
15894TIP3    H269098   6.270   3.393   5.702  0.6817  2.6984  2.4144
15895TIP3   OH269099   5.542   4.178  10.786  0.5011 -0.1656  0.3380
15895TIP3    H169100   5.472   4.195  10.850  1.6145  1.7631  1.1470
15895TIP3    H269101   5.498   4.134  10.713 -1.6907  1.4437  0.5830
15896TIP3   OH269102   3.906   3.476  12.540 -0.0678 -0.4877  0.0645
15896TIP3    H169103   3.948   3.393  12.518 -1.0689 -1.0419  0.1784
15896TIP3    H269104   3.873   3.464  12.629 -0.0446  0.1052  0.1600
15897TIP3   OH269105   1.272   4.332   1.370  0.1420 -0.0239 -0.1934
15897TIP3    H169106   1.287   4.287   1.453  2.7706 -2.1389 -1.6417
15897TIP3    H269107   1.327   4.410   1.374 -1.5989  1.2270  0.8895
15898TIP3   OH269108   2.571   1.273  17.067  0.6778 -0.0036  0.0355
15898TIP3    H169109   2.636   1.265  16.997 -0.7171 -3.8767 -1.1014
15898TIP3    H269110   2.490   1.243  17.027 -0.7706  0.1488  2.6466
15899TIP3   OH269111   0.968   4.947   2.682 -0.0409 -0.3739 -0.1976
15899TIP3    H169112   0.918   5.021   2.716  0.8276 -0.9884  2.6799
15899TIP3    H269113   0.923   4.870   2.717  1.0147 -1.0753 -0.3342
15900TIP3   OH269114   6.211   4.048  10.796 -0.1563 -0.1393  0.0696
15900TIP3    H169115   6.154   4.080  10.726 -1.7421  0.7183  1.6945
15900TIP3    H269116   6.153   4.004  10.858  1.1502 -0.5355  1.0830
15901TIP3   OH269117   5.001   2.977   1.110 -0.0018  0.1777  0.2612
15901TIP3    H169118   5.059   2.992   1.036  0.3904  0.1358  0.5594
15901TIP3    H269119   4.930   3.040   1.099 -0.3004 -0.2825 -0.5197
15902TIP3   OH269120   5.099   5.579  12.808  0.2743 -0.3691 -0.5513
15902TIP3    H169121   5.098   5.483  12.810  0.8260 -0.3964 -1.4291
15902TIP3    H269122   5.010   5.603  12.836 -0.2137 -1.1603 -1.3634
15903TIP3   OH269123   3.095   1.224   0.937  0.1779 -0.2964  0.3726
15903TIP3    H169124   3.010   1.217   0.893  0.5731  0.5154 -0.5527
15903TIP3    H269125   3.080   1.188   1.025 -1.2710  0.3810  0.4211
15904TIP3   OH269126   5.728   2.073  10.352  0.0386 -0.2778  0.1628
15904TIP3    H169127   5.637   2.074  10.382  0.2011  0.3658  0.6485
15904TIP3    H269128   5.764   1.992  10.388  0.2636  0.5283  1.8287
15905TIP3   OH269129   5.820   0.472   6.065  0.2950  0.3691  0.4593
15905TIP3    H169130   5.748   0.455   6.125  0.3966  0.7045  0.6774
15905TIP3    H269131   5.887   0.407   6.087  0.1945  0.2747  0.4824
15906TIP3   OH269132   5.429   0.794   2.611 -0.5490  0.4136  0.2207
15906TIP3    H169133   5.411   0.888   2.613 -1.1217  0.3559 -1.1192
15906TIP3    H269134   5.481   0.778   2.690 -1.2781  1.6704  0.9861
15907TIP3   OH269135   4.151   2.071  15.577 -0.8455 -0.0550  0.5578
15907TIP3    H169136   4.210   2.147  15.575 -1.9174  0.7981  0.4192
15907TIP3    H269137   4.171   2.028  15.660 -0.8036  0.8665  1.0432
15908TIP3   OH269138   0.587   5.881  12.127 -0.2837 -0.3587  0.2973
15908TIP3    H169139   0.542   5.841  12.201 -0.7912 -0.2368  0.0618
15908TIP3    H269140   0.672   5.838  12.123 -0.2346 -0.3317  0.9800
15909TIP3   OH269141   2.608   6.513   1.076 -0.0917  0.2593 -1.0018
15909TIP3    H169142   2.636   6.463   0.999 -0.4321 -0.0267 -0.9378
15909TIP3    H269143   2.615   6.452   1.149  0.4880  0.6107 -0.7573
15910TIP3   OH269144   4.432   1.083  16.072  0.6706 -0.0609 -0.0249
15910TIP3    H169145   4.380   1.003  16.065 -0.3282  0.2277  2.8029
15910TIP3    H269146   4.368   1.152  16.085  1.5194  1.2869 -2.3772
15911TIP3   OH269147   1.673   0.337   0.931 -0.3262  0.3527 -0.6684
15911TIP3    H169148   1.625   0.375   1.006 -0.1161  1.7135 -1.1863
15911TIP3    H269149   1.655   0.397   0.859  1.0463  0.1290 -1.2259
15912TIP3   OH269150   0.848   4.206   4.274  0.2407 -0.2263  0.3246
15912TIP3    H169151   0.812   4.141   4.335 -1.3523  1.1168  0.8907
15912TIP3    H269152   0.869   4.282   4.329  1.7709 -0.1134 -0.3653
15913TIP3   OH269153   0.963   1.788  15.766 -0.1139  0.2407 -0.4649
15913TIP3    H169154   1.031   1.834  15.816 -2.2243  2.0468  0.9770
15913TIP3    H269155   0.971   1.822  15.677  2.0537 -1.0661 -0.8286
15914TIP3   OH269156   6.451   6.749  11.603 -0.1320  0.1632  0.3415
15914TIP3    H169157   6.440   6.768  11.696  2.0433 -1.0929  0.9351
15914TIP3    H269158   6.477   6.832  11.564  1.7019  0.1717  1.4364
15915TIP3   OH269159   0.715   1.834   1.363 -0.5365  0.8882  0.0635
15915TIP3    H169160   0.656   1.898   1.323 -0.4710  1.0755  0.2659
15915TIP3    H269161   0.692   1.836   1.456 -0.5600  0.5897  0.0647
15916TIP3   OH269162   5.305   6.438  12.363 -0.4065  0.1130 -0.4629
15916TIP3    H169163   5.392   6.450  12.400 -0.5714 -1.5747  0.5694
15916TIP3    H269164   5.300   6.346  12.340 -1.9112  0.1727 -0.5067
15917TIP3   OH269165   5.461   4.797  11.495  0.6602  0.3241  0.3770
15917TIP3    H169166   5.442   4.890  11.509 -0.0463  0.1325  0.7478
15917TIP3    H269167   5.393   4.768  11.433  1.0138  0.1111  0.0884
15918TIP3   OH269168   3.868   5.180   1.443 -0.1178 -0.3523  0.0205
15918TIP3    H169169   3.837   5.173   1.533  0.7981 -0.4261  0.3366
15918TIP3    H269170   3.800   5.137   1.391 -0.6988 -0.2261  0.6615
15919TIP3   OH269171   4.714   5.133  15.624  0.3875 -0.4559 -0.1748
15919TIP3    H169172   4.793   5.173  15.660 -1.7542  2.6437  1.6069
15919TIP3    H269173   4.694   5.187  15.547  0.1796 -1.4645 -0.8457
15920TIP3   OH269174   0.334   3.143  13.598  0.5299 -0.7390  0.2996
15920TIP3    H169175   0.422   3.120  13.569  1.0520 -1.1592  2.1202
15920TIP3    H269176   0.345   3.226  13.644  0.2372 -1.4675  1.7275
15921TIP3   OH269177   0.091   4.093  13.238  0.3980 -0.3384  0.3176
15921TIP3    H169178   0.047   4.031  13.297 -2.0401 -0.6265 -1.6561
15921TIP3    H269179   0.136   4.037  13.175 -0.6774 -0.1468 -0.6539
15922TIP3   OH269180   1.374   5.169   3.082  0.2443 -0.1210 -0.5916
15922TIP3    H169181   1.395   5.231   3.013 -0.0712 -0.5007 -1.0335
15922TIP3    H269182   1.423   5.090   3.059 -1.3078 -0.8838 -1.4156
15923TIP3   OH269183   5.478   1.553   5.093 -0.1551  0.0436 -0.4635
15923TIP3    H169184   5.553   1.540   5.035  0.0917  0.3171 -0.2134
15923TIP3    H269185   5.514   1.602   5.168 -0.3963 -0.5845  0.0768
15924TIP3   OH269186   0.368   0.808  15.378  0.4882  0.1902  0.5800
15924TIP3    H169187   0.309   0.821  15.303 -0.3448 -1.0614  0.9822
15924TIP3    H269188   0.415   0.891  15.386 -0.6075  0.9356 -0.2992
15925TIP3   OH269189   2.036   5.030   4.099 -0.1560  0.1100  0.4027
15925TIP3    H169190   2.044   5.051   4.006  0.8107  0.4616  0.5587
15925TIP3    H269191   2.109   5.076   4.141  0.2404 -1.1485  1.1469
15926TIP3   OH269192   6.404   4.807  16.104 -0.4386  0.4381  0.1795
15926TIP3    H169193   6.319   4.850  16.105 -0.0362  1.2480  0.7301
15926TIP3    H269194   6.418   4.783  16.012 -2.1879 -1.6500  0.3866
15927TIP3   OH269195   5.571   3.495   6.250 -0.1237 -0.1369 -0.6777
15927TIP3    H169196   5.661   3.464   6.257  0.1369  0.9542  3.9211
15927TIP3    H269197   5.578   3.590   6.258 -1.6315 -0.0008 -0.7349
15928TIP3   OH269198   2.551   0.550  13.703 -0.2189  0.2800  0.1764
15928TIP3    H169199   2.535   0.643  13.684  1.2591  0.5355  0.0820
15928TIP3    H269200   2.645   0.539  13.692 -0.4987 -1.4796 -0.8254
15929TIP3   OH269201   6.241   4.099  16.800 -0.5123  0.6466  0.0001
15929TIP3    H169202   6.244   4.168  16.734 -0.4061  2.4932  1.8276
15929TIP3    H269203   6.148   4.080  16.811 -0.5516  0.5999 -0.4021
15930TIP3   OH269204   1.564   4.742  14.967  0.6287 -0.3838  0.5148
15930TIP3    H169205   1.598   4.719  15.053  0.1795  0.1666  0.8403
15930TIP3    H269206   1.632   4.796  14.927  0.5506 -0.0746  0.7958
15931TIP3   OH269207   2.526   4.752   0.950  0.2059  0.0799  0.3011
15931TIP3    H169208   2.465   4.693   0.995  0.9055 -0.5844  0.4079
15931TIP3    H269209   2.611   4.710   0.961  0.5935  0.6735 -0.3802
15932TIP3   OH269210   0.929   6.585  11.242 -0.2883  0.6060 -0.4733
15932TIP3    H169211   0.956   6.526  11.172  0.1939  0.0194  0.1847
15932TIP3    H269212   0.866   6.644  11.202  1.1942  1.3318 -1.8132
15933TIP3   OH269213   1.409   0.428  13.395 -0.5771  0.0331  0.5785
15933TIP3    H169214   1.329   0.377  13.379  0.3967 -1.0946 -1.0311
15933TIP3    H269215   1.462   0.371  13.450 -1.3360  1.3142  2.7569
15934TIP3   OH269216   1.475   0.642   3.088  0.0548  0.1003 -0.5523
15934TIP3    H169217   1.558   0.688   3.073  0.4222 -0.6026 -0.7744
15934TIP3    H269218   1.486   0.558   3.043  0.0472 -0.8842  1.1575
15935TIP3   OH269219   2.180   6.516   0.449  0.4326 -0.3335  0.3960
15935TIP3    H169220   2.235   6.448   0.410 -0.7729 -3.1647  3.2371
15935TIP3    H269221   2.104   6.470   0.483  0.6592  1.9063  4.6796
15936TIP3   OH269222   6.083   1.258  13.763 -0.0940  0.1290  0.2471
15936TIP3    H169223   5.991   1.249  13.741 -0.9984 -0.0124  3.5493
15936TIP3    H269224   6.091   1.348  13.796  0.6483 -0.2460  1.1300
15937TIP3   OH269225   5.913   6.025  14.270  0.2223 -0.1917 -0.5577
15937TIP3    H169226   5.978   6.071  14.323 -0.3689 -0.4227  0.4021
15937TIP3    H269227   5.830   6.065  14.294  0.0033  0.2233 -1.9025
15938TIP3   OH269228   5.125   0.364   0.325  0.5549  0.2425 -0.3927
15938TIP3    H169229   5.032   0.385   0.326  0.7255  1.1096 -1.0414
15938TIP3    H269230   5.147   0.356   0.232  0.9361 -0.9058 -0.2231
15939TIP3   OH269231   0.766   2.861  12.382 -0.2649 -0.3530 -0.5178
15939TIP3    H169232   0.678   2.890  12.408  0.2376  1.3849 -0.5972
15939TIP3    H269233   0.797   2.808  12.456 -1.0255 -0.2122 -0.0867
15940TIP3   OH269234   3.961   2.776  10.761 -0.2747  0.2681  0.0100
15940TIP3    H169235   3.963   2.690  10.801 -0.1735 -0.0179 -0.5884
15940TIP3    H269236   3.879   2.815  10.791 -0.1956  0.0639  0.4866
15941TIP3   OH269237   0.965   3.278   2.546 -0.0056  0.7621  0.4541
15941TIP3    H169238   0.900   3.307   2.483  0.6907  1.6630  0.1262
15941TIP3    H269239   1.001   3.359   2.583 -0.1715  0.2635  1.7786
15942TIP3   OH269240   0.181   2.773   3.477  0.2158 -0.0181  0.3002
15942TIP3    H169241   0.199   2.690   3.522 -1.0312 -0.1005  0.7078
15942TIP3    H269242   0.087   2.770   3.458  0.1724  1.2426  0.2014
15943TIP3   OH269243   1.796   1.865  13.122 -0.6476 -1.0394 -0.1195
15943TIP3    H169244   1.823   1.891  13.034  0.5767  0.2679  0.5845
15943TIP3    H269245   1.725   1.925  13.144  0.1530 -0.2531  0.3779
15944TIP3   OH269246   0.358   3.929   4.887  0.0048  0.0111  0.1219
15944TIP3    H169247   0.424   3.979   4.934  1.8628 -1.2110 -1.0523
15944TIP3    H269248   0.408   3.872   4.829 -2.1159 -0.5994 -1.2149
15945TIP3   OH269249   6.242   0.549  14.463  0.0586 -0.4180 -0.2308
15945TIP3    H169250   6.304   0.519  14.530 -0.4526 -0.8364  0.0657
15945TIP3    H269251   6.272   0.509  14.382  0.4820 -0.1897 -0.1866
15946TIP3   OH269252   4.571   5.939  12.359  0.1216 -0.1476 -0.0511
15946TIP3    H169253   4.563   5.900  12.446 -1.1108 -1.0168 -0.5242
15946TIP3    H269254   4.641   6.004  12.368  0.0073 -0.2110  1.5850
15947TIP3   OH269255   5.156   6.579  17.157 -0.0474 -0.6475 -0.1905
15947TIP3    H169256   5.160   6.657  17.213  0.7379 -0.5647 -0.3487
15947TIP3    H269257   5.248   6.561  17.135 -0.3252 -0.8052 -1.2721
15948TIP3   OH269258   6.221   3.188   3.174 -0.1994  0.1662 -0.3844
15948TIP3    H169259   6.251   3.167   3.086  0.1762 -1.0045  0.0002
15948TIP3    H269260   6.255   3.116   3.229 -0.1566  1.0279  0.7604
15949TIP3   OH269261   6.113   3.327   2.046 -0.1956  0.2672  0.0871
15949TIP3    H169262   6.060   3.384   1.991 -3.4095 -0.6045  2.0461
15949TIP3    H269263   6.092   3.352   2.135  3.5524  0.4745  1.0988
15950TIP3   OH269264   5.897   4.840  15.945  0.3020  0.0398  0.3254
15950TIP3    H169265   5.961   4.782  15.904 -1.0423 -1.1553 -0.1348
15950TIP3    H269266   5.908   4.825  16.038  0.0070 -0.9359  0.2147
15951TIP3   OH269267   5.529   3.379   0.717  0.3929 -0.3622  0.2522
15951TIP3    H169268   5.444   3.339   0.735  0.0427 -0.9202 -2.3242
15951TIP3    H269269   5.510   3.472   0.701  0.7000  0.1237  2.3100
15952TIP3   OH269270   3.699   1.775   1.102 -0.1203  0.4208 -0.1680
15952TIP3    H169271   3.633   1.769   1.033 -0.7139 -1.8607  0.5117
15952TIP3    H269272   3.783   1.770   1.056 -0.4560  0.9163 -0.8533
15953TIP3   OH269273   6.117   5.400   4.022  0.0136  0.3345 -0.2922
15953TIP3    H169274   6.122   5.378   4.115  1.6895  0.9013 -0.2048
15953TIP3    H269275   6.129   5.317   3.977  2.3110  0.4143  0.0345
15954TIP3   OH269276   6.194   4.973  16.627 -0.1218  0.4563 -0.2345
15954TIP3    H169277   6.179   4.883  16.600  0.6770  0.3279 -0.2729
15954TIP3    H269278   6.288   4.977  16.647 -0.0260  1.4269 -0.8137
15955TIP3   OH269279   1.452   4.026  12.380 -0.5693 -0.3013  0.7323
15955TIP3    H169280   1.436   3.961  12.312 -0.0288 -0.0732  0.3856
15955TIP3    H269281   1.364   4.054  12.408 -0.7931 -0.6352  0.3663
15956TIP3   OH269282   2.309   2.289   5.319  0.1476  0.9440  0.7819
15956TIP3    H169283   2.260   2.274   5.400  0.4057 -0.1402  0.7488
15956TIP3    H269284   2.396   2.253   5.336  0.4757  1.4954  0.3197
15957TIP3   OH269285   4.278   2.525   4.564  0.0230  0.5527 -0.3490
15957TIP3    H169286   4.185   2.504   4.558  0.1612 -0.1127 -0.2444
15957TIP3    H269287   4.283   2.593   4.631 -0.0605 -1.7179  2.1064
15958TIP3   OH269288   1.997   2.892  14.758 -0.1274  0.0238  0.2651
15958TIP3    H169289   2.036   2.955  14.818 -2.1640  0.7598  0.8726
15958TIP3    H269290   2.072   2.840  14.727  1.3503  1.4965  1.1785
15959TIP3   OH269291   0.903   5.795  13.268  0.0258 -0.1371  0.5254
15959TIP3    H169292   0.830   5.733  13.270 -0.5796  0.5079 -0.4265
15959TIP3    H269293   0.940   5.792  13.355 -0.3917 -1.3737  0.6758
15960TIP3   OH269294   5.410   4.234   0.710  0.4965 -0.1136  0.1493
15960TIP3    H169295   5.364   4.189   0.780  0.9523 -2.3276 -0.8851
15960TIP3    H269296   5.503   4.231   0.735  0.7009 -1.2247 -0.6680
15961TIP3   OH269297   3.492   1.092   2.059  0.3196 -0.2150  0.3438
15961TIP3    H169298   3.568   1.036   2.077  0.8072 -0.6730 -2.6371
15961TIP3    H269299   3.522   1.180   2.083  0.7994 -0.7160  1.7219
15962TIP3   OH269300   3.314   5.430  16.929  0.6823  0.3420  0.3834
15962TIP3    H169301   3.232   5.464  16.894 -0.1100  1.0792  2.7264
15962TIP3    H269302   3.374   5.503  16.924  2.2304 -0.9547 -3.9266
15963TIP3   OH269303   5.982   5.474  14.950  0.1532  0.1486 -0.0130
15963TIP3    H169304   5.938   5.488  15.034 -0.8480  1.3243 -0.6983
15963TIP3    H269305   6.065   5.521  14.957  0.5172 -0.5676  0.6428
15964TIP3   OH269306   4.496   6.592   1.014  0.3741  0.1892 -0.2239
15964TIP3    H169307   4.500   6.497   1.008 -1.6729  0.0016  0.6776
15964TIP3    H269308   4.528   6.612   1.102 -0.8528  0.1513  0.2535
15965TIP3   OH269309   0.707   3.057  15.557  0.0791  0.5790 -0.2321
15965TIP3    H169310   0.786   3.086  15.511 -0.2519  1.1049 -0.4729
15965TIP3    H269311   0.667   3.137  15.589 -0.1615  0.2832  0.2176
15966TIP3   OH269312   3.020   6.694   3.756 -0.2159 -0.3870  0.6945
15966TIP3    H169313   3.028   6.620   3.696  0.6064  0.8984 -0.8886
15966TIP3    H269314   2.968   6.758   3.707  0.1993  0.5907  1.4876
15967TIP3   OH269315   3.835   5.247   0.900 -0.2276 -0.7824 -0.1603
15967TIP3    H169316   3.922   5.271   0.866 -1.0436 -0.2093 -1.9948
15967TIP3    H269317   3.810   5.322   0.955 -0.6176  0.3190 -1.7563
15968TIP3   OH269318   2.902   2.226  11.961 -0.3684  0.5975  0.4385
15968TIP3    H169319   2.860   2.257  12.041  0.4971  1.7844  0.4507
15968TIP3    H269320   2.959   2.297  11.934  0.9593 -0.6070 -0.0744
15969TIP3   OH269321   5.866   3.898  12.697 -0.2451  0.3068  0.3880
15969TIP3    H169322   5.895   3.970  12.641  1.0981 -0.1442  0.4631
15969TIP3    H269323   5.903   3.820  12.656  0.3453 -0.0804  1.6358
15970TIP3   OH269324   0.082   6.582   1.971  0.2191  0.3929 -1.0892
15970TIP3    H169325   0.111   6.508   2.024 -2.3076 -0.0429 -0.1978
15970TIP3    H269326   0.127   6.657   2.009 -1.5195  0.1210  1.8828
15971TIP3   OH269327   4.307   6.268   3.785  0.0576  0.0732  0.1662
15971TIP3    H169328   4.338   6.210   3.716 -0.6483 -1.0562  0.7722
15971TIP3    H269329   4.366   6.252   3.859 -0.6154 -0.4763  0.5966
15972TIP3   OH269330   3.324   5.877   5.534  0.5309 -0.1384  0.2712
15972TIP3    H169331   3.393   5.883   5.469 -0.5937 -1.0953 -1.0888
15972TIP3    H269332   3.302   5.784   5.537 -1.4698  0.2805 -0.1971
15973TIP3   OH269333   5.290   3.502  12.054  0.1866 -0.1953  0.1043
15973TIP3    H169334   5.223   3.550  12.102 -0.5624 -2.0404  1.0100
15973TIP3    H269335   5.253   3.488  11.967  0.9843  1.9867 -0.6365
15974TIP3   OH269336   2.467   3.039   1.574  0.1865  0.2121 -0.0339
15974TIP3    H169337   2.528   3.087   1.630 -0.5905  2.0619 -0.6608
15974TIP3    H269338   2.382   3.051   1.616 -0.4285  1.7310 -1.5620
15975TIP3   OH269339   2.655   3.458  15.090  0.0671 -0.1785  0.3707
15975TIP3    H169340   2.728   3.443  15.150  0.2278  1.2526  0.5694
15975TIP3    H269341   2.605   3.376  15.092  0.5405 -0.4664  1.7934
15976TIP3   OH269342   3.668   4.508  16.866  0.2080  0.3268  0.2152
15976TIP3    H169343   3.728   4.565  16.818  0.9824  0.0319  0.8110
15976TIP3    H269344   3.586   4.557  16.870 -0.3244 -0.1852 -2.5510
15977TIP3   OH269345   4.231   6.480  14.870 -0.1961  0.1244  0.2089
15977TIP3    H169346   4.314   6.527  14.881 -0.3094  0.7511 -1.3924
15977TIP3    H269347   4.255   6.388  14.875  0.4588  0.3117  0.6274
15978TIP3   OH269348   1.643   2.480  10.891 -0.1840  0.2222  0.1637
15978TIP3    H169349   1.593   2.549  10.934  0.6958  1.9132 -1.3924
15978TIP3    H269350   1.621   2.489  10.798  0.4289 -1.2090 -0.1545
15979TIP3   OH269351   4.849   6.504   1.234 -0.0367 -0.1307 -0.4804
15979TIP3    H169352   4.884   6.582   1.190  0.5964 -0.8214 -1.2516
15979TIP3    H269353   4.855   6.436   1.167 -1.8393 -0.5384 -0.2476
15980TIP3   OH269354   2.403   1.018   1.651 -0.3990 -0.2371  0.1219
15980TIP3    H169355   2.410   1.035   1.556 -0.2574 -2.2416 -0.2629
15980TIP3    H269356   2.320   0.972   1.661  0.3459 -1.5118  0.7093
15981TIP3   OH269357   5.488   5.089  12.587  0.2770 -0.0345 -0.1052
15981TIP3    H169358   5.579   5.070  12.564  1.3147  3.8082  0.1915
15981TIP3    H269359   5.482   5.067  12.680  0.9134 -0.2458 -0.1080
15982TIP3   OH269360   5.853   2.611  13.714 -0.3316 -0.5656 -0.1096
15982TIP3    H169361   5.869   2.702  13.686  1.2151 -0.9198 -0.4554
15982TIP3    H269362   5.814   2.619  13.801 -0.2659  0.4231 -0.1603
15983TIP3   OH269363   2.932   1.366  15.051 -0.4826 -0.4171  0.0018
15983TIP3    H169364   2.871   1.405  15.114 -1.2303 -1.7347  0.1453
15983TIP3    H269365   3.015   1.410  15.068 -1.1496  0.7042  0.5013
15984TIP3   OH269366   2.241   6.342   3.270  0.1113 -0.2639  0.4454
15984TIP3    H169367   2.291   6.347   3.189 -1.2544 -0.2742 -0.4277
15984TIP3    H269368   2.296   6.290   3.329  0.4598 -1.5848 -0.9759
15985TIP3   OH269369   1.811   4.139  13.624  0.1049 -0.3429 -0.8230
15985TIP3    H169370   1.716   4.126  13.621 -0.0450  0.5191 -0.1360
15985TIP3    H269371   1.838   4.103  13.708  0.0454  1.3947 -0.0251
15986TIP3   OH269372   2.368   5.855  11.232  0.2537  0.4007  0.2485
15986TIP3    H169373   2.411   5.935  11.201  1.0942  1.1001  2.9492
15986TIP3    H269374   2.324   5.881  11.312 -1.7557 -1.3016 -0.2325
15987TIP3   OH269375   2.279   1.900   3.777  0.5503 -0.3457  0.2017
15987TIP3    H169376   2.191   1.866   3.763  0.5915 -0.7221  0.8122
15987TIP3    H269377   2.290   1.900   3.873  0.9609  0.3432  0.1640
15988TIP3   OH269378   2.707   0.234  14.954  0.0376  0.2150  0.1876
15988TIP3    H169379   2.638   0.216  14.891  0.4802 -1.6899  0.1651
15988TIP3    H269380   2.779   0.176  14.928  0.9503  0.7915  1.2976
15989TIP3   OH269381   6.708   2.321   0.359 -0.3581 -0.2070  0.2399
15989TIP3    H169382   6.746   2.252   0.305 -0.9441 -0.3160 -0.0487
15989TIP3    H269383   6.666   2.380   0.296 -1.5867 -0.6689  0.5967
15990TIP3   OH269384   1.243   2.245   0.209  0.3557  0.6142  0.1309
15990TIP3    H169385   1.171   2.285   0.160  0.8457  2.2525  0.6805
15990TIP3    H269386   1.226   2.151   0.203 -1.2976  0.9079 -0.5569
15991TIP3   OH269387   4.511   1.650   4.666 -0.0419  0.3038  0.1001
15991TIP3    H169388   4.528   1.631   4.573 -0.6186 -0.6970  0.1936
15991TIP3    H269389   4.419   1.630   4.678  0.2164 -0.3313  1.0795
15992TIP3   OH269390   5.244   0.896   4.548  0.5392 -0.8346  0.0138
15992TIP3    H169391   5.208   0.809   4.532  0.6445 -0.9533  0.4161
15992TIP3    H269392   5.204   0.951   4.480  0.5847 -1.2226 -0.3318
15993TIP3   OH269393   3.271   1.681   3.754  0.8643  0.0266 -0.1898
15993TIP3    H169394   3.333   1.729   3.700 -1.4162  3.8159  0.2102
15993TIP3    H269395   3.201   1.657   3.694  0.1357  0.8001  0.3300
15994TIP3   OH269396   5.806   0.413  13.112  0.1896  0.2868 -0.2247
15994TIP3    H169397   5.727   0.450  13.072  1.2459  1.6047 -1.1684
15994TIP3    H269398   5.773   0.359  13.184 -1.5353  1.2906 -0.2010
15995TIP3   OH269399   6.684   1.215  11.359 -0.6541  0.3900  0.6120
15995TIP3    H169400   6.667   1.302  11.323 -1.8987 -0.0937 -0.0209
15995TIP3    H269401   6.686   1.228  11.454 -0.6032  1.1377  0.5141
15996TIP3   OH269402   0.380   3.386  11.458  0.1775 -0.1252  0.4982
15996TIP3    H169403   0.470   3.381  11.425  0.1891 -0.5249  0.5907
15996TIP3    H269404   0.337   3.450  11.400  0.4558 -0.1113  0.3058
15997TIP3   OH269405   6.689   3.706   5.355  0.0453  0.1934 -0.4231
15997TIP3    H169406   6.657   3.794   5.338  0.9632  0.6910  0.3642
15997TIP3    H269407   6.740   3.683   5.278  1.6429  1.2358  0.2811
15998TIP3   OH269408   4.951   4.497  10.898 -0.3194 -0.4264 -0.3727
15998TIP3    H169409   4.948   4.493  10.802  0.9721 -0.4591 -0.4305
15998TIP3    H269410   4.915   4.413  10.926 -1.4833 -0.0912 -0.7900
15999TIP3   OH269411   1.056   2.736   5.763  0.1140  0.2453  0.6213
15999TIP3    H169412   1.005   2.735   5.844  1.6516  2.0297  1.6961
15999TIP3    H269413   1.049   2.827   5.731 -0.9581 -0.5435 -1.6373
16000TIP3   OH269414   6.401   0.739  12.273  0.5043  0.2214  0.4968
16000TIP3    H169415   6.396   0.834  12.276 -1.2982  0.1822  0.1488
16000TIP3    H269416   6.337   0.709  12.338 -0.8315 -0.6903 -1.1201
16001TIP3   OH269417   2.331   2.516  11.153  0.0260  0.1980  0.5256
16001TIP3    H169418   2.268   2.485  11.220 -0.4891 -0.7873 -0.3755
16001TIP3    H269419   2.285   2.587  11.109 -0.2049 -0.0787  0.3108
16002TIP3   OH269420   2.727   1.893   0.101  0.3771 -0.6842  0.7508
16002TIP3    H169421   2.734   1.798   0.095 -0.8285 -0.8505  1.6408
16002TIP3    H269422   2.633   1.910   0.104  0.5587  0.5827  0.0283
16003TIP3   OH269423   1.310   1.932   1.815  0.3833  0.2770  0.1342
16003TIP3    H169424   1.404   1.928   1.794  0.6893 -2.1075  1.6401
16003TIP3    H269425   1.301   1.881   1.895 -2.0928  1.2835  0.5814
16004TIP3   OH269426   0.034   4.475   3.237 -0.1092 -0.3300  0.2143
16004TIP3    H169427  -0.050   4.446   3.202 -0.4355  0.6801  0.1156
16004TIP3    H269428   0.099   4.445   3.173 -0.7380  1.9337 -1.6453
16005TIP3   OH269429   3.368   0.087  11.129  0.1999 -0.4117  0.3349
16005TIP3    H169430   3.285   0.127  11.155  1.2241  0.8570  1.8580
16005TIP3    H269431   3.426   0.161  11.112  0.8664 -1.2716 -1.3501
16006TIP3   OH269432   1.755   0.095  11.421  0.2501  0.0040 -0.2096
16006TIP3    H169433   1.764   0.151  11.499 -0.6239 -1.0791  0.6950
16006TIP3    H269434   1.707   0.019  11.452 -2.1011  0.5267 -2.3251
16007TIP3   OH269435   4.741   4.024   0.188 -0.3481  0.1591  0.4269
16007TIP3    H169436   4.705   4.089   0.249  0.9102  0.7764  0.5537
16007TIP3    H269437   4.757   4.073   0.108  1.0568  0.1349  0.6750
16008TIP3   OH269438   0.226   6.399  15.772  0.5926 -0.1264 -0.7459
16008TIP3    H169439   0.319   6.424  15.773  0.9551 -1.4017 -0.1045
16008TIP3    H269440   0.221   6.325  15.832 -0.4304 -1.5065 -2.4347
16009TIP3   OH269441   2.800   4.650  16.001  0.4120  0.4436 -0.5660
16009TIP3    H169442   2.869   4.585  16.016  0.8848  0.4403 -2.4323
16009TIP3    H269443   2.845   4.734  16.011  0.2494  0.4666 -0.0106
16010TIP3   OH269444   6.161   0.881  17.074  0.1451 -0.3455  0.2074
16010TIP3    H169445   6.188   0.841  17.156  0.9132 -0.7539 -0.2270
16010TIP3    H269446   6.242   0.891  17.024  0.0018  1.8369  0.3069
16011TIP3   OH269447   0.746   6.539   4.387 -0.4216 -0.6213 -0.4838
16011TIP3    H169448   0.678   6.580   4.441 -0.8295 -2.2871  0.3356
16011TIP3    H269449   0.828   6.571   4.423 -0.7251 -0.7633  0.3682
16012TIP3   OH269450   0.356   4.904  10.704  0.3279  0.0552 -0.0684
16012TIP3    H169451   0.425   4.860  10.753 -0.2708 -0.2934  0.4695
16012TIP3    H269452   0.309   4.833  10.659 -0.6716  0.1190  0.8375
16013TIP3   OH269453   4.634   0.909  15.076 -0.0675 -0.3515 -0.2397
16013TIP3    H169454   4.601   0.879  15.161 -1.4550  0.2377 -0.5480
16013TIP3    H269455   4.632   0.830  15.021 -0.6412 -0.4138 -0.1445
16014TIP3   OH269456   0.468   1.774  14.541  0.1937  0.0454  0.0324
16014TIP3    H169457   0.385   1.729  14.557 -0.3576  0.6805 -0.8876
16014TIP3    H269458   0.446   1.843  14.477  1.0489  1.4662  1.2036
16015TIP3   OH269459   2.219   3.337   5.126 -0.0828  0.7108  0.1374
16015TIP3    H169460   2.292   3.398   5.139 -1.3800  2.5138 -0.6630
16015TIP3    H269461   2.213   3.289   5.209  2.4540 -0.0572 -0.0358
16016TIP3   OH269462   2.656   2.862   4.090  0.3415  0.1025 -0.6427
16016TIP3    H169463   2.627   2.894   4.004  0.7489  0.2307 -0.7361
16016TIP3    H269464   2.727   2.921   4.115  0.0088  0.2621 -0.0647
16017TIP3   OH269465   5.830   3.140   4.448  0.4246 -0.6133 -0.9687
16017TIP3    H169466   5.876   3.057   4.451 -1.4889 -1.7478 -1.4407
16017TIP3    H269467   5.748   3.121   4.402 -0.4204  1.3416 -0.3993
16018TIP3   OH269468   5.038   1.330   3.797  0.0027 -0.0869  0.4659
16018TIP3    H169469   5.123   1.366   3.770  0.3033 -0.2902  1.1220
16018TIP3    H269470   4.988   1.324   3.715  1.2843 -1.7628 -0.2717
16019TIP3   OH269471   3.574   4.978   3.904 -0.2055 -0.6329 -0.6876
16019TIP3    H169472   3.569   4.958   3.997  0.1041  0.9306 -0.2987
16019TIP3    H269473   3.484   5.003   3.880  0.0646  0.7776 -0.3296
16020TIP3   OH269474   0.835   0.319   2.529 -0.2917  0.4684  0.2552
16020TIP3    H169475   0.750   0.277   2.543 -0.2154 -0.0747 -0.7803
16020TIP3    H269476   0.892   0.283   2.597 -0.7086  0.2993  0.5161
16021TIP3   OH269477   6.689   0.890  11.595  0.2623  0.2621  0.2003
16021TIP3    H169478   6.675   0.923  11.683  0.5462 -0.4723  0.5326
16021TIP3    H269479   6.785   0.888  11.586  0.3616 -2.3519  0.9617
16022TIP3   OH269480   0.275   3.054  14.820  0.4052  0.3628  0.1467
16022TIP3    H169481   0.338   3.048  14.748  0.7562  0.1140  0.4706
16022TIP3    H269482   0.325   3.030  14.898 -0.0773  0.2182  0.4173
16023TIP3   OH269483   5.921   3.925  14.756 -0.0601  0.4976 -0.7100
16023TIP3    H169484   5.830   3.926  14.787 -0.3460 -1.3002 -1.3925
16023TIP3    H269485   5.973   3.905  14.834 -0.3920  0.1459 -0.5759
16024TIP3   OH269486   1.650   4.293   3.687  0.1449  0.7456  0.0529
16024TIP3    H169487   1.608   4.210   3.707  1.8149 -0.4322 -1.0909
16024TIP3    H269488   1.604   4.325   3.609 -0.1736  0.6585  0.2025
16025TIP3   OH269489   0.874   3.424   2.030  0.2920  0.3298 -0.3295
16025TIP3    H169490   0.968   3.410   2.040  0.3215 -1.8869 -2.6193
16025TIP3    H269491   0.860   3.514   2.059  2.6655 -0.0266  2.3520
16026TIP3   OH269492   5.982   2.081  15.010  0.2667  0.3421 -0.2070
16026TIP3    H169493   6.035   2.156  14.982 -1.4107  2.0902  1.0595
16026TIP3    H269494   5.900   2.091  14.962  0.2268 -1.0846 -0.4807
16027TIP3   OH269495   3.621   6.164   5.406 -0.0408  0.3812 -0.2037
16027TIP3    H169496   3.686   6.133   5.342  0.4205  2.1982 -0.6565
16027TIP3    H269497   3.641   6.114   5.486  1.2432  0.1593 -0.6329
16028TIP3   OH269498   2.566   4.449   5.249 -0.1161  0.2269 -0.1922
16028TIP3    H169499   2.546   4.434   5.341 -0.9454  0.3429 -0.3513
16028TIP3    H269500   2.565   4.361   5.210 -2.6855  0.3971 -0.6602
16029TIP3   OH269501   0.777   5.312  14.438 -1.1572  0.5892  0.2089
16029TIP3    H169502   0.735   5.298  14.353 -1.5204 -1.4245  0.6637
16029TIP3    H269503   0.801   5.224  14.467 -0.1770  1.3342  1.7643
16030TIP3   OH269504   6.794   1.470   0.952 -0.1323  0.1675  0.3761
16030TIP3    H169505   6.704   1.439   0.947  0.5135 -2.0620  1.3976
16030TIP3    H269506   6.831   1.452   0.865 -0.2468 -0.3288  0.4310
16031TIP3   OH269507   2.422   1.223  13.840 -0.4593 -0.2649 -0.0353
16031TIP3    H169508   2.384   1.303  13.876 -0.4880 -0.9129  1.4817
16031TIP3    H269509   2.346   1.174  13.806 -0.4046  0.4658 -1.2348
16032TIP3   OH269510   4.976   3.666  13.597 -0.1248 -0.4844  0.0085
16032TIP3    H169511   4.919   3.627  13.530  0.1495  0.0408 -0.5396
16032TIP3    H269512   4.933   3.645  13.680 -0.6278 -0.8884 -0.3498
16033TIP3   OH269513   2.840   4.514  14.603 -0.0153  0.0315 -0.0381
16033TIP3    H169514   2.843   4.442  14.666 -0.9704  0.1920  0.1965
16033TIP3    H269515   2.863   4.474  14.519  0.4279 -0.3486  0.2562
16034TIP3   OH269516   3.019   0.745  16.587  0.1820 -0.7272  0.1204
16034TIP3    H169517   3.028   0.791  16.671  3.4337 -0.3006 -0.3612
16034TIP3    H269518   2.931   0.707  16.591 -0.7954  1.4495  2.5929
16035TIP3   OH269519   6.516   1.597  16.518 -0.3383 -0.4477 -0.2516
16035TIP3    H169520   6.605   1.630  16.512 -0.5285 -0.1176 -1.6655
16035TIP3    H269521   6.486   1.624  16.605  0.8043 -0.2525  0.0986
16036TIP3   OH269522   3.766   6.045   4.144  0.0304 -0.3110 -0.2637
16036TIP3    H169523   3.782   5.997   4.063  2.3310  1.7066 -1.1485
16036TIP3    H269524   3.726   6.127   4.116 -1.7012 -0.6737  0.9824
16037TIP3   OH269525   1.138   4.408  13.601 -0.2837 -0.3934 -0.4219
16037TIP3    H169526   1.061   4.410  13.544  1.4631  0.4803 -2.9110
16037TIP3    H269527   1.211   4.387  13.542  1.5551 -0.0925  1.6362
16038TIP3   OH269528   0.910   3.983   4.143  0.5372  0.3491  0.2721
16038TIP3    H169529   0.909   4.072   4.178 -0.1999  0.5799 -0.3177
16038TIP3    H269530   0.948   3.992   4.056 -1.4675  0.4391 -0.6480
16039TIP3   OH269531   1.295   3.724   2.888  0.1080  0.6626  0.3367
16039TIP3    H169532   1.220   3.738   2.946  0.1807 -0.1781  0.6524
16039TIP3    H269533   1.371   3.744   2.943  0.2180 -0.9727  0.8275
16040TIP3   OH269534   4.435   2.701  11.945 -0.4074  0.4322  0.2552
16040TIP3    H169535   4.414   2.772  12.006 -0.8062  0.8775 -0.3917
16040TIP3    H269536   4.488   2.641  11.996  0.1677  1.3339  0.7379
16041TIP3   OH269537   3.320   3.333   2.479 -0.0919  0.0036  0.2100
16041TIP3    H169538   3.312   3.310   2.386  2.0213 -0.8941  0.2030
16041TIP3    H269539   3.343   3.251   2.522 -1.5193  0.3096  1.6358
16042TIP3   OH269540   0.044   3.532  12.332 -0.0733  0.6912  0.2990
16042TIP3    H169541  -0.039   3.500  12.368 -0.3552  0.4648 -0.5519
16042TIP3    H269542   0.029   3.540  12.238  1.0498  0.0764  0.0442
16043TIP3   OH269543   0.842   2.366  14.109 -0.9076  0.6924  0.5423
16043TIP3    H169544   0.929   2.400  14.086 -0.5945 -0.2434  0.2887
16043TIP3    H269545   0.808   2.331  14.028 -2.0847  2.1741  0.3474
16044TIP3   OH269546   1.237   4.800   1.463  0.0189  0.0926  0.2299
16044TIP3    H169547   1.229   4.797   1.367 -0.1353  0.1340  0.2417
16044TIP3    H269548   1.162   4.751   1.495 -1.2360  2.0083  0.3804
16045TIP3   OH269549   5.554   3.378  11.868  0.2144  0.0622 -0.5043
16045TIP3    H169550   5.501   3.444  11.825 -1.0874 -1.0976 -0.7390
16045TIP3    H269551   5.506   3.296  11.856  2.3637 -1.1762 -1.3134
16046TIP3   OH269552   3.181   3.695   3.037  0.2621  0.2758  0.2482
16046TIP3    H169553   3.124   3.725   3.108 -0.3912  1.3064 -0.6894
16046TIP3    H269554   3.167   3.758   2.967  1.0284 -0.6363 -0.7471
16047TIP3   OH269555   6.763   3.269  16.385  0.5177  0.4899 -0.1655
16047TIP3    H169556   6.716   3.300  16.308 -0.2991 -1.8434 -0.6804
16047TIP3    H269557   6.809   3.190  16.356  2.1390  0.8650  1.1750
16048TIP3   OH269558   5.943   6.245   3.731  0.0474 -0.5863 -0.2399
16048TIP3    H169559   5.934   6.161   3.775 -0.6256 -0.1492  0.4825
16048TIP3    H269560   6.022   6.236   3.677 -0.7415 -2.1439 -1.2177
16049TIP3   OH269561   5.628   1.018   0.051 -0.3955  0.3037  0.7141
16049TIP3    H169562   5.600   1.002   0.141 -1.9938  1.5381  0.4953
16049TIP3    H269563   5.559   1.074   0.014  0.0689 -0.3799 -1.3592
16050TIP3   OH269564   6.107   1.155  10.670 -0.3169  0.0798  0.4085
16050TIP3    H169565   6.163   1.080  10.649  0.7740  1.2126 -0.8430
16050TIP3    H269566   6.085   1.194  10.585  0.5183  2.1462  1.0756
16051TIP3   OH269567   0.680   2.042   3.663  0.0699 -0.2388 -0.3607
16051TIP3    H169568   0.588   2.015   3.663  0.0987 -0.4313  1.2251
16051TIP3    H269569   0.706   2.039   3.755  1.4167  0.6886 -0.6777
16052TIP3   OH269570   5.309   4.575  10.448  0.2253  0.0633 -0.9630
16052TIP3    H169571   5.240   4.542  10.505  1.1066 -2.3370 -1.1742
16052TIP3    H269572   5.263   4.621  10.378 -1.0564 -0.2876 -0.3849
16053TIP3   OH269573   6.526   3.278   2.985 -0.1999  0.1157 -0.1273
16053TIP3    H169574   6.588   3.303   2.917  0.5130  1.4193  0.9400
16053TIP3    H269575   6.457   3.344   2.979  0.9275  1.5741  1.7251
16054TIP3   OH269576   2.281   4.094  10.968  0.7324 -0.1161  0.2323
16054TIP3    H169577   2.198   4.124  11.005 -0.2962 -2.1747 -0.2554
16054TIP3    H269578   2.323   4.173  10.936 -1.8602  0.8369 -1.1289
16055TIP3   OH269579   5.198   1.896  16.358 -0.3314  0.0914  0.2257
16055TIP3    H169580   5.261   1.849  16.303  0.4375 -0.5420  1.5886
16055TIP3    H269581   5.117   1.846  16.349 -0.5162  0.5981 -1.1225
16056TIP3   OH269582   5.443   3.168  13.416 -0.3999 -0.0968  0.2294
16056TIP3    H169583   5.371   3.229  13.433 -1.0871 -0.1457 -2.1629
16056TIP3    H269584   5.522   3.221  13.423 -0.8039  0.4404  0.8260
16057TIP3   OH269585   5.454   0.928   3.100  0.2448  0.3139  0.2423
16057TIP3    H169586   5.428   0.898   3.013 -0.5454  1.7061 -0.0220
16057TIP3    H269587   5.377   0.914   3.155 -0.6874  3.1088 -0.2198
16058TIP3   OH269588   3.397   1.380  11.684  0.6988 -0.2550  0.2611
16058TIP3    H169589   3.460   1.435  11.638 -2.3383  2.5661 -0.9320
16058TIP3    H269590   3.336   1.350  11.616 -1.2945  0.2056  1.7304
16059TIP3   OH269591   1.094   2.558   3.956  0.7738  0.2195  1.0010
16059TIP3    H169592   1.165   2.505   3.919  1.4376  1.8397 -0.1570
16059TIP3    H269593   1.032   2.568   3.884 -0.0284 -0.1139  1.6341
16060TIP3   OH269594   1.266   1.019   3.845  0.0255  0.6203 -0.1706
16060TIP3    H169595   1.320   1.067   3.784  0.7347 -0.5522 -0.5040
16060TIP3    H269596   1.181   1.012   3.801  0.2814  0.5092 -0.6555
16061TIP3   OH269597   5.018   4.519  12.523  0.4647 -0.3061  0.8350
16061TIP3    H169598   5.008   4.429  12.553 -2.0096 -0.5607 -0.5364
16061TIP3    H269599   5.069   4.512  12.442 -2.5431 -0.9817 -1.1510
16062TIP3   OH269600   2.752   2.828  12.105 -0.1326  0.0085 -0.3971
16062TIP3    H169601   2.703   2.821  12.023  0.9533  0.4328 -1.1017
16062TIP3    H269602   2.707   2.898  12.153 -2.1939 -1.7429  0.4373
16063TIP3   OH269603   1.253   0.076  12.061 -0.3302  0.5095 -0.2036
16063TIP3    H169604   1.187   0.078  12.130  1.1380 -2.2629  1.5053
16063TIP3    H269605   1.225   0.006  12.002  0.4068  0.1455 -0.1405
16064TIP3   OH269606   6.311   1.893   0.364 -0.7323 -0.2808  0.1816
16064TIP3    H169607   6.380   1.887   0.431 -1.2730 -0.5423  0.7274
16064TIP3    H269608   6.286   1.802   0.347 -1.4958 -0.1516  0.5787
16065TIP3   OH269609   2.542   6.344  12.569  0.3521  0.4092 -0.2608
16065TIP3    H169610   2.555   6.290  12.647  1.7300  0.0515 -0.7056
16065TIP3    H269611   2.613   6.318  12.510 -1.5809 -0.5134 -2.3265
16066TIP3   OH269612   0.218   0.499   2.810  0.2937 -0.0169 -0.0782
16066TIP3    H169613   0.141   0.467   2.764  0.9366  0.6500 -1.6831
16066TIP3    H269614   0.283   0.429   2.801  0.0506 -0.3878  0.8852
16067TIP3   OH269615   0.378   3.345  14.575 -0.1154  0.3693  0.2072
16067TIP3    H169616   0.473   3.337  14.565 -0.2588 -0.3605 -0.7658
16067TIP3    H269617   0.361   3.438  14.566  0.6899  0.7806  2.3669
16068TIP3   OH269618   2.106   1.126  13.386  0.1351  0.0088  0.4317
16068TIP3    H169619   2.074   1.214  13.403  0.0903 -0.3859  2.6165
16068TIP3    H269620   2.026   1.074  13.373  0.0251 -0.1749  1.7202
16069TIP3   OH269621   5.337   1.701   4.240  0.2268  0.0798 -0.0573
16069TIP3    H169622   5.372   1.742   4.161  2.8940 -1.4045  0.2060
16069TIP3    H269623   5.392   1.735   4.311 -2.0402  1.2921  1.2070
16070TIP3   OH269624   0.898   1.267  15.271  0.2522  0.6391 -0.5556
16070TIP3    H169625   0.803   1.282  15.268  0.6212  3.2740 -1.6103
16070TIP3    H269626   0.914   1.235  15.359 -1.5730  0.5153 -0.2243
16071TIP3   OH269627   3.081   3.336  14.898  0.1141 -0.7294  0.1116
16071TIP3    H169628   3.010   3.294  14.850 -1.2904  1.0956  0.4691
16071TIP3    H269629   3.159   3.318  14.847 -1.3358  1.4466 -3.2082
16072TIP3   OH269630   5.018   1.329  16.752 -0.0297  0.3001  0.4379
16072TIP3    H169631   4.972   1.245  16.748 -0.5907  0.6607 -2.3295
16072TIP3    H269632   5.039   1.349  16.661  4.0265  1.0793  1.3655
16073TIP3   OH269633   6.310   1.687   5.041 -0.4107 -0.7152 -0.0851
16073TIP3    H169634   6.229   1.639   5.051  0.8843 -2.9150  0.5000
16073TIP3    H269635   6.315   1.743   5.119 -0.5583 -1.8435  0.7482
16074TIP3   OH269636   2.369   1.233   5.968 -0.4078  0.6102  0.2523
16074TIP3    H169637   2.352   1.141   5.989  0.4067  1.1008  3.8755
16074TIP3    H269638   2.285   1.277   5.980 -0.6511  0.4671 -0.8319
16075TIP3   OH269639   5.326   1.146   5.962  0.6654  0.5182  0.9210
16075TIP3    H169640   5.287   1.105   6.040  0.2607 -1.3320 -0.1795
16075TIP3    H269641   5.300   1.088   5.890  1.3580  1.9605 -0.5454
16076TIP3   OH269642   5.683   3.618  11.995 -0.2975 -0.3466 -0.3146
16076TIP3    H169643   5.632   3.546  11.957  0.7620 -0.7416 -1.0447
16076TIP3    H269644   5.678   3.688  11.930 -1.7903  0.4931  0.6409
16077TIP3   OH269645   2.032   4.153  16.503 -0.2647 -0.8342 -0.4056
16077TIP3    H169646   2.057   4.070  16.464 -0.8768 -0.6245 -1.2803
16077TIP3    H269647   2.099   4.215  16.474  0.5410 -1.1172  0.7503
16078TIP3   OH269648   3.844   3.328  13.511  0.4937 -0.0714  0.3048
16078TIP3    H169649   3.753   3.324  13.540  0.0288 -1.6849 -1.2003
16078TIP3    H269650   3.851   3.411  13.464  0.1474  0.6037  1.4011
16079TIP3   OH269651   6.089   3.599   2.841  0.1377  0.5690  0.1183
16079TIP3    H169652   6.096   3.693   2.826 -0.4594  0.5129 -0.6094
16079TIP3    H269653   6.156   3.579   2.905  1.4860  1.1998 -1.0455
16080TIP3   OH269654   3.371   2.508   0.019 -0.3688 -0.2238  0.0751
16080TIP3    H169655   3.370   2.417   0.047  1.3733 -0.9741 -1.9804
16080TIP3    H269656   3.345   2.505  -0.073  0.3446  1.2648 -0.2150
16081TIP3   OH269657   4.418   5.153   2.330  0.3465 -0.2413 -0.1768
16081TIP3    H169658   4.344   5.120   2.382  0.4781 -0.8620 -0.3748
16081TIP3    H269659   4.478   5.189   2.395  0.0315 -0.0581  0.0150
16082TIP3   OH269660   4.418   2.977  14.518 -0.3181 -0.1842 -0.1666
16082TIP3    H169661   4.487   2.934  14.568 -0.1156 -0.3192 -0.5638
16082TIP3    H269662   4.389   3.049  14.575 -1.2764 -1.3614  0.8959
16083TIP3   OH269663   0.164   2.812  16.356  0.4252 -0.1922  0.6226
16083TIP3    H169664   0.083   2.760  16.359  0.9248 -1.1387 -1.0905
16083TIP3    H269665   0.202   2.801  16.444  0.8636 -3.3837  0.1801
16084TIP3   OH269666   2.587   0.559  17.132  0.3948  0.0216 -0.1427
16084TIP3    H169667   2.680   0.538  17.127 -0.0378 -1.7958 -2.3515
16084TIP3    H269668   2.542   0.475  17.118 -1.5616  1.0516 -0.5160
16085TIP3   OH269669   5.047   5.604  13.694 -0.0586  0.1786  0.3576
16085TIP3    H169670   5.095   5.524  13.672 -0.7459 -0.0764 -0.2693
16085TIP3    H269671   5.069   5.665  13.625  0.1994  0.4250  0.6535
16086TIP3   OH269672   4.587   4.021   5.709  0.4301  0.9043 -0.0594
16086TIP3    H169673   4.522   4.081   5.746 -1.1484 -1.3439  1.0791
16086TIP3    H269674   4.671   4.052   5.743 -0.6302  0.7679  3.0033
16087TIP3   OH269675   5.447   2.207  11.845 -0.0998 -0.5452 -0.1906
16087TIP3    H169676   5.494   2.161  11.915  2.6583 -0.9784 -2.1663
16087TIP3    H269677   5.435   2.142  11.777  3.3133  1.2428 -2.7890
16088TIP3   OH269678   0.025   2.595  13.654  0.3905 -0.8120  0.3145
16088TIP3    H169679   0.022   2.504  13.626  0.3879 -0.8830  0.5456
16088TIP3    H269680   0.082   2.595  13.731 -0.2994 -0.7572  0.8402
16089TIP3   OH269681   2.288   1.178  12.480  0.0764 -0.5189  0.2414
16089TIP3    H169682   2.322   1.157  12.567  1.4709 -0.6716 -0.3310
16089TIP3    H269683   2.323   1.265  12.460 -1.2037  0.0416  0.3016
16090TIP3   OH269684   5.540   4.220   5.057  0.3265 -0.3286 -0.0157
16090TIP3    H169685   5.546   4.134   5.016 -2.0133 -1.5738  1.9768
16090TIP3    H269686   5.452   4.250   5.036  0.7454  1.1408  0.2061
16091TIP3   OH269687   3.816   6.535  14.214  0.5763  0.5584  0.0803
16091TIP3    H169688   3.723   6.545  14.193  0.2369  0.8019  1.6011
16091TIP3    H269689   3.818   6.516  14.308  2.0045 -0.6488 -0.1583
16092TIP3   OH269690   2.052   2.014  16.581  0.2980  0.4144 -0.4887
16092TIP3    H169691   2.035   1.996  16.488  0.0544  1.1244 -0.5858
16092TIP3    H269692   2.009   2.098  16.598  0.7770  0.5421  0.1404
16093TIP3   OH269693   5.845   2.236  13.504 -0.4094 -0.3195  0.5256
16093TIP3    H169694   5.840   2.331  13.502 -4.4568 -0.2523  2.7100
16093TIP3    H269695   5.754   2.208  13.510  0.5315 -4.4441 -1.1013
16094TIP3   OH269696   5.457   1.478   5.468 -0.0689  0.0090 -0.1705
16094TIP3    H169697   5.424   1.549   5.523  1.4481  0.1308  0.6498
16094TIP3    H269698   5.550   1.498   5.457  0.4675 -1.9971  0.3331
16095TIP3   OH269699   0.446   4.435  17.017  0.1860 -0.3613  0.2109
16095TIP3    H169700   0.497   4.371  16.968  0.0042 -1.1483  1.0150
16095TIP3    H269701   0.389   4.475  16.952  0.1770 -1.1461 -0.2824
16096TIP3   OH269702   5.587   2.829  14.715 -0.2415  0.7288 -0.5921
16096TIP3    H169703   5.498   2.830  14.749  0.2578 -0.1142  0.8222
16096TIP3    H269704   5.587   2.897  14.648 -2.1092  0.2921 -1.0907
16097TIP3   OH269705   4.231   0.098   6.117  0.8153  0.4797 -0.2220
16097TIP3    H169706   4.254   0.157   6.190  1.6178  1.8904 -1.5532
16097TIP3    H269707   4.187   0.024   6.159  2.0001  0.8328  1.7823
16098TIP3   OH269708   2.504   6.031  16.250  0.7174 -0.3775  0.4346
16098TIP3    H169709   2.528   6.058  16.338 -1.6222  1.3002  0.6418
16098TIP3    H269710   2.424   5.980  16.261  1.0279 -1.1390 -0.6376
16099TIP3   OH269711   3.007   1.037   5.726  0.5029 -0.1173  0.2735
16099TIP3    H169712   2.941   1.019   5.660  0.6090  0.1105  0.1074
16099TIP3    H269713   3.089   1.006   5.687  0.1956 -2.6376  1.3828
16100TIP3   OH269714   5.246   2.319   2.806 -0.9959  0.2260 -0.2636
16100TIP3    H169715   5.243   2.395   2.748 -2.5710  0.6187  0.2694
16100TIP3    H269716   5.338   2.294   2.808 -0.7252  0.9449 -1.9505
16101TIP3   OH269717   6.102   2.744  13.333 -0.3014 -0.0959  0.1657
16101TIP3    H169718   6.021   2.698  13.355 -0.5887  0.7404  0.8628
16101TIP3    H269719   6.155   2.739  13.412  0.8452 -1.6576 -0.6411
16102TIP3   OH269720   3.491   2.012  16.507 -1.1137  0.2332  0.4132
16102TIP3    H169721   3.550   2.087  16.500 -2.4601  1.4573  1.4032
16102TIP3    H269722   3.529   1.946  16.450  0.4839  1.4346  0.0096
16103TIP3   OH269723   1.710   3.490  16.054 -0.5371 -0.5689  0.3216
16103TIP3    H169724   1.731   3.500  16.147 -1.5753  0.5667  0.4569
16103TIP3    H269725   1.614   3.497  16.050 -0.3888  1.4776 -1.0491
16104TIP3   OH269726   3.807   1.026  11.785  0.5141  0.3038 -0.1002
16104TIP3    H169727   3.801   1.121  11.783  1.9005  0.4063 -0.2448
16104TIP3    H269728   3.901   1.007  11.794  0.1621 -1.0404  1.1626
16105TIP3   OH269729   2.612   5.628  12.490 -0.2871  0.0548 -0.1093
16105TIP3    H169730   2.569   5.639  12.405  0.6947  0.1571 -0.6065
16105TIP3    H269731   2.698   5.667  12.478  0.0972 -0.5129  0.7425
16106TIP3   OH269732   5.925   1.939  12.454  0.3433 -0.6660  0.1161
16106TIP3    H169733   5.862   1.869  12.435  0.0729 -0.2289 -0.6675
16106TIP3    H269734   5.892   1.980  12.533  0.0476 -0.9099  0.1213
16107TIP3   OH269735   4.362   1.626  16.072  0.4863  0.1033 -0.4141
16107TIP3    H169736   4.356   1.550  16.014 -0.7023  0.0253 -0.2168
16107TIP3    H269737   4.399   1.696  16.018  2.0759 -0.7347 -0.4598
16108TIP3   OH269738   0.013   3.813  13.153 -0.0533  0.2484  0.0095
16108TIP3    H169739   0.015   3.722  13.125  0.6239  0.5715 -1.0271
16108TIP3    H269740  -0.049   3.855  13.093  0.4537  0.6929 -0.2027
16109TIP3   OH269741   5.537   0.997   4.492 -0.1798  0.2984 -0.2054
16109TIP3    H169742   5.520   1.084   4.528  2.2104  0.4865  0.6301
16109TIP3    H269743   5.470   0.941   4.533 -1.5555  1.6558 -0.5249
16110TIP3   OH269744   4.800   0.119  16.824 -0.3430  0.3629 -0.0572
16110TIP3    H169745   4.804   0.052  16.893  1.5654  0.6798  0.2187
16110TIP3    H269746   4.707   0.128  16.804 -0.8009 -1.0069  1.2325
16111TIP3   OH269747   2.268   4.175  15.906 -0.1201  0.5664 -0.1694
16111TIP3    H169748   2.278   4.245  15.842 -0.6530 -0.7035 -1.7293
16111TIP3    H269749   2.353   4.130  15.906 -0.3246  0.1727 -0.4914
16112TIP3   OH269750   6.215   0.466  13.851  0.1891 -0.2282 -0.6594
16112TIP3    H169751   6.186   0.399  13.790  0.9211 -1.8336  0.6898
16112TIP3    H269752   6.294   0.429  13.891 -1.4750 -0.2794  2.9047
16113TIP3   OH269753   1.564   0.389   1.772 -0.3904  0.2261  0.0302
16113TIP3    H169754   1.585   0.442   1.849 -2.2037  0.7595  0.2083
16113TIP3    H269755   1.554   0.452   1.701  2.6171 -0.3560 -1.0663
16114TIP3   OH269756   1.142   4.860   2.468  0.6499 -0.2821 -0.1151
16114TIP3    H169757   1.080   4.894   2.532  0.3141 -0.2122 -0.4731
16114TIP3    H269758   1.164   4.936   2.413  1.3643 -0.2123  0.2556
16115TIP3   OH269759   1.084   5.524  15.582 -0.0460 -0.2644  0.4962
16115TIP3    H169760   1.068   5.611  15.618  2.1542 -0.0943  1.2393
16115TIP3    H269761   1.124   5.475  15.654 -1.2092 -1.9055  0.0804
16116TIP3   OH269762   5.644   4.161  12.372  0.3816 -0.4249  0.3264
16116TIP3    H169763   5.617   4.110  12.295  2.9314  0.3455 -1.1854
16116TIP3    H269764   5.635   4.252  12.345  1.0559 -0.1384  1.0359
16117TIP3   OH269765   0.478   4.080  16.060 -0.4501  0.8769 -0.5868
16117TIP3    H169766   0.436   4.020  15.998  0.8600 -0.8528  0.1242
16117TIP3    H269767   0.407   4.109  16.117 -1.0800 -0.1385 -0.8353
16118TIP3   OH269768   0.385   1.797   1.375 -0.0613  0.4050  0.0350
16118TIP3    H169769   0.340   1.720   1.410  0.3003  0.3302  0.3376
16118TIP3    H269770   0.390   1.780   1.281  0.1288  0.0004  0.1156
16119TIP3   OH269771   4.962   3.316   0.258  0.2393 -0.4687 -0.4400
16119TIP3    H169772   4.886   3.340   0.312 -0.7776 -4.1349  0.0235
16119TIP3    H269773   4.963   3.381   0.188 -1.4636  1.4744  1.1891
16120TIP3   OH269774   4.719   3.069  11.562  0.3454 -0.6969 -0.5275
16120TIP3    H169775   4.629   3.093  11.584  0.9605  0.6334  0.6613
16120TIP3    H269776   4.748   3.137  11.501  1.1066 -0.0762  0.4922
16121TIP3   OH269777   1.676   3.461  16.364 -0.4472 -0.4683  0.1716
16121TIP3    H169778   1.698   3.376  16.324  0.5546  0.3976 -1.2004
16121TIP3    H269779   1.628   3.438  16.443 -0.9941 -2.3098 -0.6363
16122TIP3   OH269780   0.425   1.367  16.357 -0.2405 -0.1836  0.4430
16122TIP3    H169781   0.369   1.294  16.331 -0.2897  0.4620 -1.4391
16122TIP3    H269782   0.369   1.423  16.410 -0.7891 -0.5216  0.2234
16123TIP3   OH269783   6.449   4.564  14.144  0.0726  0.1586 -0.0843
16123TIP3    H169784   6.414   4.488  14.190  0.5309  0.6531  1.1334
16123TIP3    H269785   6.442   4.542  14.051 -1.5078 -0.6082  0.1778
16124TIP3   OH269786   5.773   6.562   0.260  0.0209 -0.6378 -0.8713
16124TIP3    H169787   5.863   6.595   0.261 -0.0135 -0.5489 -0.4337
16124TIP3    H269788   5.770   6.504   0.184  0.2302 -0.0395 -1.3437
16125TIP3   OH269789   2.663   5.857   2.337  0.2347 -0.1910 -0.0062
16125TIP3    H169790   2.600   5.791   2.309  1.1911 -1.1838  0.1023
16125TIP3    H269791   2.670   5.845   2.432  0.2175  0.2501  0.0540
16126TIP3   OH269792   3.601   5.510  12.278  0.3752  0.1000 -0.8990
16126TIP3    H169793   3.529   5.455  12.309 -0.0006  0.0040 -1.8875
16126TIP3    H269794   3.595   5.590  12.330  0.4745 -0.4848  0.0448
16127TIP3   OH269795   6.375   0.240   0.268  0.4455  0.6406  0.4009
16127TIP3    H169796   6.401   0.281   0.350  1.2555  0.4605  0.2421
16127TIP3    H269797   6.437   0.168   0.256 -1.1022 -0.8022  0.7926
16128TIP3   OH269798   1.754   1.784  16.281 -0.1040 -0.5503  0.4090
16128TIP3    H169799   1.817   1.855  16.293  0.8311 -1.1183 -0.9042
16128TIP3    H269800   1.670   1.823  16.304  0.4114  0.9406 -0.0850
16129TIP3   OH269801   6.160   6.775  14.505  0.2884 -0.1127 -0.2060
16129TIP3    H169802   6.082   6.721  14.519  0.4627 -0.4876 -0.6995
16129TIP3    H269803   6.132   6.841  14.442  0.2136  0.0965  0.0408
16130TIP3   OH269804   1.346   2.555  11.648  0.2107 -0.6150  0.4072
16130TIP3    H169805   1.304   2.603  11.719  0.2024 -0.7477  0.4922
16130TIP3    H269806   1.274   2.518  11.598  0.2130 -0.4172  0.2557
16131TIP3   OH269807   1.069   4.940   0.554 -0.3742  0.2857 -0.1501
16131TIP3    H169808   1.035   4.973   0.471  0.1125 -0.9852 -0.8710
16131TIP3    H269809   1.006   4.971   0.620 -0.6189  1.5352 -0.9340
16132TIP3   OH269810   1.318   3.117  15.869 -0.2848  0.0036  0.0447
16132TIP3    H169811   1.232   3.076  15.878 -0.0360 -1.0070 -1.8839
16132TIP3    H269812   1.309   3.175  15.793  0.4514  0.7224  0.4869
16133TIP3   OH269813   0.666   2.964  10.885 -0.2161  0.5805 -0.1452
16133TIP3    H169814   0.739   3.024  10.870 -1.1116  1.7578 -0.0082
16133TIP3    H269815   0.666   2.907  10.809  0.5794  0.8505 -0.3566
16134TIP3   OH269816   5.900   0.856  15.123 -0.7220 -0.3761  0.1627
16134TIP3    H169817   5.857   0.811  15.050  0.2049 -0.4189 -0.3712
16134TIP3    H269818   5.944   0.931  15.083  1.4419 -1.4817  0.3251
16135TIP3   OH269819   5.702   6.646  12.378  0.3608  0.2789 -0.3349
16135TIP3    H169820   5.666   6.712  12.436 -0.3088 -0.0261 -0.3982
16135TIP3    H269821   5.626   6.610  12.332  0.4313 -1.9942  1.1977
16136TIP3   OH269822   1.258   2.681  11.900 -0.5028  0.4462  0.5175
16136TIP3    H169823   1.326   2.648  11.959  0.6392  0.9082 -0.5016
16136TIP3    H269824   1.176   2.646  11.936  0.2879 -0.3465  1.6144
16137TIP3   OH269825   4.998   6.742   1.155 -0.5702  0.1779 -0.0274
16137TIP3    H169826   4.959   6.824   1.185  0.4283  0.2028  1.3127
16137TIP3    H269827   5.092   6.754   1.167 -0.3529 -0.8922 -0.5201
16138TIP3   OH269828   4.815   0.783   3.459 -0.1481  0.0509  0.4728
16138TIP3    H169829   4.794   0.689   3.460 -0.1218  0.0405  0.2224
16138TIP3    H269830   4.771   0.816   3.380 -0.0757  0.2300  0.5075
16139TIP3   OH269831   1.239   5.421  14.663 -0.0077 -0.3759  0.3665
16139TIP3    H169832   1.307   5.421  14.731  2.0257  0.3141 -1.5448
16139TIP3    H269833   1.265   5.492  14.604 -0.1102 -2.6527 -2.6098
16140TIP3   OH269834   2.846   3.443  15.305  0.0936 -0.5424  0.0551
16140TIP3    H169835   2.849   3.394  15.387 -0.7726 -1.7711 -0.6136
16140TIP3    H269836   2.926   3.416  15.259  0.4840  0.0036  0.3980
16141TIP3   OH269837   3.905   1.641  11.997  0.5353 -0.6603  0.4086
16141TIP3    H169838   3.880   1.584  12.069 -0.2454  0.0130  0.6880
16141TIP3    H269839   3.824   1.687  11.973  1.1847  0.5154  0.3773
16142TIP3   OH269840   5.347   0.914  15.365  0.4737  0.4729  0.1309
16142TIP3    H169841   5.328   0.891  15.274 -1.3230 -1.7581  0.9952
16142TIP3    H269842   5.264   0.903  15.411  1.4660  0.9986  2.1766
16143TIP3   OH269843   6.672   4.997  16.833  0.6697 -0.1414  0.0503
16143TIP3    H169844   6.728   4.920  16.818  0.9364  0.3231 -1.5532
16143TIP3    H269845   6.607   4.993  16.763 -0.0586  0.4474  0.6822
16144TIP3   OH269846   3.258   3.508   1.524  0.0452 -0.5558 -0.0763
16144TIP3    H169847   3.200   3.573   1.486 -0.5560  0.4448  2.3437
16144TIP3    H269848   3.346   3.543   1.511  0.0627 -1.2248 -2.1997
16145TIP3   OH269849   3.838   0.226  15.780  1.0493 -0.1938  0.3541
16145TIP3    H169850   3.836   0.250  15.687  2.9926  1.6808  0.7096
16145TIP3    H269851   3.776   0.285  15.821  1.2674 -0.0125  0.4257
16146TIP3   OH269852   1.375   0.832   4.393 -0.6858  0.0568 -0.1039
16146TIP3    H169853   1.333   0.888   4.327  0.3050  0.7430 -0.1618
16146TIP3    H269854   1.357   0.743   4.362 -2.1262  0.3121 -0.1113
16147TIP3   OH269855   5.678   4.440   3.198  0.3300 -0.2751 -0.5391
16147TIP3    H169856   5.668   4.346   3.185  0.0697 -0.3209 -0.0396
16147TIP3    H269857   5.691   4.450   3.292 -2.4285  0.4129 -0.1613
16148TIP3   OH269858   4.686   2.402   2.372  0.0228 -0.5734 -0.1149
16148TIP3    H169859   4.774   2.430   2.345 -0.0965 -1.0758 -1.0817
16148TIP3    H269860   4.653   2.474   2.426  0.3595  0.4064 -1.1739
16149TIP3   OH269861   0.386   0.982  13.683  0.1970 -0.0383 -0.3258
16149TIP3    H169862   0.370   0.888  13.669  2.1813 -0.5752  0.5906
16149TIP3    H269863   0.317   1.010  13.742  1.1014 -1.6507  1.6271
16150TIP3   OH269864   6.391   0.652   1.036  0.4419 -0.7989  0.2452
16150TIP3    H169865   6.392   0.579   1.099  0.4202 -0.3752  0.7403
16150TIP3    H269866   6.349   0.616   0.959 -0.2125 -1.1077  0.7375
16151TIP3   OH269867   3.460   2.668  16.947 -0.0731  0.0375  0.6084
16151TIP3    H169868   3.494   2.589  16.990 -0.0984 -0.1708  0.2525
16151TIP3    H269869   3.365   2.659  16.953 -0.0886 -0.2733  0.0222
16152TIP3   OH269870   0.440   4.385  13.227 -0.2504 -0.1188  0.6282
16152TIP3    H169871   0.507   4.360  13.163 -1.3914  0.0283 -0.6874
16152TIP3    H269872   0.471   4.350  13.310  2.1459  1.1860  0.3627
16153TIP3   OH269873   3.949   0.821   3.829 -0.0088  0.1729  0.4072
16153TIP3    H169874   4.011   0.870   3.884 -0.4283 -0.8142  1.8040
16153TIP3    H269875   3.865   0.863   3.846 -0.0780  0.1154  0.2050
16154TIP3   OH269876   6.462   4.146   5.604  0.1089  0.1538  0.1124
16154TIP3    H169877   6.413   4.199   5.667  0.5013 -0.0227  0.5722
16154TIP3    H269878   6.525   4.206   5.566 -1.0764  0.6273 -1.1894
16155TIP3   OH269879   2.141   5.277   1.124 -0.3286  0.6855 -0.4368
16155TIP3    H169880   2.085   5.262   1.200  0.5905 -1.1764 -0.0423
16155TIP3    H269881   2.169   5.189   1.098  2.4463  1.5015 -0.5397
16156TIP3   OH269882   6.164   6.465  10.645  0.2730 -0.5063 -0.0458
16156TIP3    H169883   6.242   6.464  10.700  0.4475 -0.4492 -0.2947
16156TIP3    H269884   6.194   6.436  10.559 -0.3199 -2.3813  0.3160
16157TIP3   OH269885   4.424   6.151   4.035  0.2393  0.4204 -0.0356
16157TIP3    H169886   4.497   6.172   4.094 -0.1015  0.2563  0.4550
16157TIP3    H269887   4.455   6.076   3.985  0.2868  0.1370  0.4105
16158TIP3   OH269888   1.916   0.422   2.569 -0.1145  0.5599  0.0057
16158TIP3    H169889   1.921   0.407   2.474  0.4211  0.4177  0.0536
16158TIP3    H269890   1.990   0.479   2.588  3.0203 -3.3703  1.0905
16159TIP3   OH269891   6.429   0.932   1.769 -0.1997  0.4415  0.1722
16159TIP3    H169892   6.426   1.025   1.747  0.5704  0.4376  0.0369
16159TIP3    H269893   6.429   0.888   1.684  0.1900  0.3463  0.2186
16160TIP3   OH269894   5.834   4.911   0.398  0.0621  0.1828 -0.1479
16160TIP3    H169895   5.892   4.865   0.338 -1.3107 -1.4212 -0.3007
16160TIP3    H269896   5.823   4.998   0.359  1.4888  0.1729 -0.6414
16161TIP3   OH269897   4.756   3.238   3.339 -0.2983 -0.4913 -0.0083
16161TIP3    H169898   4.714   3.206   3.259 -0.2463  0.7260 -0.5431
16161TIP3    H269899   4.763   3.161   3.395 -1.7169 -1.0643 -0.5771
16162TIP3   OH269900   2.838   2.212  11.219  0.1227 -0.5226  0.6248
16162TIP3    H169901   2.867   2.291  11.174  1.1386 -0.8881  0.6209
16162TIP3    H269902   2.832   2.146  11.150  0.1308 -0.6813  0.7759
16163TIP3   OH269903   6.493   3.887   5.444  0.0586  0.6683  0.0727
16163TIP3    H169904   6.456   3.965   5.486 -1.7008 -1.0307  1.9400
16163TIP3    H269905   6.487   3.819   5.512  2.0827 -0.9579 -1.2801
16164TIP3   OH269906   4.890   4.830   5.117  0.1299 -0.1009  0.4040
16164TIP3    H169907   4.953   4.896   5.091 -0.2332  0.7005  1.5137
16164TIP3    H269908   4.933   4.781   5.187 -0.0904 -0.2243  0.4556
16165TIP3   OH269909   5.859   2.570   5.628  0.1003 -0.1587 -0.2603
16165TIP3    H169910   5.790   2.633   5.651  0.9979  0.5352  0.6242
16165TIP3    H269911   5.815   2.485   5.631 -1.1763  0.4186 -1.6637
16166TIP3   OH269912   1.503   3.282  12.651  0.4643 -0.0218  0.3116
16166TIP3    H169913   1.543   3.216  12.594 -2.1509 -0.5157 -1.1045
16166TIP3    H269914   1.533   3.366  12.616  2.1620 -0.3657  0.8450
16167TIP3   OH269915   2.541   5.064  13.224 -0.3029 -0.0640 -0.0789
16167TIP3    H169916   2.550   5.003  13.151  1.7732  0.0478  0.0245
16167TIP3    H269917   2.548   5.009  13.302  0.2633  0.1502  0.0213
16168TIP3   OH269918   4.135   5.232  13.114 -0.0297 -0.3200  0.0297
16168TIP3    H169919   4.100   5.289  13.182 -0.1195  2.0255 -1.8362
16168TIP3    H269920   4.062   5.172  13.093 -0.2227 -0.6217  1.4469
16169TIP3   OH269921   5.522   2.764   2.661 -0.1373 -0.0397 -0.3148
16169TIP3    H169922   5.483   2.678   2.675 -0.8996  0.0953 -1.4578
16169TIP3    H269923   5.602   2.764   2.714 -1.3180 -0.5752  1.5628
16170TIP3   OH269924   3.161   2.293  12.242  0.1120  0.4203 -0.1207
16170TIP3    H169925   3.146   2.210  12.287 -1.2641  0.6642 -0.0974
16170TIP3    H269926   3.234   2.275  12.182  1.4964 -0.1041  1.6409
16171TIP3   OH269927   3.572   0.078   2.826 -0.1516 -0.2686  0.2002
16171TIP3    H169928   3.574   0.062   2.921  1.9488  0.0655  0.2629
16171TIP3    H269929   3.535   0.166   2.817 -3.6277 -1.5802  0.4181
16172TIP3   OH269930   2.107   5.272   3.374  0.4224 -0.2891 -0.2255
16172TIP3    H169931   2.018   5.307   3.369 -0.8994 -2.6808  2.7679
16172TIP3    H269932   2.133   5.259   3.283 -1.9708  1.2120 -1.2221
16173TIP3   OH269933   2.514   2.275   2.198  0.3001 -0.5055 -0.0439
16173TIP3    H169934   2.514   2.270   2.294 -2.8920  4.3583  0.5723
16173TIP3    H269935   2.425   2.250   2.173 -0.1336  1.8617 -1.1699
16174TIP3   OH269936   6.732   6.037   2.308  0.2706  0.2166  0.3007
16174TIP3    H169937   6.813   6.085   2.326  0.3565  0.5781 -0.9226
16174TIP3    H269938   6.760   5.946   2.294  0.0312 -0.3926  3.2708
16175TIP3   OH269939   2.085   2.352  16.036  0.0831  0.0169 -0.2256
16175TIP3    H169940   2.050   2.264  16.021 -1.4716  0.3038  1.4051
16175TIP3    H269941   2.013   2.411  16.014  0.9020  0.8680 -0.6874
16176TIP3   OH269942   6.453   1.643  15.964 -0.3977 -0.0286  0.5283
16176TIP3    H169943   6.413   1.633  16.051  0.6998  1.6284  1.3000
16176TIP3    H269944   6.532   1.589  15.968  0.1350  0.7449  0.9426
16177TIP3   OH269945   6.493   0.734   0.772 -0.0443  1.1147 -0.5789
16177TIP3    H169946   6.496   0.647   0.811  0.6486  0.6667 -1.5820
16177TIP3    H269947   6.522   0.793   0.842  0.7456  0.3882 -0.2708
16178TIP3   OH269948   5.754   6.719  14.328 -0.1837  0.3957 -0.6717
16178TIP3    H169949   5.714   6.638  14.296 -0.1519  0.3256 -0.5358
16178TIP3    H269950   5.788   6.762  14.250 -0.0155  0.1742 -0.7230
16179TIP3   OH269951   0.992   5.177  11.523  0.7596  0.0639  0.5428
16179TIP3    H169952   0.975   5.269  11.543  0.4066 -0.1889  1.4449
16179TIP3    H269953   1.018   5.139  11.607  0.4400 -0.7664  0.2726
16180TIP3   OH269954   4.679   3.712   1.751 -0.5675  0.7618 -0.1488
16180TIP3    H169955   4.719   3.752   1.828 -2.5965  1.8839  0.4019
16180TIP3    H269956   4.633   3.635   1.785  0.1468  0.1213 -0.5921
16181TIP3   OH269957   0.698   1.302  12.339  0.4943 -0.1134 -0.1295
16181TIP3    H169958   0.741   1.387  12.330  1.3473 -0.5307 -0.0478
16181TIP3    H269959   0.728   1.269  12.424  0.7992 -0.8542 -0.5250
16182TIP3   OH269960   1.054   3.888   5.248 -0.0710 -0.8458  0.9898
16182TIP3    H169961   1.120   3.877   5.317  0.0792  0.8435  1.1490
16182TIP3    H269962   1.105   3.907   5.169 -0.3354  0.9306  1.2058
16183TIP3   OH269963   6.790   0.681   3.246  0.1209 -0.2531 -0.4887
16183TIP3    H169964   6.785   0.774   3.222 -0.6671 -0.2164 -0.2292
16183TIP3    H269965   6.788   0.634   3.163 -1.9597 -0.1058 -0.5737
16184TIP3   OH269966   3.552   5.660  11.744 -0.0259  0.1121 -0.3967
16184TIP3    H169967   3.614   5.730  11.764 -0.4539  0.1677  0.8382
16184TIP3    H269968   3.555   5.602  11.820 -0.4203 -0.6699 -0.9607
16185TIP3   OH269969   2.051   3.299  11.605  0.1972  0.2456 -0.4577
16185TIP3    H169970   2.080   3.297  11.696 -0.4197  1.9816 -0.1782
16185TIP3    H269971   2.099   3.228  11.563  2.4365  0.9994  0.6542
16186TIP3   OH269972   5.987   2.271   5.557 -0.7893 -0.0003  0.2998
16186TIP3    H169973   5.998   2.210   5.630 -1.2975  0.8139  1.0798
16186TIP3    H269974   5.892   2.281   5.548 -0.7439 -0.5344 -0.8564
16187TIP3   OH269975   3.080   1.666   3.153 -0.3213  0.1397 -0.2798
16187TIP3    H169976   2.997   1.653   3.198 -0.7372  2.8063 -0.1222
16187TIP3    H269977   3.107   1.755   3.176  1.2844  0.2915 -2.3720
16188TIP3   OH269978   3.987   3.928  12.573  0.4650 -0.6575  0.3993
16188TIP3    H169979   3.961   3.893  12.658 -1.8995  0.1807  0.0823
16188TIP3    H269980   3.919   3.897  12.512  0.2400  1.5159 -0.5240
16189TIP3   OH269981   0.105   3.062  16.309 -0.4589  0.0386  0.4962
16189TIP3    H169982   0.127   2.973  16.338  0.8313  0.3053  0.4114
16189TIP3    H269983   0.178   3.087  16.252 -1.1839  0.8745 -0.0916
16190TIP3   OH269984   1.547   6.220  10.331  0.2915 -0.6307  0.3674
16190TIP3    H169985   1.482   6.257  10.391 -0.7651  0.0884 -1.1419
16190TIP3    H269986   1.499   6.151  10.285  1.1207 -1.2649  0.4428
16191TIP3   OH269987   5.031   0.338   1.011 -0.9055 -0.0007  0.6447
16191TIP3    H169988   5.033   0.433   1.027 -0.2422  0.1054  0.0025
16191TIP3    H269989   4.980   0.329   0.931  1.0395  0.0605 -0.6773
16192TIP3   OH269990   2.192   5.921   5.794  0.2849  0.2124  0.3787
16192TIP3    H169991   2.185   5.846   5.852 -0.8279 -0.8304 -1.0507
16192TIP3    H269992   2.108   5.966   5.802  0.3710  0.4348  0.0630
16193TIP3   OH269993   3.222   1.687  14.525 -0.0382  0.0592 -0.3192
16193TIP3    H169994   3.287   1.704  14.456  0.6151  0.2382  0.3269
16193TIP3    H269995   3.265   1.715  14.606 -1.0578  0.5334  0.0851
16194TIP3   OH269996   1.284   0.333   3.342  0.4612 -0.2745  0.4300
16194TIP3    H169997   1.368   0.320   3.299 -0.3530 -0.0075 -1.2971
16194TIP3    H269998   1.267   0.427   3.334 -0.1491 -0.3788  0.4875
16195TIP3   OH269999   6.305   6.042   0.223 -0.1494 -0.4566  0.3308
16195TIP3    H170000   6.288   6.071   0.134  0.1659 -0.8006  0.1573
16195TIP3    H270001   6.294   5.947   0.220 -0.1544 -0.4693  0.6609
16196TIP3   OH270002   4.610   2.900   0.694 -0.2821  0.2818  0.7375
16196TIP3    H170003   4.632   2.837   0.625  1.0319  1.9150 -0.4075
16196TIP3    H270004   4.679   2.890   0.759  0.1505  0.8145  0.3612
16197TIP3   OH270005   2.683   2.866   1.608  0.6222  0.0875 -0.1254
16197TIP3    H170006   2.652   2.776   1.617  0.5759  0.0958 -0.1978
16197TIP3    H270007   2.603   2.917   1.592  0.5864  0.2172  0.4644
16198TIP3   OH270008   2.801   1.330   4.701 -0.3106  0.3414  0.1095
16198TIP3    H170009   2.823   1.391   4.771 -0.2576  0.7438 -0.2525
16198TIP3    H270010   2.707   1.343   4.687 -0.7132 -1.0075  1.3055
16199TIP3   OH270011   2.451   0.689  11.153 -0.0844  0.2631  0.4688
16199TIP3    H170012   2.446   0.758  11.087  1.1955  1.4350  1.5517
16199TIP3    H270013   2.465   0.735  11.235 -1.3435 -1.1807  1.5621
16200TIP3   OH270014   5.542   3.890  16.887 -0.3010  0.3309 -0.2191
16200TIP3    H170015   5.546   3.809  16.836  0.9500  0.7088 -0.7483
16200TIP3    H270016   5.578   3.957  16.829  0.7393  0.8474  0.9727
16201TIP3   OH270017   5.904   1.789   0.289 -0.0861  0.0739  0.3228
16201TIP3    H170018   5.894   1.734   0.211 -0.2862  1.4168 -0.6367
16201TIP3    H270019   5.939   1.872   0.256  3.1177 -0.4063  2.0794
16202TIP3   OH270020   1.796   6.642   3.362 -0.3924 -0.2287  0.5183
16202TIP3    H170021   1.825   6.707   3.297 -1.7689 -0.7885 -0.7176
16202TIP3    H270022   1.870   6.583   3.370 -0.7245 -1.0929 -1.8487
16203TIP3   OH270023   2.610   0.477   0.329 -0.0804 -0.0856  0.5355
16203TIP3    H170024   2.583   0.556   0.283  1.9596  0.3511  0.0034
16203TIP3    H270025   2.531   0.447   0.374 -1.2967  1.3142 -0.5931
16204TIP3   OH270026   1.626   5.616   2.710  0.2276 -0.2751 -0.1284
16204TIP3    H170027   1.543   5.662   2.701 -0.2564 -1.1558 -0.2938
16204TIP3    H270028   1.663   5.615   2.622  0.4445  0.1563 -0.0467
16205TIP3   OH270029   6.758   2.856  13.517 -0.0369 -0.1317 -0.1135
16205TIP3    H170030   6.761   2.772  13.563 -0.1617  1.6096  3.4231
16205TIP3    H270031   6.669   2.862  13.483  0.1275 -1.5722 -0.8952
16206TIP3   OH270032   4.843   4.441   5.083  0.5214 -0.2741 -0.6371
16206TIP3    H170033   4.844   4.496   5.162  0.0263 -1.8721  0.5362
16206TIP3    H270034   4.922   4.466   5.035 -0.3144  2.3336 -0.8077
16207TIP3   OH270035   3.051   2.967   0.600 -0.3823  0.0932 -0.4283
16207TIP3    H170036   3.037   3.055   0.635  1.4174  0.3650 -0.2850
16207TIP3    H270037   2.964   2.929   0.595 -0.9725  0.8806  2.1579
16208TIP3   OH270038   3.857   2.584   0.961 -0.5055 -0.1282  0.1486
16208TIP3    H170039   3.915   2.511   0.983 -0.0029  0.1067 -0.3799
16208TIP3    H270040   3.888   2.615   0.876  0.0266  1.4588  0.8965
16209TIP3   OH270041   1.969   2.141   0.291  0.1396  0.1785 -0.0764
16209TIP3    H170042   2.034   2.073   0.273  1.2274  0.9940  0.6571
16209TIP3    H270043   1.910   2.139   0.215  0.6240 -1.0317 -0.4316
16210TIP3   OH270044   6.210   2.127  16.181 -0.0905  0.2859  0.0890
16210TIP3    H170045   6.179   2.201  16.129 -0.3059 -0.5622 -1.0019
16210TIP3    H270046   6.244   2.065  16.118  0.3072 -0.4588  1.0132
16211TIP3   OH270047   1.502   5.325  16.681 -0.3122  0.2021  0.3743
16211TIP3    H170048   1.580   5.314  16.734 -1.0652 -0.4276  1.3943
16211TIP3    H270049   1.496   5.420  16.667  1.2642  0.1747 -0.7507
16212TIP3   OH270050   5.733   0.881   2.160 -0.0429  0.4637  0.4199
16212TIP3    H170051   5.804   0.906   2.218 -0.4144  1.5919  0.4158
16212TIP3    H270052   5.775   0.865   2.076  0.0059  3.4624 -0.2389
16213TIP3   OH270053   0.981   4.612   3.137  0.1596  0.1397  0.3848
16213TIP3    H170054   0.899   4.662   3.140 -0.4761 -0.9231  2.1103
16213TIP3    H270055   1.048   4.676   3.115 -1.0294  1.1754 -0.3196
16214TIP3   OH270056   1.823   0.942   5.270  0.1737 -0.0922 -0.3297
16214TIP3    H170057   1.856   0.914   5.184  1.1522 -0.1862  0.0649
16214TIP3    H270058   1.854   1.032   5.279  0.7540 -0.3423  0.2499
16215TIP3   OH270059   3.540   4.280  17.088 -0.6157  0.2801  0.1621
16215TIP3    H170060   3.548   4.347  17.156 -0.0136  1.1401 -0.7211
16215TIP3    H270061   3.630   4.265  17.059 -0.9998  1.5712 -1.9542
16216TIP3   OH270062   4.794   2.216   3.810 -0.1650  0.5400  0.1457
16216TIP3    H170063   4.854   2.246   3.878  1.1056  1.4954 -1.3132
16216TIP3    H270064   4.707   2.220   3.850  0.6545 -0.2660  2.1250
16217TIP3   OH270065   1.707   2.735  11.727 -0.6656 -0.4744 -0.0129
16217TIP3    H170066   1.653   2.768  11.655 -1.7164  0.8307  1.3216
16217TIP3    H270067   1.764   2.808  11.749  1.7743 -1.8346 -1.4160
16218TIP3   OH270068   3.501   1.574  15.662 -0.3423  0.8090  0.0294
16218TIP3    H170069   3.551   1.494  15.648  2.0961  1.9325  1.6555
16218TIP3    H270070   3.433   1.572  15.594  0.3681 -2.0016 -0.7316
16219TIP3   OH270071   5.748   3.635  11.391 -0.5735  0.1189  0.3474
16219TIP3    H170072   5.773   3.574  11.321 -1.1019 -2.3243  2.1394
16219TIP3    H270073   5.654   3.651  11.376 -1.0894 -1.7103  1.3275
16220TIP3   OH270074   0.252   3.826   2.120 -0.2100  0.1537 -0.2681
16220TIP3    H170075   0.246   3.818   2.025 -0.4896  0.7258 -0.3012
16220TIP3    H270076   0.165   3.803   2.152  0.2065 -1.2112 -0.0564
16221TIP3   OH270077   3.445   0.663  17.099 -0.1583  0.4351  0.0681
16221TIP3    H170078   3.389   0.740  17.102 -2.0606 -0.8501 -0.7051
16221TIP3    H270079   3.525   0.693  17.056 -0.1201  2.3572  1.3392
16222TIP3   OH270080   6.118   0.876  11.429  0.1906  0.5929  0.0203
16222TIP3    H170081   6.145   0.803  11.483 -0.9050  0.8111  0.9023
16222TIP3    H270082   6.181   0.945  11.448  1.2636 -0.1107 -0.8603
16223TIP3   OH270083   5.433   0.258   0.408 -0.3266 -0.2487  0.2704
16223TIP3    H170084   5.465   0.172   0.433 -0.1098 -0.4077 -0.5132
16223TIP3    H270085   5.407   0.248   0.316  1.2924  0.9396 -0.3494
16224TIP3   OH270086   5.181   0.097  13.100  0.1301  0.2263 -0.9949
16224TIP3    H170087   5.230   0.019  13.072  0.0989 -0.2765  0.2895
16224TIP3    H270088   5.247   0.153  13.142 -0.1233  0.2109 -0.5744
16225TIP3   OH270089   4.685   2.522   4.161 -0.1450 -0.3954 -0.3995
16225TIP3    H170090   4.608   2.474   4.192 -0.4629  0.6371  0.4990
16225TIP3    H270091   4.754   2.500   4.224  0.0625 -0.6649 -0.7198
16226TIP3   OH270092   5.855   1.146   1.977  0.3551  0.3007  0.2888
16226TIP3    H170093   5.821   1.065   1.938  1.7683  0.8498 -2.3365
16226TIP3    H270094   5.804   1.216   1.937  0.6488  0.8236  0.8125
16227TIP3   OH270095   4.948   1.707   3.485  0.0148  0.1031 -0.8963
16227TIP3    H170096   5.012   1.640   3.506  2.4831  2.1586 -1.4378
16227TIP3    H270097   4.907   1.677   3.404 -1.0685 -2.0952  0.3835
16228TIP3   OH270098   4.418   3.719   0.642 -0.3320 -0.3068  0.3411
16228TIP3    H170099   4.411   3.814   0.633 -0.5898  0.0744  3.4541
16228TIP3    H270100   4.374   3.700   0.725 -0.0873 -3.1344 -0.0996
16229TIP3   OH270101   5.754   6.375   2.487 -0.1995 -0.3441  0.3119
16229TIP3    H170102   5.804   6.333   2.418  0.5580 -0.7658  1.0982
16229TIP3    H270103   5.670   6.329   2.487 -0.1197 -0.4920 -0.1717
16230TIP3   OH270104   3.140   4.437  13.564  0.0656  0.3522  0.4758
16230TIP3    H170105   3.200   4.405  13.497 -0.4646 -0.1964  0.2571
16230TIP3    H270106   3.190   4.504  13.611  1.4209 -1.2185  1.3609
16231TIP3   OH270107   0.212   2.734  11.012  0.3243  0.9238 -0.0140
16231TIP3    H170108   0.163   2.758  10.933  0.8233 -0.4446 -0.7639
16231TIP3    H270109   0.303   2.751  10.990  0.4539  0.6814  0.3345
16232TIP3   OH270110   5.738   0.247   5.540 -0.0926  0.0784 -0.5967
16232TIP3    H170111   5.775   0.333   5.522 -0.1879  0.1507 -0.4477
16232TIP3    H270112   5.720   0.211   5.453  0.0474  0.1643 -0.6616
16233TIP3   OH270113   4.137   2.924  12.345 -0.2441  0.7342  0.2384
16233TIP3    H170114   4.194   2.892  12.415 -2.1067 -0.7050  1.1738
16233TIP3    H270115   4.143   3.020  12.350  2.0458  0.6336  0.2840
16234TIP3   OH270116   2.334   4.417   3.834 -0.1004 -0.1261 -0.3839
16234TIP3    H170117   2.355   4.444   3.923 -2.2884  1.4448 -0.2690
16234TIP3    H270118   2.284   4.336   3.844  0.8817 -0.7440 -0.3158
16235TIP3   OH270119   5.944   3.520   4.557  0.1234 -1.1801  0.4896
16235TIP3    H170120   5.918   3.560   4.474  0.5881  1.0821  1.3730
16235TIP3    H270121   5.869   3.465   4.581 -0.5723 -0.8268 -0.7834
16236TIP3   OH270122   3.753   0.015  13.507  0.6350 -0.1742 -0.2373
16236TIP3    H170123   3.703  -0.052  13.554 -1.2745  0.1305 -1.7340
16236TIP3    H270124   3.838  -0.026  13.490  0.3474 -1.3225  0.9247
16237TIP3   OH270125   6.180   3.336  10.376  0.2379 -0.1754  0.0725
16237TIP3    H170126   6.179   3.402  10.445  0.4021  0.2732 -0.3559
16237TIP3    H270127   6.246   3.366  10.314 -0.3765 -0.2302 -0.6185
16238TIP3   OH270128   6.679   0.039  14.272 -0.4297 -0.2598  1.2560
16238TIP3    H170129   6.725  -0.040  14.300  1.2583  0.2035 -0.0484
16238TIP3    H270130   6.689   0.101  14.345 -1.0095 -0.9184  1.9154
16239TIP3   OH270131   6.658   0.447  16.571 -0.5313 -0.0334  0.1633
16239TIP3    H170132   6.579   0.434  16.518  0.2729  0.1592 -1.1344
16239TIP3    H270133   6.650   0.537  16.604 -0.3131  0.4361 -0.9779
16240TIP3   OH270134   3.712   5.939   6.301  0.1574 -0.4814 -0.3163
16240TIP3    H170135   3.769   5.862   6.300  0.3177 -0.3652 -1.5467
16240TIP3    H270136   3.773   6.013   6.306  0.0039 -0.4239  0.8785
16241TIP3   OH270137   2.908   0.050  16.084 -0.5084  0.0998 -0.2301
16241TIP3    H170138   2.937   0.127  16.134  0.2152  0.1816 -0.7510
16241TIP3    H270139   2.814   0.046  16.098 -0.4716  0.7483  0.2688
16242TIP3   OH270140   6.207   3.476  17.038  0.1655  0.7181  0.4350
16242TIP3    H170141   6.284   3.509  16.992 -2.1109  1.5817 -3.1781
16242TIP3    H270142   6.174   3.552  17.086 -0.3326  1.4151 -0.9424
16243TIP3   OH270143   0.087   2.901  15.270 -0.0127 -0.7303 -0.3213
16243TIP3    H170144   0.144   2.826  15.254  2.1573  0.8023 -0.2402
16243TIP3    H270145   0.094   2.916  15.365 -1.8544 -1.4265 -0.0186
16244TIP3   OH270146   6.401   0.037  12.577 -0.2724  0.5895 -0.0050
16244TIP3    H170147   6.453   0.044  12.657  3.5486  0.0643 -2.1863
16244TIP3    H270148   6.372  -0.055  12.576  2.9679 -0.5670 -0.8700
16245TIP3   OH270149   3.254   4.879   1.864  0.4037  0.0962 -0.1805
16245TIP3    H170150   3.189   4.854   1.929  0.3152  0.8722  0.0408
16245TIP3    H270151   3.337   4.843   1.897  0.3247  0.3134  0.2648
16246TIP3   OH270152   4.247   4.170  13.217 -0.3061 -0.2971 -0.0682
16246TIP3    H170153   4.313   4.106  13.190 -0.2851 -2.0796  3.5590
16246TIP3    H270154   4.174   4.156  13.156  1.7080  0.1787 -2.7871
16247TIP3   OH270155   5.313   2.446   5.588  0.2019 -0.1139  0.0857
16247TIP3    H170156   5.350   2.358   5.601  1.4226  0.2491 -0.7294
16247TIP3    H270157   5.378   2.491   5.535 -1.3632  0.6346 -1.2746
16248TIP3   OH270158   5.719   5.688  11.456 -0.2351 -0.4146 -0.5416
16248TIP3    H170159   5.713   5.647  11.369 -4.1158  0.8555 -1.0889
16248TIP3    H270160   5.682   5.623  11.516 -1.9824  0.4055 -0.6703
16249TIP3   OH270161   6.580   2.449  16.299 -0.2250  0.3149  0.1386
16249TIP3    H170162   6.579   2.361  16.262  0.0892  0.5051 -0.3299
16249TIP3    H270163   6.518   2.498  16.245  1.2383  0.9435 -1.0531
16250TIP3   OH270164   5.616   0.371  16.899 -0.3080  0.4936 -0.1779
16250TIP3    H170165   5.577   0.286  16.875 -1.5870  1.3412 -1.2287
16250TIP3    H270166   5.690   0.348  16.955 -1.7924 -1.2481  1.2104
16251TIP3   OH270167   5.870   3.706   4.903 -0.3636 -0.0490  0.0135
16251TIP3    H170168   5.794   3.719   4.846  1.3615  1.2050 -2.1500
16251TIP3    H270169   5.891   3.613   4.893  0.1961  0.2355 -1.8932
16252TIP3   OH270170   0.750   1.363   3.224  0.0818  0.1845  0.0126
16252TIP3    H170171   0.757   1.452   3.259 -1.7296  0.1277  0.5873
16252TIP3    H270172   0.685   1.369   3.154 -2.7701 -1.2539  2.3444
16253TIP3   OH270173   6.556   5.532   3.185  0.4742 -0.3522  0.0204
16253TIP3    H170174   6.536   5.459   3.244 -1.3441  2.4042  3.1654
16253TIP3    H270175   6.487   5.528   3.118  0.4082 -1.5103  0.1366
16254TIP3   OH270176   0.945   2.965   0.829 -0.0368 -0.0952 -0.1911
16254TIP3    H170177   1.009   3.002   0.769 -1.3981  2.5420 -0.1522
16254TIP3    H270178   0.875   3.029   0.833 -0.9773 -1.1208  2.6327
16255TIP3   OH270179   5.288   2.311   0.982  0.2646  0.2552  0.2186
16255TIP3    H170180   5.236   2.338   0.906  1.2042  0.7545 -0.2544
16255TIP3    H270181   5.379   2.324   0.956  0.8257 -2.8944  0.1328
16256TIP3   OH270182   3.353   2.459  14.829  0.7160 -0.1976  0.0130
16256TIP3    H170183   3.363   2.375  14.874  1.9984  0.7061  1.4796
16256TIP3    H270184   3.410   2.452  14.753  0.2197 -0.9190 -0.3081
16257TIP3   OH270185   6.493   1.319   1.811  0.0736 -0.1130  0.0077
16257TIP3    H170186   6.564   1.287   1.867 -0.3370 -1.6638 -0.3094
16257TIP3    H270187   6.446   1.382   1.865  0.5729 -0.4780  0.8863
16258TIP3   OH270188   2.724   4.840   2.910 -0.2556 -0.0386 -0.1593
16258TIP3    H170189   2.748   4.856   3.002  1.5816 -1.3971 -0.3451
16258TIP3    H270190   2.741   4.923   2.866  1.0986 -0.0301  0.3344
16259TIP3   OH270191   6.734   5.560   5.228  0.2379  0.0340  0.4376
16259TIP3    H170192   6.820   5.526   5.204 -0.5605 -1.6136 -0.2891
16259TIP3    H270193   6.711   5.512   5.308  0.1441  0.7378  0.8387
16260TIP3   OH270194   0.943   4.352  13.023  0.4473 -0.3666  0.2663
16260TIP3    H170195   0.866   4.354  13.080  1.5056 -0.5125  1.7677
16260TIP3    H270196   0.914   4.306  12.944 -0.6831 -1.5060  1.3088
16261TIP3   OH270197   0.047   4.097   2.222  0.2247  0.3137  0.1033
16261TIP3    H170198   0.058   4.192   2.233  1.6894  0.1365  0.2884
16261TIP3    H270199   0.070   4.061   2.308 -2.8938 -0.0724  0.8934
16262TIP3   OH270200   4.992   6.647  11.933 -0.1277 -0.2218 -1.1774
16262TIP3    H170201   5.045   6.668  11.856  1.0290  0.4660 -0.2282
16262TIP3    H270202   4.964   6.732  11.966  2.9679 -0.0940  1.5807
16263TIP3   OH270203   1.779   5.562   0.330 -0.0423  0.0327 -0.4425
16263TIP3    H170204   1.695   5.518   0.320  0.2367 -0.5995 -0.0669
16263TIP3    H270205   1.843   5.491   0.334  0.4979  0.5033 -0.5881
16264TIP3   OH270206   1.125   1.655   5.049  0.4338 -0.0349 -0.3490
16264TIP3    H170207   1.207   1.608   5.064 -0.5999 -1.6310  0.5377
16264TIP3    H270208   1.063   1.588   5.023 -0.7568  1.0475 -0.3861
16265TIP3   OH270209   6.253   2.414  13.324  0.0644  0.1122 -0.8700
16265TIP3    H170210   6.331   2.466  13.344  0.3793 -0.6071 -0.1828
16265TIP3    H270211   6.285   2.343  13.268 -0.1604  0.0246 -0.8912
16266TIP3   OH270212   2.545   6.160   1.754  0.5973  0.2096  0.5643
16266TIP3    H170213   2.631   6.121   1.772  1.1974  1.4997  0.5596
16266TIP3    H270214   2.523   6.206   1.835  0.0374  0.1301  0.4565
16267TIP3   OH270215   6.050   0.065   6.401 -0.4653  0.2125  0.4726
16267TIP3    H170216   6.126   0.034   6.351 -1.0311  0.4756 -0.5801
16267TIP3    H270217   5.985  -0.004   6.390 -0.2725 -0.1771  1.6657
16268TIP3   OH270218   3.370   4.627   4.775 -0.1705  0.9352  0.3295
16268TIP3    H170219   3.389   4.721   4.779  0.4309  0.8003  0.7983
16268TIP3    H270220   3.311   4.617   4.700  2.4525  1.2424 -1.9030
16269TIP3   OH270221   6.469   1.772   2.452  0.4900 -0.9525 -0.2867
16269TIP3    H170222   6.378   1.799   2.446  0.6335  0.0499  1.3285
16269TIP3    H270223   6.467   1.677   2.441 -1.3167 -1.5668  3.5456
16270TIP3   OH270224   3.486   0.238   5.407 -0.1306 -0.8442  0.7007
16270TIP3    H170225   3.459   0.150   5.433  0.0737 -1.0998  0.0525
16270TIP3    H270226   3.407   0.277   5.370 -0.0069 -1.0714  0.1778
16271TIP3   OH270227   5.037   1.346  12.235  0.1048 -0.1249 -0.1138
16271TIP3    H170228   5.081   1.293  12.301  0.9569 -1.3428 -1.6012
16271TIP3    H270229   5.108   1.386  12.185 -0.5304  1.4477  0.2002
16272TIP3   OH270230   1.240   1.234   2.597 -0.5480 -0.2372 -0.0261
16272TIP3    H170231   1.205   1.223   2.685  0.9173 -0.2228  0.5846
16272TIP3    H270232   1.176   1.289   2.552  0.0362  2.2059  1.9113
16273TIP3   OH270233   6.664   6.153   0.604  0.6563 -0.1595  0.1338
16273TIP3    H170234   6.573   6.150   0.574  0.1978  1.7027  1.1677
16273TIP3    H270235   6.713   6.107   0.536 -0.6936  1.2644 -1.9539
16274TIP3   OH270236   5.097   5.535  14.586  0.8605  0.4774  0.6768
16274TIP3    H170237   5.005   5.522  14.607  0.2133 -0.4118 -2.2219
16274TIP3    H270238   5.128   5.448  14.559  1.7611  1.2621 -0.9837
16275TIP3   OH270239   2.036   2.008   5.177  0.4979 -0.2016 -0.0016
16275TIP3    H170240   1.948   2.044   5.187  0.8663  0.9680 -0.7814
16275TIP3    H270241   2.036   1.929   5.232 -1.5566 -1.1635 -1.2510
16276TIP3   OH270242   1.239   3.565  16.690 -0.2976 -0.2957 -0.0245
16276TIP3    H170243   1.228   3.621  16.614  0.8800 -0.4576 -0.3322
16276TIP3    H270244   1.268   3.623  16.760 -0.2606 -0.3244 -0.0153
16277TIP3   OH270245   1.035   3.599   1.834  0.5454  0.0049  0.7143
16277TIP3    H170246   1.049   3.532   1.901  1.1290 -0.7926 -0.1785
16277TIP3    H270247   0.955   3.572   1.789  0.5600  0.1281  0.6132
16278TIP3   OH270248   0.266   1.329   2.261 -0.0923 -0.3009 -0.7009
16278TIP3    H170249   0.333   1.319   2.328  0.3801 -0.5654 -1.2043
16278TIP3    H270250   0.216   1.247   2.263 -0.1465 -0.2656 -0.6018
16279TIP3   OH270251   3.951   4.111  14.604  0.2126 -0.3405  0.4829
16279TIP3    H170252   3.943   4.018  14.584 -0.1404 -0.7891  2.4303
16279TIP3    H270253   3.870   4.133  14.649  0.7279  0.6475  0.9743
16280TIP3   OH270254   3.979   1.207  16.264 -0.1830 -0.0572 -0.2469
16280TIP3    H170255   4.005   1.135  16.321  1.0230 -0.3932 -1.1751
16280TIP3    H270256   3.891   1.184  16.235 -0.5680 -0.1835  0.9616
16281TIP3   OH270257   6.289   2.986   3.334  0.2282 -0.5953  0.3662
16281TIP3    H170258   6.253   2.907   3.293  0.5749  0.0192 -1.2191
16281TIP3    H270259   6.288   2.967   3.428 -3.3914 -0.9779  0.3914
16282TIP3   OH270260   2.528   4.654  17.010 -0.1846  0.2704 -0.4272
16282TIP3    H170261   2.491   4.718  17.070 -1.8198 -0.1519 -0.9216
16282TIP3    H270262   2.585   4.600  17.065 -0.4333  0.8539  0.4238
16283TIP3   OH270263   6.104   2.964   1.161  0.1464  0.2053  0.1411
16283TIP3    H170264   6.091   2.895   1.226 -1.1728 -0.3799 -0.6997
16283TIP3    H270265   6.135   2.917   1.083 -2.7345  0.1707 -1.1241
16284TIP3   OH270266   6.709   5.857   0.691  0.1281  0.0502  0.5556
16284TIP3    H170267   6.672   5.928   0.743  0.7941  0.8609 -0.0471
16284TIP3    H270268   6.636   5.795   0.680 -0.5007  0.6955  0.9909
16285TIP3   OH270269   4.818   2.543   3.252  0.2957 -0.9994  0.0404
16285TIP3    H170270   4.749   2.604   3.224  0.2331 -0.9628  0.2790
16285TIP3    H270271   4.780   2.456   3.238 -1.0093 -1.0300  3.0796
16286TIP3   OH270272   5.197   1.890   5.252  0.1115 -0.0698  0.3791
16286TIP3    H170273   5.291   1.887   5.270  0.3278  3.0815  0.2678
16286TIP3    H270274   5.191   1.901   5.157 -0.3529 -0.0845  0.4033
16287TIP3   OH270275   4.046   4.423   5.267  0.0869  0.4458  0.1148
16287TIP3    H170276   4.098   4.386   5.196 -0.7277 -1.7560  0.5713
16287TIP3    H270277   4.044   4.517   5.249  1.2753  0.1609 -1.8242
16288TIP3   OH270278   2.124   5.897  16.428 -0.6866 -0.1813  0.2595
16288TIP3    H170279   2.162   5.881  16.341  1.3309  1.3120  0.7887
16288TIP3    H270280   2.049   5.838  16.433 -0.8434 -0.3257 -2.4798
16289TIP3   OH270281   3.944   6.319  16.154 -0.1528 -0.4817 -0.0410
16289TIP3    H170282   3.905   6.399  16.116 -0.0731  0.1449  1.1382
16289TIP3    H270283   4.035   6.343  16.171  0.5450 -1.6288 -1.8740
16290TIP3   OH270284   2.632   4.803   0.631  0.6088  0.0703 -0.3631
16290TIP3    H170285   2.700   4.776   0.692 -0.8304 -1.3408  0.7008
16290TIP3    H270286   2.568   4.849   0.685 -0.9585 -1.6717 -0.6432
16291TIP3   OH270287   2.388   0.293   6.262 -0.0001 -0.3401  0.1257
16291TIP3    H170288   2.451   0.364   6.275  0.3980 -0.6238 -0.2352
16291TIP3    H270289   2.353   0.276   6.349  0.1797  0.0430  0.2770
16292TIP3   OH270290   0.023   1.763  15.760  0.5371 -0.0722  0.0035
16292TIP3    H170291   0.089   1.738  15.824  2.6461 -0.2858 -2.1121
16292TIP3    H270292  -0.006   1.680  15.722  0.5483  0.1395 -0.4774
16293TIP3   OH270293   5.322   2.729   5.261 -0.1931  0.2026  0.3031
16293TIP3    H170294   5.334   2.722   5.356 -0.4940  0.3520  0.3533
16293TIP3    H270295   5.378   2.661   5.225 -0.2816 -0.0329  0.6035
16294TIP3   OH270296   4.487   3.165  14.707  0.2853  0.6940 -0.1508
16294TIP3    H170297   4.422   3.232  14.732 -0.2591  1.0118 -2.2311
16294TIP3    H270298   4.537   3.150  14.787  0.0537  3.1774  0.5483
16295TIP3   OH270299   6.039   4.121  11.684  0.5987  0.3893 -0.0132
16295TIP3    H170300   6.008   4.156  11.601 -0.0326  1.7930  0.7920
16295TIP3    H270301   6.133   4.108  11.671  0.3872 -0.1011 -1.1669
16296TIP3   OH270302   2.181   6.054  12.813  0.4265  0.6872 -0.0821
16296TIP3    H170303   2.218   6.103  12.885 -1.8992  2.8541 -0.2278
16296TIP3    H270304   2.128   5.986  12.855  0.3265  0.9443  0.2099
16297TIP3   OH270305   5.335   5.267  12.422  0.0641  0.2149 -0.4162
16297TIP3    H170306   5.399   5.333  12.396 -0.5031  0.6319 -0.7655
16297TIP3    H270307   5.383   5.210  12.483  0.7680  0.5128 -0.6796
16298TIP3   OH270308   5.272   3.312  13.075  0.4482  0.4073  0.7737
16298TIP3    H170309   5.280   3.240  13.012  1.9059 -0.1360  1.5431
16298TIP3    H270310   5.264   3.269  13.160 -0.9225  1.1437  1.0592
16299TIP3   OH270311   3.586   2.833   0.492  0.3055  0.1204 -0.0527
16299TIP3    H170312   3.564   2.758   0.437 -1.6899  1.5299 -1.3486
16299TIP3    H270313   3.673   2.859   0.463 -0.1612  0.0052 -1.6449
16300TIP3   OH270314   0.237   0.014   2.023  0.2064  0.2209 -1.0384
16300TIP3    H170315   0.326  -0.011   2.045 -0.4182 -0.4922  0.9318
16300TIP3    H270316   0.246   0.086   1.961  2.1257 -0.1257 -1.2065
16301TIP3   OH270317   2.694   0.195  10.930 -0.3847  0.0808  0.6958
16301TIP3    H170318   2.711   0.244  10.850 -1.4946  1.0912  1.0478
16301TIP3    H270319   2.715   0.256  11.001  0.3185 -0.7044  1.1885
16302TIP3   OH270320   3.560   4.897   5.647 -0.1539 -0.2064  0.3007
16302TIP3    H170321   3.522   4.981   5.622 -0.7414 -0.6479 -0.3121
16302TIP3    H270322   3.599   4.914   5.733  1.0382  1.0868 -0.4370
16303TIP3   OH270323   1.706   3.471  12.127  0.1827 -0.2853  0.1908
16303TIP3    H170324   1.741   3.558  12.145  0.2497 -0.2318 -0.1839
16303TIP3    H270325   1.626   3.487  12.076  0.8436 -0.4657 -0.9441
16304TIP3   OH270326   3.564   3.439  14.323  0.1568 -0.3965  0.0349
16304TIP3    H170327   3.502   3.407  14.389 -2.2040  0.4845 -1.6227
16304TIP3    H270328   3.598   3.520  14.361  0.9465 -1.2972  1.3178
16305TIP3   OH270329   5.697   2.939  12.862 -0.2365 -0.0971 -0.0042
16305TIP3    H170330   5.732   2.880  12.796 -0.8224 -0.1298 -0.2953
16305TIP3    H270331   5.699   3.025  12.822  0.3041  0.0337  0.2965
16306TIP3   OH270332   1.574   0.133  15.656  0.1003 -0.7457  0.6088
16306TIP3    H170333   1.498   0.094  15.612 -1.5176  1.4918  1.2814
16306TIP3    H270334   1.564   0.108  15.748 -0.8598  0.9508  1.0164
16307TIP3   OH270335   1.165   2.189   5.565  0.0322 -0.7266 -0.4831
16307TIP3    H170336   1.072   2.193   5.588  0.1605 -0.5847  0.0294
16307TIP3    H270337   1.204   2.132   5.632 -0.0683 -2.6790 -2.0127
16308TIP3   OH270338   5.667   1.804   2.060 -1.0218  0.2407  0.1296
16308TIP3    H170339   5.721   1.866   2.110  0.5039 -1.8102  1.2033
16308TIP3    H270340   5.577   1.825   2.085 -0.6681  2.5941 -0.2976
16309TIP3   OH270341   3.074   5.139  14.376 -0.0983 -0.0775 -0.6824
16309TIP3    H170342   3.120   5.058  14.397  0.0238 -0.4149 -2.1708
16309TIP3    H270343   3.020   5.157  14.453  0.5691 -1.0730  0.0278
16310TIP3   OH270344   0.922   1.404   2.968  0.6208 -0.7142  0.2224
16310TIP3    H170345   0.873   1.483   2.945  1.8838 -0.1646 -0.6637
16310TIP3    H270346   0.882   1.335   2.915  0.8035 -0.2628 -0.5172
16311TIP3   OH270347   4.232   3.822   6.274 -0.0633  0.3164 -0.3028
16311TIP3    H170348   4.155   3.806   6.329  0.2125 -1.9155 -0.4580
16311TIP3    H270349   4.306   3.794   6.327  0.1834 -2.2374 -1.7969
16312TIP3   OH270350   3.066   4.545   0.697 -0.3927 -0.1335 -0.6086
16312TIP3    H170351   3.091   4.503   0.615  1.4345 -0.8423  0.2668
16312TIP3    H270352   3.125   4.508   0.763 -0.4857  1.8484  0.6860
16313TIP3   OH270353   2.843   6.425   4.463  0.3341  0.1721 -0.2533
16313TIP3    H170354   2.896   6.346   4.472 -0.5548 -0.3401  0.7348
16313TIP3    H270355   2.858   6.474   4.544  2.4877  2.1050 -1.6707
16314TIP3   OH270356   3.772   5.186   3.786  0.3903  0.0265  0.1990
16314TIP3    H170357   3.733   5.108   3.825  1.2388 -0.2742  0.4542
16314TIP3    H270358   3.715   5.206   3.711 -0.3050 -0.3401  0.6201
16315TIP3   OH270359   1.697   5.031   1.054  0.0644  0.0095 -0.2855
16315TIP3    H170360   1.731   5.093   1.119  0.9374  0.1570 -0.8669
16315TIP3    H270361   1.755   4.955   1.061 -0.6794 -0.5321  0.0585
16316TIP3   OH270362   6.765   2.468  16.970 -0.2317 -0.2782 -0.4492
16316TIP3    H170363   6.699   2.537  16.978 -1.7589 -1.7929  0.8827
16316TIP3    H270364   6.834   2.494  17.032 -0.2459  0.5904 -0.7791
16317TIP3   OH270365   4.944   6.239   2.420 -0.0125 -0.2130 -0.1660
16317TIP3    H170366   4.865   6.216   2.470 -0.4837 -0.0187 -0.8107
16317TIP3    H270367   4.943   6.181   2.345  0.6939 -0.5005  0.0403
16318TIP3   OH270368   5.072   3.320   1.397 -0.0067 -0.8455  0.2749
16318TIP3    H170369   5.147   3.329   1.456  1.6118 -2.4027 -1.3996
16318TIP3    H270370   5.094   3.374   1.322  0.1970 -2.4232 -0.8601
16319TIP3   OH270371   4.486   3.676  15.241  0.2668 -0.0502 -0.1952
16319TIP3    H170372   4.426   3.670  15.316 -0.5090  0.2013 -0.7868
16319TIP3    H270373   4.480   3.767  15.213  1.6136  0.2014  0.2818
16320TIP3   OH270374   0.018   3.933  17.072 -0.6879 -0.2805  0.1263
16320TIP3    H170375   0.093   3.908  17.127 -0.1818 -0.2792 -0.5491
16320TIP3    H270376   0.053   3.933  16.983 -1.3971  0.1152 -0.1567
16321TIP3   OH270377   6.567   0.517   1.417 -0.3234 -0.0870 -0.3145
16321TIP3    H170378   6.654   0.536   1.383  0.8300 -0.3511  2.2190
16321TIP3    H270379   6.574   0.428   1.452 -1.3320  0.2203  0.7201
16322TIP3   OH270380   3.572   5.106  12.938 -0.2776  0.1799 -0.0880
16322TIP3    H170381   3.589   5.032  12.997 -0.6792  0.8830  0.9393
16322TIP3    H270382   3.614   5.081  12.856  3.5241  0.6612  1.4826
16323TIP3   OH270383   0.847   3.114  13.400 -0.0041 -0.1888  0.2811
16323TIP3    H170384   0.940   3.128  13.386  0.1615  1.1339  2.4459
16323TIP3    H270385   0.842   3.052  13.473 -0.8553 -1.5676 -0.8814
16324TIP3   OH270386   2.923   2.322   1.914 -0.6946  0.4265  0.2337
16324TIP3    H170387   2.961   2.252   1.967 -0.9711 -2.4334 -3.0076
16324TIP3    H270388   2.830   2.324   1.940 -1.2586 -2.2556 -1.2839
16325TIP3   OH270389   0.754   0.199  12.377 -0.0655  0.0738  0.0997
16325TIP3    H170390   0.715   0.280  12.343 -0.3296 -0.4182 -0.8162
16325TIP3    H270391   0.682   0.137  12.378  0.3501 -0.4226 -0.1607
16326TIP3   OH270392   3.250   0.938  16.711 -0.0028 -0.1986 -0.0722
16326TIP3    H170393   3.229   0.860  16.763 -2.3941  1.2395  1.2970
16326TIP3    H270394   3.168   0.960  16.666  1.2648  0.2406 -2.2931
16327TIP3   OH270395   0.702   5.048   5.112 -0.0074  0.7842 -0.5346
16327TIP3    H170396   0.750   5.125   5.083  0.8695  0.1132 -0.9027
16327TIP3    H270397   0.626   5.083   5.158  0.6575  1.8618 -0.2318
16328TIP3   OH270398   0.935   3.502   4.994 -0.5403  0.5205 -0.2786
16328TIP3    H170399   0.959   3.416   4.960 -0.5264  1.3918 -2.6586
16328TIP3    H270400   1.018   3.548   5.006 -0.6369  0.8713 -0.9325
16329TIP3   OH270401   0.868   4.258  16.658 -0.4022 -0.0675  0.1169
16329TIP3    H170402   0.923   4.214  16.594  1.2183 -0.2016  1.5254
16329TIP3    H270403   0.800   4.194  16.680 -0.7743 -0.1377 -1.1707
16330TIP3   OH270404   0.481   3.572  12.624  0.1464 -0.2586  0.6692
16330TIP3    H170405   0.493   3.599  12.715  0.8612  2.0882 -0.0629
16330TIP3    H270406   0.386   3.569  12.613  0.0522 -0.5714  1.4871
16331TIP3   OH270407   4.022   6.781   5.223 -0.3464 -0.3062  0.1776
16331TIP3    H170408   4.059   6.792   5.135  0.4424 -2.0800  0.2604
16331TIP3    H270409   4.023   6.870   5.260 -0.4888  0.4350 -1.5040
16332TIP3   OH270410   3.207   5.178  16.253 -0.1610 -0.5345  0.0610
16332TIP3    H170411   3.265   5.254  16.268 -1.7394  0.9212 -0.8613
16332TIP3    H270412   3.132   5.194  16.311 -0.5516 -1.3459 -0.2117
16333TIP3   OH270413   5.961   3.857  15.054 -0.0081 -0.1038  0.1120
16333TIP3    H170414   5.995   3.767  15.051  0.2394 -0.0306  0.6479
16333TIP3    H270415   5.886   3.851  15.114 -0.8015 -0.2143 -0.8633
16334TIP3   OH270416   1.389   3.869   4.886  0.3475  0.5449 -0.3350
16334TIP3    H170417   1.370   3.860   4.979 -1.5015 -1.5199 -0.8297
16334TIP3    H270418   1.318   3.923   4.852  1.5528  2.1547 -0.4638
16335TIP3   OH270419   6.483   0.605   5.046 -0.3012  0.4012  0.2695
16335TIP3    H170420   6.466   0.530   4.990 -1.2533 -0.0920  1.1670
16335TIP3    H270421   6.558   0.579   5.100  0.3517  0.7153 -0.4764
16336TIP3   OH270422   0.194   6.752  16.146 -0.4646  0.5916 -0.2035
16336TIP3    H170423   0.243   6.694  16.204 -1.0923  1.2168  1.0016
16336TIP3    H270424   0.255   6.773  16.075  0.0273 -0.8943 -0.2429
16337TIP3   OH270425   5.306   6.494   4.648 -0.2063  0.8285  0.1743
16337TIP3    H170426   5.374   6.453   4.594 -1.6755  0.3429 -1.3882
16337TIP3    H270427   5.354   6.555   4.704  1.7381 -0.9213  0.5607
16338TIP3   OH270428   2.349   0.597   0.650  0.4027  0.4643 -0.1211
16338TIP3    H170429   2.372   0.516   0.604  0.4871  0.1745  0.4222
16338TIP3    H270430   2.308   0.652   0.583 -1.5538 -0.8187 -0.0639
16339TIP3   OH270431   4.938   2.988  12.218 -0.0175  0.6557  0.1864
16339TIP3    H170432   4.926   2.912  12.160 -0.3285  0.6728  0.2287
16339TIP3    H270433   5.032   3.005  12.216 -0.0819  0.9863 -0.7486
16340TIP3   OH270434   0.997   2.910   1.593 -0.0510 -0.4044  0.1090
16340TIP3    H170435   1.021   2.847   1.526  1.0217  1.4738 -1.3717
16340TIP3    H270436   1.081   2.938   1.631 -0.5302 -0.1013  0.9884
16341TIP3   OH270437   3.601   1.400   1.771  0.3876 -0.3933 -0.4858
16341TIP3    H170438   3.574   1.435   1.686 -0.8674 -0.2974 -0.0699
16341TIP3    H270439   3.606   1.476   1.828 -2.4710 -0.7714  0.4559
16342TIP3   OH270440   3.933   0.535  13.306 -0.0497  0.2118 -0.3025
16342TIP3    H170441   3.931   0.443  13.334  1.8935  0.0798 -0.4362
16342TIP3    H270442   3.903   0.533  13.215  0.4213 -0.3664 -0.4490
16343TIP3   OH270443   1.427   1.697  13.162 -0.0892 -0.0730 -0.6149
16343TIP3    H170444   1.339   1.735  13.168 -0.9503 -2.0424  0.4180
16343TIP3    H270445   1.412   1.610  13.124  1.0497 -1.3564  1.6337
16344TIP3   OH270446   4.656   0.981  14.350 -0.1981  0.0036  0.7871
16344TIP3    H170447   4.648   0.924  14.274 -0.1593  0.1651  0.6628
16344TIP3    H270448   4.652   1.070  14.315  0.4502  0.0850  0.8980
16345TIP3   OH270449   1.465   5.521  13.538  0.0296 -0.0032  0.2136
16345TIP3    H170450   1.554   5.546  13.564  1.1798 -3.5659  0.2525
16345TIP3    H270451   1.464   5.532  13.443 -0.1380  1.6440  0.3662
16346TIP3   OH270452   3.561   4.403  12.052 -0.1223  0.3414  0.2266
16346TIP3    H170453   3.573   4.309  12.042  0.4751  0.4857 -0.5231
16346TIP3    H270454   3.640   4.432  12.099  0.4663  0.6731 -0.9103
16347TIP3   OH270455   4.118   0.953   1.352 -0.1626 -0.3699  0.5791
16347TIP3    H170456   4.187   0.933   1.415  0.7520  1.3606  0.1858
16347TIP3    H270457   4.076   1.032   1.387 -0.4263 -0.0916 -0.3447
16348TIP3   OH270458   3.594   5.625   6.201  0.2660 -0.0383  0.0232
16348TIP3    H170459   3.670   5.665   6.244  0.8189 -1.0350 -0.0018
16348TIP3    H270460   3.629   5.546   6.159 -1.2099 -2.0531  2.2767
16349TIP3   OH270461   1.415   0.954   2.658 -0.3247  0.1122  0.2022
16349TIP3    H170462   1.485   0.897   2.691  1.2035  1.3355 -0.7249
16349TIP3    H270463   1.360   0.897   2.605  0.8257 -0.6330 -0.2284
16350TIP3   OH270464   5.049   4.970   6.314 -0.3130  0.3562 -0.6945
16350TIP3    H170465   5.028   4.879   6.295 -2.1585  0.2723  1.3523
16350TIP3    H270466   5.010   5.019   6.242 -1.8674 -0.3134 -0.3493
16351TIP3   OH270467   3.460   2.750  11.538  0.6560 -0.1078  0.5801
16351TIP3    H170468   3.482   2.793  11.456 -3.3437  1.9660  0.3816
16351TIP3    H270469   3.446   2.821  11.600  0.4746 -1.4781  2.1882
16352TIP3   OH270470   0.260   1.784   3.840  0.3039 -0.0066  0.1846
16352TIP3    H170471   0.198   1.714   3.862 -0.0130 -0.1516 -1.0757
16352TIP3    H270472   0.336   1.739   3.804  0.0199  0.2969 -0.8133
16353TIP3   OH270473   6.481   0.334  16.124 -0.1018 -0.0275 -0.2090
16353TIP3    H170474   6.398   0.348  16.168  0.7656  1.7770  1.0176
16353TIP3    H270475   6.473   0.382  16.041  0.0656  1.0929  0.4016
16354TIP3   OH270476   5.899   3.162  13.298 -0.2307 -0.2001 -0.1974
16354TIP3    H170477   5.855   3.093  13.348 -0.9337 -0.8126 -1.6068
16354TIP3    H270478   5.991   3.134  13.296 -0.4795 -1.0205 -0.6104
16355TIP3   OH270479   5.125   6.200  15.870 -0.6010  0.2376 -0.4337
16355TIP3    H170480   5.106   6.174  15.960 -3.6661  3.1054 -0.0167
16355TIP3    H270481   5.183   6.276  15.879 -0.8150  0.4544 -0.8588
16356TIP3   OH270482   1.857   3.771   1.793 -0.5654  0.0757  0.9303
16356TIP3    H170483   1.940   3.769   1.746 -0.7965 -0.8509  0.5304
16356TIP3    H270484   1.846   3.682   1.825 -1.7780 -0.0310  0.2867
16357TIP3   OH270485   1.873   6.077  15.505 -0.4175 -0.3138  0.3714
16357TIP3    H170486   1.954   6.082  15.555  0.3848  0.2088 -0.9087
16357TIP3    H270487   1.889   6.132  15.428 -1.5675 -1.1226 -0.4938
16358TIP3   OH270488   3.727   2.454   4.674  0.4730 -0.1747  0.4181
16358TIP3    H170489   3.811   2.460   4.628  0.6329  1.8272  0.8578
16358TIP3    H270490   3.726   2.366   4.711  2.4816 -0.1690  0.5847
16359TIP3   OH270491   0.347   2.998   3.041 -0.1548 -0.4252  1.0484
16359TIP3    H170492   0.402   2.967   2.970  0.1338  0.7785  0.7377
16359TIP3    H270493   0.364   2.936   3.112  0.2554 -1.0937  0.3904
16360TIP3   OH270494   4.715   0.443   5.547 -0.0611 -0.2341  0.1546
16360TIP3    H170495   4.635   0.399   5.576 -0.2827 -0.7573 -1.1674
16360TIP3    H270496   4.706   0.448   5.451  2.2423 -1.9067 -0.2546
16361TIP3   OH270497   2.137   6.761  14.478 -0.2820  0.5617  0.0066
16361TIP3    H170498   2.214   6.806  14.443 -0.3790  0.6504 -0.0938
16361TIP3    H270499   2.072   6.765  14.407  0.1070 -0.7927 -0.4603
16362TIP3   OH270500   5.960   6.501  12.940 -0.1754  0.3713 -0.1306
16362TIP3    H170501   5.928   6.471  13.025  1.0456 -1.9208 -0.4057
16362TIP3    H270502   5.901   6.460  12.876  0.2652  0.2250 -0.4504
16363TIP3   OH270503   1.782   2.865   3.217  0.2047 -0.6183 -0.3763
16363TIP3    H170504   1.743   2.929   3.276  1.2574 -0.8713  0.6191
16363TIP3    H270505   1.876   2.870   3.234  0.4196 -1.5499 -1.1752
16364TIP3   OH270506   5.768   0.043   6.155  0.0453 -0.4884  0.0413
16364TIP3    H170507   5.674   0.042   6.141  0.2099 -1.5786 -1.1189
16364TIP3    H270508   5.783  -0.024   6.221  0.0745 -0.8696 -0.3454
16365TIP3   OH270509   2.245   2.169  15.338 -0.4049 -0.0832 -0.1003
16365TIP3    H170510   2.161   2.209  15.316 -0.7183 -1.0297 -0.6794
16365TIP3    H270511   2.294   2.239  15.382 -1.8313  0.2228  1.1133
16366TIP3   OH270512   0.856   4.937   0.311  0.3649  0.0365 -0.3123
16366TIP3    H170513   0.826   5.008   0.367 -1.3929  0.1125 -1.2656
16366TIP3    H270514   0.850   4.972   0.222 -1.4385 -1.5474 -0.8718
16367TIP3   OH270515   1.971   1.455  13.935 -0.1826 -0.4518 -0.3566
16367TIP3    H170516   1.883   1.418  13.940 -0.1565 -0.4869 -0.1518
16367TIP3    H270517   1.979   1.509  14.014 -1.0193  1.7674 -1.7138
16368TIP3   OH270518   2.954   1.946  14.629  0.1979 -0.2807 -0.2448
16368TIP3    H170519   2.894   1.928  14.702  0.3792 -0.9049 -0.2446
16368TIP3    H270520   2.900   1.934  14.550  0.2479 -0.5520 -0.2371
16369TIP3   OH270521   5.830   0.704  14.267 -0.2721  0.7603 -0.4713
16369TIP3    H170522   5.906   0.731  14.319 -0.2994  0.9400 -0.5231
16369TIP3    H270523   5.846   0.612  14.247 -1.2848  0.0755  1.6369
16370TIP3   OH270524   5.199   5.683  15.581  0.2170  0.1505  0.3126
16370TIP3    H170525   5.239   5.764  15.549 -0.7121  0.8238  0.7979
16370TIP3    H270526   5.106   5.692  15.558  0.2790 -1.2967 -0.6395
16371TIP3   OH270527   2.298   4.166   0.486  0.1299  0.1936 -0.1945
16371TIP3    H170528   2.381   4.151   0.440  1.1783  0.7831  1.4306
16371TIP3    H270529   2.288   4.261   0.486 -0.5803  0.1217 -0.4161
16372TIP3   OH270530   4.956   1.643   1.332  0.2210 -0.5005 -0.7589
16372TIP3    H170531   4.872   1.597   1.335  0.5953 -1.1593  0.7141
16372TIP3    H270532   4.943   1.721   1.386 -0.1615  0.7623 -2.5825
16373TIP3   OH270533   6.261   1.041  11.626  0.1961 -0.4526 -0.1525
16373TIP3    H170534   6.301   1.119  11.665  0.4640  0.0141 -1.3284
16373TIP3    H270535   6.181   1.073  11.584 -2.0975 -1.5048  2.9615
16374TIP3   OH270536   6.494   1.143   1.135  0.2367  0.1305 -0.1849
16374TIP3    H170537   6.435   1.139   1.211  0.6725 -0.1375  0.1421
16374TIP3    H270538   6.581   1.156   1.173  0.5800 -0.9024 -0.5898
16375TIP3   OH270539   4.395   6.174   2.098  0.2838 -0.7764  0.4394
16375TIP3    H170540   4.341   6.097   2.081 -0.5522  0.0574 -0.8763
16375TIP3    H270541   4.408   6.214   2.012  0.5756  0.6182  1.0979
16376TIP3   OH270542   4.224   1.239  16.142  0.8550 -0.1618 -0.5170
16376TIP3    H170543   4.132   1.237  16.166  0.7174  0.3098 -0.9815
16376TIP3    H270544   4.239   1.328  16.110  1.5831 -0.1011 -0.0325
16377TIP3   OH270545   4.131   5.391   1.692 -0.0616 -0.0276 -0.5190
16377TIP3    H170546   4.144   5.300   1.667 -2.8802 -0.0273 -2.3347
16377TIP3    H270547   4.096   5.386   1.781 -0.5036 -0.7338 -0.7251
16378TIP3   OH270548   5.720   3.640  14.316  0.1941 -0.0528 -0.2514
16378TIP3    H170549   5.734   3.724  14.360 -0.0461 -0.0435 -0.1850
16378TIP3    H270550   5.624   3.629  14.318  0.0365  0.6992 -2.1774
16379TIP3   OH270551   4.237   3.344  15.087 -0.1224  0.2620  0.3157
16379TIP3    H170552   4.209   3.312  15.002  0.0076 -2.6476  1.2596
16379TIP3    H270553   4.157   3.376  15.129 -0.1404  2.0004 -0.9372
16380TIP3   OH270554   5.081   0.743   5.033  0.4688 -0.1456  0.2218
16380TIP3    H170555   5.168   0.760   4.997  0.0132 -0.7810 -1.2694
16380TIP3    H270556   5.087   0.655   5.070  1.0294  0.6345  2.0773
16381TIP3   OH270557   0.152   3.220  14.491 -0.0313 -0.3194 -0.1343
16381TIP3    H170558   0.155   3.135  14.534 -1.4250 -0.0955  0.4789
16381TIP3    H270559   0.228   3.267  14.526 -1.1346 -0.1373  2.2009
16382TIP3   OH270560   3.986   1.018  11.072  0.1481  0.0878  0.0560
16382TIP3    H170561   4.068   1.039  11.116  0.6216 -0.4620 -0.5415
16382TIP3    H270562   3.999   1.048  10.982  0.1939 -1.1655 -0.3730
16383TIP3   OH270563   1.566   0.912  16.645  0.1814 -0.4495 -0.3698
16383TIP3    H170564   1.565   0.909  16.741 -2.0501  1.3973 -0.2583
16383TIP3    H270565   1.527   0.829  16.618 -1.1218 -0.1148  0.4096
16384TIP3   OH270566   4.645   1.527   1.674  0.4762 -0.4270  0.1592
16384TIP3    H170567   4.615   1.602   1.623 -1.0655 -0.1713  1.3912
16384TIP3    H270568   4.568   1.499   1.723  1.3662 -2.0146  0.7086
16385TIP3   OH270569   1.546   1.252   1.264  0.4367  0.6109  0.5467
16385TIP3    H170570   1.495   1.253   1.345 -1.4821  2.8333 -0.5601
16385TIP3    H270571   1.523   1.334   1.220  3.4718  0.7671 -1.0298
16386TIP3   OH270572   3.404   5.227   4.420 -0.0764  0.0177 -0.1071
16386TIP3    H170573   3.430   5.242   4.330 -2.5049  0.6093 -0.7883
16386TIP3    H270574   3.445   5.144   4.444  1.9485  0.6590 -1.1409
16387TIP3   OH270575   1.170   2.790  12.664 -0.3228 -0.5527  1.0316
16387TIP3    H170576   1.144   2.879  12.688  1.9822  1.0459 -1.8069
16387TIP3    H270577   1.120   2.772  12.584  1.2695 -0.5831 -0.0038
16388TIP3   OH270578   5.076   0.444   3.034  0.4671 -0.2828 -1.1226
16388TIP3    H170579   5.161   0.472   3.068  0.0113 -0.1586 -0.0335
16388TIP3    H270580   5.094   0.366   2.983  1.0964 -0.9443  0.0737
16389TIP3   OH270581   1.843   4.544   0.354  0.0452  0.2178  0.1446
16389TIP3    H170582   1.906   4.473   0.367 -0.5489 -0.6338 -1.3776
16389TIP3    H270583   1.804   4.526   0.269  0.2135  2.6528 -0.5153
16390TIP3   OH270584   0.791   1.409  14.536  0.4587  0.2966  0.3211
16390TIP3    H170585   0.719   1.446  14.485  0.3311  1.0280  1.0193
16390TIP3    H270586   0.750   1.375  14.615  0.5682 -1.4155 -0.3097
16391TIP3   OH270587   0.016   1.299  10.657 -0.0854  0.0518 -0.2406
16391TIP3    H170588  -0.076   1.279  10.677 -0.1535 -1.3164 -1.6752
16391TIP3    H270589   0.061   1.216  10.670  1.0491  0.8095  0.8248
16392TIP3   OH270590   5.579   4.424   5.632 -0.3543 -0.0225  0.1135
16392TIP3    H170591   5.625   4.419   5.715  0.7638  1.7062 -0.3507
16392TIP3    H270592   5.506   4.483   5.649  0.1750  0.7477 -0.2382
16393TIP3   OH270593   1.442   0.618  13.804  0.2732  0.5708 -0.3586
16393TIP3    H170594   1.379   0.685  13.831  0.2515  0.8854 -1.1480
16393TIP3    H270595   1.509   0.667  13.757  1.0662  0.2234  0.3938
16394TIP3   OH270596   6.550   2.183   4.540  0.3078  0.0825 -0.1248
16394TIP3    H170597   6.639   2.216   4.543  1.3250 -2.3169  3.0757
16394TIP3    H270598   6.496   2.254   4.574  1.2497  1.0134 -0.5564
16395TIP3   OH270599   4.394   2.463  12.218  0.0610 -0.5245 -0.0420
16395TIP3    H170600   4.394   2.540  12.274  0.8116  0.3064 -1.1427
16395TIP3    H270601   4.315   2.415  12.244 -1.4174  1.5106 -0.5336
16396TIP3   OH270602   5.602   5.857  17.113  0.4712 -0.3345  0.5062
16396TIP3    H170603   5.544   5.781  17.125 -2.0201  1.3495 -0.0919
16396TIP3    H270604   5.658   5.832  17.039 -3.0741 -0.2626 -2.5459
16397TIP3   OH270605   0.988   5.435  14.261  0.7132 -0.3687 -0.1627
16397TIP3    H170606   0.925   5.443  14.190  1.8876 -0.7898 -1.3074
16397TIP3    H270607   0.988   5.521  14.304  0.3604  0.0753 -1.0231
16398TIP3   OH270608   2.665   2.243   0.711  0.1851  0.1429  0.3763
16398TIP3    H170609   2.738   2.278   0.764  0.3155  0.5028 -0.0362
16398TIP3    H270610   2.593   2.235   0.773 -0.7074  3.7209  0.0253
16399TIP3   OH270611   3.260   0.056   4.294 -0.5432  0.1112  0.0179
16399TIP3    H170612   3.233  -0.002   4.222  1.5712 -0.7901 -0.1382
16399TIP3    H270613   3.319   0.002   4.347 -1.4596  0.9934  2.0387
16400TIP3   OH270614   4.525   1.089   2.359 -0.5281  1.1117 -0.0606
16400TIP3    H170615   4.455   1.032   2.329  1.2758 -0.2083 -2.1254
16400TIP3    H270616   4.588   1.030   2.400  0.3125  1.9450 -0.1121
16401TIP3   OH270617   1.592   6.238  10.807  0.5843  1.1134  0.2454
16401TIP3    H170618   1.615   6.148  10.785  0.6305  1.3017 -0.5158
16401TIP3    H270619   1.546   6.232  10.891 -0.8620  0.1852 -0.5672
16402TIP3   OH270620   2.099   6.029   4.925  0.2967  0.8142  0.5379
16402TIP3    H170621   2.097   6.066   5.013  0.4944  1.2388  0.3648
16402TIP3    H270622   2.177   5.974   4.923  0.4704  1.0603  0.5256
16403TIP3   OH270623   4.632   3.896   5.384  0.1736  0.3579  0.1982
16403TIP3    H170624   4.633   3.926   5.293  0.4862 -0.0041  0.0772
16403TIP3    H270625   4.631   3.800   5.377 -1.1069  0.3278  0.5750
16404TIP3   OH270626   5.113   6.680   5.394  0.3047  0.2495 -0.0695
16404TIP3    H170627   5.017   6.686   5.395  0.2544  1.3358 -2.5211
16404TIP3    H270628   5.132   6.595   5.433 -1.8334 -0.9351 -1.3915
16405TIP3   OH270629   1.659   0.778   2.289  0.5450  0.4576 -0.2940
16405TIP3    H170630   1.645   0.832   2.367 -0.9059  0.3498 -0.4437
16405TIP3    H270631   1.604   0.818   2.222 -0.4099 -1.0546 -0.4645
16406TIP3   OH270632   5.766   5.503   3.230  0.1978  0.3835 -0.5447
16406TIP3    H170633   5.755   5.424   3.177 -1.1565  1.6783 -2.3099
16406TIP3    H270634   5.718   5.484   3.311  0.0528 -0.6609 -0.8599
16407TIP3   OH270635   1.475   6.270   4.095 -0.0549 -0.1460 -0.0635
16407TIP3    H170636   1.569   6.272   4.113 -0.2426  0.8853  0.8797
16407TIP3    H270637   1.434   6.267   4.182 -0.8981 -1.6159 -0.4679
16408TIP3   OH270638   4.956   4.316  11.764  0.1273  0.1965 -0.2156
16408TIP3    H170639   4.949   4.409  11.783  0.6179 -0.0827  1.5635
16408TIP3    H270640   5.038   4.289  11.806 -0.4106 -1.1770  0.0013
16409TIP3   OH270641   0.671   2.641   5.231  0.1417 -0.4978 -0.1620
16409TIP3    H170642   0.657   2.613   5.140 -0.3443 -0.4124 -0.1154
16409TIP3    H270643   0.698   2.562   5.277  0.2450 -0.5722 -0.3487
16410TIP3   OH270644   6.768   5.595   4.099  0.2074 -0.1911  0.6184
16410TIP3    H170645   6.729   5.682   4.110 -1.0485 -0.6683  0.0856
16410TIP3    H270646   6.770   5.581   4.005 -1.3661 -1.4733  0.7238
16411TIP3   OH270647   5.292   4.602   3.289  0.1168  0.5374  0.5516
16411TIP3    H170648   5.306   4.620   3.382 -0.7782  1.8231  0.4715
16411TIP3    H270649   5.297   4.688   3.247 -0.1147  0.0550 -0.5089
16412TIP3   OH270650   1.938   0.247  16.640  0.1815 -0.3018  0.4409
16412TIP3    H170651   1.959   0.292  16.558  2.2201 -1.4179  0.2890
16412TIP3    H270652   1.859   0.197  16.620  0.9390 -0.9653 -1.0590
16413TIP3   OH270653   0.740   3.974  12.372  0.0163 -0.2834  0.1183
16413TIP3    H170654   0.718   3.901  12.315  0.0256  0.2376 -0.5665
16413TIP3    H270655   0.687   4.047  12.339 -0.2217 -0.0517  0.9782
16414TIP3   OH270656   2.957   6.364   2.732 -0.2322 -0.0289 -0.3391
16414TIP3    H170657   3.016   6.398   2.665 -1.7835  2.0369 -0.7530
16414TIP3    H270658   2.919   6.286   2.693 -0.1601  0.4337 -1.3470
16415TIP3   OH270659   4.158   3.099  16.970 -0.0130 -0.2992 -0.0531
16415TIP3    H170660   4.152   3.016  17.017 -0.6087  0.5624  1.4680
16415TIP3    H270661   4.198   3.159  17.032  0.1261  0.6370 -1.0197
16416TIP3   OH270662   2.968   3.088   0.228 -0.2505 -0.1937 -0.3832
16416TIP3    H170663   2.933   3.175   0.247  0.4432 -0.4966  2.7771
16416TIP3    H270664   3.062   3.102   0.217 -0.2702 -0.4327 -0.8841
16417TIP3   OH270665   2.752   4.336   5.543 -0.1372 -0.0107  0.2322
16417TIP3    H170666   2.743   4.282   5.465 -0.1494 -0.0753  0.2782
16417TIP3    H270667   2.796   4.416   5.512 -1.5161  0.6287 -0.1280
16418TIP3   OH270668   2.423   1.981  15.825 -0.8317  0.0639  0.0230
16418TIP3    H170669   2.368   1.906  15.803  0.9919 -1.4579  0.3327
16418TIP3    H270670   2.362   2.048  15.855 -2.5602 -1.1907 -0.5550
16419TIP3   OH270671   4.199   2.305   2.631 -0.2979 -0.0020  0.2964
16419TIP3    H170672   4.120   2.256   2.656 -0.8983  0.7657 -0.0459
16419TIP3    H270673   4.185   2.327   2.539 -0.0655  0.8426  0.4495
16420TIP3   OH270674   2.614   0.464   0.704  0.1839  0.1946  0.0966
16420TIP3    H170675   2.587   0.406   0.633 -1.7114  0.5818  0.4396
16420TIP3    H270676   2.578   0.549   0.681  0.8692  0.6888  0.7877
16421TIP3   OH270677   3.682   2.795   4.038  0.5386 -0.3190 -0.1436
16421TIP3    H170678   3.591   2.782   4.066  0.7457 -1.0307  0.2150
16421TIP3    H270679   3.716   2.707   4.024  0.9805 -0.0354 -0.9259
16422TIP3   OH270680   6.581   4.057   3.597 -0.2894  0.0359 -0.3113
16422TIP3    H170681   6.662   4.078   3.552  0.3176 -0.6621  0.4298
16422TIP3    H270682   6.584   4.109   3.678 -0.9710  0.6302 -0.6565
16423TIP3   OH270683   4.456   6.160  15.513  0.3818  0.4098  0.2786
16423TIP3    H170684   4.401   6.233  15.484  0.8525  0.4220 -0.6414
16423TIP3    H270685   4.400   6.109  15.572  0.1855  1.7328  1.2777
16424TIP3   OH270686   0.562   6.528   1.640 -1.2013  0.2164  0.3712
16424TIP3    H170687   0.654   6.532   1.666 -1.5141 -0.9418  1.7598
16424TIP3    H270688   0.560   6.464   1.569 -0.8172  0.9100 -0.2729
16425TIP3   OH270689   6.782   6.020  15.981  0.2189  0.2042 -0.2217
16425TIP3    H170690   6.756   5.960  16.050 -1.2598  1.0965  0.0519
16425TIP3    H270691   6.768   5.970  15.900 -0.6480  0.0273  0.0160
16426TIP3   OH270692   1.541   4.521  12.981 -0.4822  0.0135  1.0156
16426TIP3    H170693   1.464   4.508  12.925 -1.4975  1.5217  1.9866
16426TIP3    H270694   1.600   4.574  12.928 -0.7114  0.0138  0.7546
16427TIP3   OH270695   5.740   6.155  14.425  0.5419  0.2608 -0.0802
16427TIP3    H170696   5.653   6.144  14.387  0.3533  0.7675  0.1888
16427TIP3    H270697   5.752   6.250  14.430  0.8054  0.1990  0.5644
16428TIP3   OH270698   4.225   6.398   4.821  0.1435  0.1090 -0.3893
16428TIP3    H170699   4.279   6.366   4.893 -0.2952 -0.1259 -0.1642
16428TIP3    H270700   4.289   6.424   4.754  0.5919  1.2151  0.4312
16429TIP3   OH270701   5.220   4.772   0.671  0.2808 -0.2082 -0.2979
16429TIP3    H170702   5.218   4.817   0.756  0.6676 -0.0515 -0.3718
16429TIP3    H270703   5.298   4.718   0.673 -0.9957 -2.1010  0.3949
16430TIP3   OH270704   0.038   0.417   2.568  0.1047  0.2385 -0.1486
16430TIP3    H170705   0.030   0.411   2.473  2.1181 -1.8902 -0.2747
16430TIP3    H270706  -0.009   0.498   2.592 -0.7786  0.6069 -2.8658
16431TIP3   OH270707   3.282   4.667   4.183 -0.5831 -0.1005  0.3718
16431TIP3    H170708   3.355   4.641   4.126 -1.1675 -0.9826  0.0026
16431TIP3    H270709   3.215   4.698   4.123 -1.3794 -1.4672  0.5078
16432TIP3   OH270710   5.422   4.126   1.885 -0.2405 -0.1954 -0.0199
16432TIP3    H170711   5.496   4.136   1.826 -0.0353  0.2170  0.3009
16432TIP3    H270712   5.388   4.214   1.897 -0.4992 -0.3227  0.1928
16433TIP3   OH270713   3.507   5.546  14.478 -0.1503  0.0964  0.1031
16433TIP3    H170714   3.427   5.546  14.426  0.1749 -0.2792 -0.4172
16433TIP3    H270715   3.548   5.461  14.459 -0.3305 -0.3124  1.4726
16434TIP3   OH270716   5.378   4.796  14.492  0.0031 -0.0612  0.0595
16434TIP3    H170717   5.373   4.858  14.564  1.2043  1.3344 -0.9947
16434TIP3    H270718   5.442   4.731  14.521  1.0715  0.9205 -0.0122
16435TIP3   OH270719   5.718   1.004  12.076 -0.2248  0.4247  0.3124
16435TIP3    H170720   5.801   0.958  12.068 -0.6487 -1.0871  3.2048
16435TIP3    H270721   5.669   0.979  11.998  0.7231 -1.6003  0.3089
16436TIP3   OH270722   1.983   3.273  13.759 -0.9614  0.4808 -0.1989
16436TIP3    H170723   2.021   3.187  13.740  1.4522  1.3685  0.2357
16436TIP3    H270724   1.888   3.258  13.760 -0.7258 -1.7288 -2.2132
16437TIP3   OH270725   4.401   3.837  13.791 -0.3782 -0.2414 -0.2370
16437TIP3    H170726   4.365   3.922  13.820 -1.2048 -0.6872  0.0843
16437TIP3    H270727   4.363   3.824  13.705  0.7577  0.2958 -0.8422
16438TIP3   OH270728   2.929   2.165  13.746  0.3801 -0.5211 -0.1219
16438TIP3    H170729   2.874   2.106  13.796  2.3581 -1.3659  1.1780
16438TIP3    H270730   2.988   2.107  13.697  1.6004  0.3203  0.2970
16439TIP3   OH270731   3.955   3.257  14.327 -0.1746 -0.0027  0.2001
16439TIP3    H170732   4.046   3.238  14.308  0.5499  1.4016  1.9374
16439TIP3    H270733   3.954   3.352  14.344 -1.4892 -0.3581  2.4587
16440TIP3   OH270734   2.762   4.675   6.174 -0.0436  0.3733 -0.3286
16440TIP3    H170735   2.793   4.660   6.263 -0.2434 -0.8429 -0.4500
16440TIP3    H270736   2.752   4.588   6.137  2.2140  0.8291 -2.3125
16441TIP3   OH270737   0.577   6.724  14.140 -0.5566 -0.2455  0.7518
16441TIP3    H170738   0.621   6.782  14.202  1.2728  0.3125 -0.9595
16441TIP3    H270739   0.492   6.766  14.124  0.6173  1.8735 -0.2447
16442TIP3   OH270740   5.057   2.127   3.638 -0.1425  0.2261 -0.3612
16442TIP3    H170741   5.050   2.222   3.649  0.9156  0.4039 -1.0538
16442TIP3    H270742   5.115   2.116   3.562 -0.2260 -0.9751 -0.2673
16443TIP3   OH270743   1.324   4.697   1.213  0.3408 -0.4274  0.1328
16443TIP3    H170744   1.234   4.713   1.186  1.1745  0.6511 -2.2870
16443TIP3    H270745   1.365   4.784   1.212  1.6600 -1.0227  0.1800
16444TIP3   OH270746   1.775   1.480   0.951 -0.5256  0.2099 -0.2044
16444TIP3    H170747   1.858   1.503   0.908  0.4134 -1.0005  0.8797
16444TIP3    H270748   1.770   1.541   1.026 -0.2760 -0.1409  0.1022
16445TIP3   OH270749   4.478   1.772  16.442 -0.0459 -0.0047 -0.1746
16445TIP3    H170750   4.489   1.860  16.405  1.1810  0.2206  0.6835
16445TIP3    H270751   4.463   1.788  16.536  1.2349 -0.7435  0.1740
16446TIP3   OH270752   3.512   1.266  11.298 -0.0203 -0.0547  0.1977
16446TIP3    H170753   3.463   1.211  11.237  1.1540 -0.7303 -0.1713
16446TIP3    H270754   3.448   1.292  11.364 -1.9409  2.5394 -2.4069
16447TIP3   OH270755   0.989   4.047   1.706 -0.5525  0.2406  0.3309
16447TIP3    H170756   0.982   4.128   1.655 -0.7384  0.3331  0.5003
16447TIP3    H270757   1.083   4.038   1.723 -0.5357  0.4530  0.3599
16448TIP3   OH270758   2.641   5.133  14.222  0.2267  0.0790  0.2463
16448TIP3    H170759   2.618   5.111  14.132 -1.0273  1.6788  0.1191
16448TIP3    H270760   2.568   5.101  14.274  0.8919 -0.7362  0.6967
16449TIP3   OH270761   2.523   4.818  11.870 -0.1923 -0.0031  0.6592
16449TIP3    H170762   2.470   4.812  11.791 -0.7778 -0.7571  1.1001
16449TIP3    H270763   2.590   4.884  11.849  1.5709 -2.2861 -1.5637
16450TIP3   OH270764   5.894   2.755   3.752 -0.0852 -0.0029 -0.0532
16450TIP3    H170765   5.835   2.708   3.692 -0.0923  0.7003 -0.6183
16450TIP3    H270766   5.907   2.840   3.710  1.4858 -0.2131 -0.0287
16451TIP3   OH270767   6.077   4.478  12.592  0.8836 -0.4611  0.2531
16451TIP3    H170768   6.055   4.385  12.591  0.4173 -0.3729 -1.2782
16451TIP3    H270769   6.046   4.511  12.507  2.0037  0.8664  0.3153
16452TIP3   OH270770   6.158   2.345  16.573 -0.2318 -0.7263 -0.7663
16452TIP3    H170771   6.238   2.312  16.534 -0.5000 -2.2739 -0.1000
16452TIP3    H270772   6.100   2.363  16.499  1.2327  1.9978 -1.3623
16453TIP3   OH270773   1.785   5.672   3.583 -0.4285 -0.0447 -0.1515
16453TIP3    H170774   1.814   5.582   3.598  2.6233  1.0897  1.6269
16453TIP3    H270775   1.808   5.690   3.492 -1.0508 -1.0167 -0.5208
16454TIP3   OH270776   6.538   4.947  12.211  0.0519 -0.4321 -0.3246
16454TIP3    H170777   6.451   4.936  12.173  0.4781 -3.5977 -0.6832
16454TIP3    H270778   6.596   4.954  12.136  0.2676 -0.1551 -0.1301
16455TIP3   OH270779   2.951   5.928  14.539  0.2442  0.3322 -0.0845
16455TIP3    H170780   3.004   5.896  14.466  0.1502 -1.6328  0.6426
16455TIP3    H270781   2.924   6.016  14.513 -1.4512 -0.9851 -3.3197
16456TIP3   OH270782   3.728   3.991   2.093  0.1305  0.2626 -0.4862
16456TIP3    H170783   3.665   4.046   2.046 -0.9936 -0.6658 -0.1171
16456TIP3    H270784   3.765   3.934   2.026 -2.0747 -1.6331 -0.2128
16457TIP3   OH270785   0.017   5.764  14.580  0.6315 -0.2166  0.1378
16457TIP3    H170786  -0.071   5.798  14.593  0.8730  0.4353  0.1211
16457TIP3    H270787   0.017   5.726  14.493  0.7723  1.1228 -0.4689
16458TIP3   OH270788   6.351   4.840  13.247  0.6388  0.0901  0.5303
16458TIP3    H170789   6.413   4.781  13.204 -1.0113 -0.2012 -1.6406
16458TIP3    H270790   6.357   4.817  13.340  1.5646 -2.0773  0.0104
16459TIP3   OH270791   5.081   0.197  16.550 -0.5999 -0.2360 -0.0912
16459TIP3    H170792   5.038   0.258  16.610 -0.4215 -0.1220 -0.0804
16459TIP3    H270793   5.009   0.147  16.511 -0.6527 -1.3412  1.3128
16460TIP3   OH270794   0.912   3.922  11.391 -0.2064  0.3830 -0.6604
16460TIP3    H170795   0.976   3.946  11.324 -0.1814 -1.3940 -1.3359
16460TIP3    H270796   0.906   3.999  11.447  1.6403  1.0153 -1.2549
16461TIP3   OH270797   5.447   2.252  12.787 -0.5181  0.1338 -0.0435
16461TIP3    H170798   5.435   2.160  12.763  0.2779 -0.0932  0.3980
16461TIP3    H270799   5.363   2.293  12.766  0.1416  0.0258 -3.4549
16462TIP3   OH270800   3.755   2.281   1.917  0.3528  0.1231 -0.3943
16462TIP3    H170801   3.756   2.252   2.008  1.2196  1.4303  0.0438
16462TIP3    H270802   3.770   2.202   1.866 -0.2911 -0.6507  0.5819
16463TIP3   OH270803   2.682   5.198   3.649  0.0985  0.3658 -0.5057
16463TIP3    H170804   2.664   5.124   3.590 -1.6481 -0.6924  1.2346
16463TIP3    H270805   2.668   5.275   3.594  2.3859 -0.5069 -2.4891
16464TIP3   OH270806   4.155   4.483   1.507 -0.0018  0.3370 -0.3090
16464TIP3    H170807   4.236   4.503   1.459 -0.1132  1.4534 -0.0589
16464TIP3    H270808   4.158   4.541   1.583 -1.5393  1.2054 -0.8617
16465TIP3   OH270809   3.977   2.247   3.544  0.0472 -0.1680  0.1464
16465TIP3    H170810   3.910   2.179   3.549 -0.1982  0.0532 -0.0794
16465TIP3    H270811   3.930   2.328   3.560  0.7841 -0.2337  3.1858
16466TIP3   OH270812   5.920   0.022   4.711 -0.2498  0.1282  0.1025
16466TIP3    H170813   5.837  -0.012   4.678  0.1445 -1.5944  0.8019
16466TIP3    H270814   5.986  -0.042   4.685  0.7317  0.9664  0.4143
16467TIP3   OH270815   5.351   5.480   5.029 -0.0112  0.5754  0.3615
16467TIP3    H170816   5.375   5.437   4.947  0.1126 -0.7915  1.0722
16467TIP3    H270817   5.277   5.536   5.006  0.7404  1.0977 -0.8930
16468TIP3   OH270818   5.505   2.645  15.587  0.1713 -0.1425 -0.3740
16468TIP3    H170819   5.553   2.666  15.506 -0.0489  0.2292 -0.4139
16468TIP3    H270820   5.413   2.652  15.562  0.0844  1.5609  0.2898
16469TIP3   OH270821   5.090   5.317  11.280  0.1573 -0.3302  0.4803
16469TIP3    H170822   5.167   5.373  11.266  1.2403 -1.1900  2.5766
16469TIP3    H270823   5.127   5.231  11.300 -1.3952 -0.9633  0.7337
16470TIP3   OH270824   1.392   2.687  15.289  0.3490 -0.1770 -0.2212
16470TIP3    H170825   1.350   2.772  15.274  0.1030 -0.4034 -0.8656
16470TIP3    H270826   1.341   2.647  15.359 -0.0691 -0.1479 -0.5059
16471TIP3   OH270827   6.223   3.960   3.776  0.8371 -0.1815 -0.4980
16471TIP3    H170828   6.195   3.927   3.691 -1.0833 -0.9835  0.4030
16471TIP3    H270829   6.284   3.894   3.808  2.3182  0.5799 -1.5950
16472TIP3   OH270830   4.078   1.234  16.634 -0.0187 -0.1433 -0.2445
16472TIP3    H170831   4.121   1.195  16.558  0.8724  0.4363 -0.0574
16472TIP3    H270832   3.993   1.265  16.601 -0.2116 -1.1048 -0.6748
16473TIP3   OH270833   0.793   4.426   3.861 -0.0007  0.4897 -0.3136
16473TIP3    H170834   0.706   4.403   3.894 -0.9266  2.3978 -1.2917
16473TIP3    H270835   0.813   4.358   3.797  0.1623 -1.0920  1.3062
16474TIP3   OH270836   3.321   3.551  13.888  0.6744  0.3060  0.6140
16474TIP3    H170837   3.340   3.472  13.939  3.6474 -0.6355 -1.6839
16474TIP3    H270838   3.271   3.519  13.813  1.4392  0.6592 -0.0590
16475TIP3   OH270839   0.524   0.184  11.045  0.3418 -0.5882  0.0329
16475TIP3    H170840   0.447   0.213  10.996 -0.0711  0.0553  1.0273
16475TIP3    H270841   0.551   0.260  11.095  0.6081 -1.2873  0.9879
16476TIP3   OH270842   6.672   1.315  12.319 -0.1782  0.1011  0.4850
16476TIP3    H170843   6.635   1.245  12.372 -0.0156  0.8932  1.6843
16476TIP3    H270844   6.766   1.308  12.333 -0.0859 -0.0480 -0.1802
16477TIP3   OH270845   5.589   1.053  15.369  0.1797  0.4177 -0.5547
16477TIP3    H170846   5.502   1.027  15.401 -0.1501 -0.6806 -2.2217
16477TIP3    H270847   5.650   1.010  15.430 -0.4337  0.9602  0.4559
16478TIP3   OH270848   1.129   1.041   1.559 -0.5057 -0.1567 -0.3782
16478TIP3    H170849   1.054   1.090   1.527 -0.9226 -0.9066 -0.5843
16478TIP3    H270850   1.097   0.951   1.566 -0.3230 -0.1228  1.7073
16479TIP3   OH270851   0.087   3.804  16.820  0.2691 -0.9316 -0.2497
16479TIP3    H170852   0.151   3.873  16.804 -0.5627  0.1058  0.7302
16479TIP3    H270853   0.139   3.726  16.834  1.3274 -0.1206  0.5155
16480TIP3   OH270854   5.670   6.614  13.175  0.0782 -0.2770 -0.1145
16480TIP3    H170855   5.707   6.539  13.128  0.0634 -0.0291 -0.5182
16480TIP3    H270856   5.655   6.581  13.264  0.1755 -0.7204 -0.2614
16481TIP3   OH270857   3.094   4.377  14.216 -0.2287  0.0838  0.2912
16481TIP3    H170858   3.000   4.366  14.208  0.1222 -2.1686 -2.2247
16481TIP3    H270859   3.111   4.372  14.310 -2.6578  1.6184  0.8766
16482TIP3   OH270860   5.884   6.128   4.995  0.1116  0.2149 -0.3940
16482TIP3    H170861   5.790   6.114   4.999  0.1791 -0.1941 -0.2464
16482TIP3    H270862   5.900   6.199   5.058 -0.1590  0.6133 -0.7740
16483TIP3   OH270863   0.461   4.688  16.624 -0.1284  0.3071 -0.5926
16483TIP3    H170864   0.500   4.602  16.642 -0.8553  0.0625 -0.1556
16483TIP3    H270865   0.449   4.728  16.710 -1.7857 -0.0580 -0.6178
16484TIP3   OH270866   1.301   2.984   4.174  0.6833  0.9171 -0.4198
16484TIP3    H170867   1.314   2.889   4.171 -1.2917  0.5047  1.4825
16484TIP3    H270868   1.320   3.014   4.086  2.2398 -1.1003 -0.8494
16485TIP3   OH270869   5.235   0.870  11.041  0.2072 -0.0504  0.0197
16485TIP3    H170870   5.329   0.856  11.051  0.1561 -0.2101  0.2758
16485TIP3    H270871   5.196   0.783  11.048  0.0832 -0.0463 -0.6073
16486TIP3   OH270872   1.278   2.535   0.580 -0.1520  0.6232 -0.0353
16486TIP3    H170873   1.344   2.546   0.511  0.1616  0.9255  0.3056
16486TIP3    H270874   1.246   2.445   0.569  0.3295  0.4674 -0.1971
16487TIP3   OH270875   1.750   2.104   4.909  0.1760  0.2701 -0.2085
16487TIP3    H170876   1.783   2.116   4.998  0.2141  0.8095 -0.2885
16487TIP3    H270877   1.662   2.069   4.920 -0.0608  0.9279  0.0626
16488TIP3   OH270878   3.101   0.929   6.581 -0.3797 -0.6684  0.4756
16488TIP3    H170879   3.025   0.911   6.525 -0.4743  1.0737 -0.0144
16488TIP3    H270880   3.063   0.969   6.660  0.0659  1.5646 -0.3751
16489TIP3   OH270881   1.823   5.381  13.877 -0.0963  0.1911  0.0220
16489TIP3    H170882   1.908   5.352  13.843  0.0246 -1.0568  1.2656
16489TIP3    H270883   1.834   5.379  13.972 -1.3444  0.5867  0.1928
16490TIP3   OH270884   4.464   3.471  14.518  0.7329  0.1264  0.1891
16490TIP3    H170885   4.498   3.480  14.429  1.3225  2.7593  0.6042
16490TIP3    H270886   4.416   3.552  14.534 -0.3653 -0.7922  1.8966
16491TIP3   OH270887   2.716   6.116  13.878 -0.4023  0.3023  0.0530
16491TIP3    H170888   2.657   6.188  13.854  2.1180  3.2467  1.8614
16491TIP3    H270889   2.753   6.143  13.962  0.7460 -3.1858  0.8040
16492TIP3   OH270890   3.926   2.729   3.285 -0.3908  0.6304  0.1370
16492TIP3    H170891   3.977   2.784   3.224  2.2963 -1.8865 -0.1061
16492TIP3    H270892   3.983   2.718   3.361 -1.4407 -0.6401  0.7851
16493TIP3   OH270893   4.084   2.918   0.703  0.2714 -0.6058  0.1162
16493TIP3    H170894   4.040   2.836   0.679 -1.2161 -0.2896  1.5563
16493TIP3    H270895   4.122   2.900   0.789 -0.9322  0.4663  0.9096
16494TIP3   OH270896   0.112   3.277   4.757  0.6534 -0.9107 -0.2740
16494TIP3    H170897   0.073   3.190   4.759 -4.2295  0.9756  0.7404
16494TIP3    H270898   0.080   3.316   4.676 -0.0098  0.9290  0.8117
16495TIP3   OH270899   6.374   1.602   2.698 -0.5655 -0.0248  0.5261
16495TIP3    H170900   6.457   1.629   2.738 -1.4918  0.5000  2.2017
16495TIP3    H270901   6.320   1.681   2.699 -1.1367 -0.3833 -0.4346
16496TIP3   OH270902   4.731   5.081   4.046 -0.0571  1.0414  0.0482
16496TIP3    H170903   4.655   5.039   4.085 -0.6587  1.3823 -0.7125
16496TIP3    H270904   4.782   5.113   4.120  0.3271 -0.8358  0.6353
16497TIP3   OH270905   5.464   4.653  12.915 -0.4643  0.5451  0.7006
16497TIP3    H170906   5.479   4.577  12.971 -0.8783 -1.6628 -1.9927
16497TIP3    H270907   5.371   4.672  12.925 -0.7149 -0.3585  0.2102
16498TIP3   OH270908   0.385   5.823   1.391 -0.0964 -0.1165  0.2054
16498TIP3    H170909   0.316   5.886   1.412 -1.2999 -0.8580 -1.3014
16498TIP3    H270910   0.346   5.737   1.407  0.4610 -0.5558 -0.6828
16499TIP3   OH270911   4.019   3.514   5.572  0.2339 -0.1730  0.2744
16499TIP3    H170912   4.058   3.576   5.633  1.5086 -1.1661  0.4878
16499TIP3    H270913   3.931   3.499   5.607 -0.5054  2.2201 -0.3159
16500TIP3   OH270914   0.643   4.718  14.845  0.3113  0.1339  0.3213
16500TIP3    H170915   0.582   4.771  14.794 -0.8128 -0.2911  1.1847
16500TIP3    H270916   0.639   4.631  14.804  0.2291  0.0657  0.4751
16501TIP3   OH270917   5.719   4.984   5.187 -0.3897  0.1683  0.3568
16501TIP3    H170918   5.678   5.056   5.234 -0.6367  1.2177 -1.3932
16501TIP3    H270919   5.657   4.911   5.198 -1.3216  0.9077  0.1453
16502TIP3   OH270920   1.083   0.363  15.183 -0.4505  0.1007 -0.0494
16502TIP3    H170921   1.061   0.447  15.143 -1.8650 -0.1328  0.2042
16502TIP3    H270922   1.074   0.299  15.112 -0.6181 -0.0031  0.0656
16503TIP3   OH270923   3.713   1.474   5.482  0.4536  0.7363 -0.4637
16503TIP3    H170924   3.632   1.442   5.522  0.5489 -0.3199 -1.0527
16503TIP3    H270925   3.685   1.536   5.415 -0.0447 -1.0174 -1.9656
16504TIP3   OH270926   4.808   0.150   1.594  0.4322  0.4162  0.1744
16504TIP3    H170927   4.787   0.108   1.678 -0.9431  1.1199  0.2098
16504TIP3    H270928   4.846   0.080   1.541 -0.4262 -0.5112  0.7502
16505TIP3   OH270929   5.559   5.012  13.701 -0.3078 -1.0559 -0.4014
16505TIP3    H170930   5.634   5.004  13.643  0.2501  1.7390 -0.2068
16505TIP3    H270931   5.596   5.016  13.789 -0.5609  0.8267 -0.3359
16506TIP3   OH270932   0.322   3.879  15.633  0.6991 -0.5708  0.3604
16506TIP3    H170933   0.259   3.811  15.658  0.5279 -0.5102  0.0914
16506TIP3    H270934   0.277   3.930  15.565  0.5732  0.2107  1.0129
16507TIP3   OH270935   2.921   6.574   4.678  0.0649 -0.3063 -0.1218
16507TIP3    H170936   2.988   6.537   4.736  0.9812  0.4163 -0.6938
16507TIP3    H270937   2.965   6.647   4.634 -0.9980 -0.0416 -0.7804
16508TIP3   OH270938   3.678   2.065  16.049  0.4335  0.1438 -0.2437
16508TIP3    H170939   3.678   1.988  15.992 -1.3311  0.6258 -0.9838
16508TIP3    H270940   3.753   2.116  16.020  2.0648 -1.5660  0.7251
16509TIP3   OH270941   2.275   6.488   4.451 -0.3500  0.0684 -0.1564
16509TIP3    H170942   2.240   6.403   4.424 -0.2410 -0.6128  1.6838
16509TIP3    H270943   2.199   6.546   4.453 -0.5848 -0.2183 -0.5149
16510TIP3   OH270944   4.995   2.334   2.896  0.0169 -0.6940 -0.2352
16510TIP3    H170945   5.000   2.330   2.992 -0.7620 -0.9473 -0.1971
16510TIP3    H270946   5.083   2.314   2.867  0.6798  1.0351  0.4584
16511TIP3   OH270947   2.247   3.991   5.219 -0.2780  0.5318  0.6263
16511TIP3    H170948   2.253   3.907   5.264 -2.0662 -1.2216 -2.1151
16511TIP3    H270949   2.321   3.991   5.158 -2.2260 -0.8132 -1.8988
16512TIP3   OH270950   0.041   4.087   3.403  0.4616  0.1863  0.0547
16512TIP3    H170951   0.040   4.091   3.307 -0.8200 -2.8526 -0.1659
16512TIP3    H270952   0.117   4.033   3.423  1.2597  1.5499  0.8841
16513TIP3   OH270953   4.130   2.591   3.456  0.7471 -0.6820  0.1372
16513TIP3    H170954   4.176   2.531   3.398  0.2433  0.6535 -1.7456
16513TIP3    H270955   4.181   2.591   3.537  0.9718 -3.2817  0.0530
16514TIP3   OH270956   6.303   0.770  14.907 -0.2594  0.0507  0.1265
16514TIP3    H170957   6.321   0.863  14.898 -2.3979  0.5820  0.6832
16514TIP3    H270958   6.374   0.727  14.860  1.5289  1.8900  1.0124
16515TIP3   OH270959   4.461   4.995  12.807 -0.1049 -0.3497  0.6187
16515TIP3    H170960   4.462   5.089  12.789  0.2813  0.5016  4.3414
16515TIP3    H270961   4.521   4.958  12.742  1.4263  2.3119  0.3647
16516TIP3   OH270962   3.164   0.645   1.678 -0.2955 -0.3249 -0.0952
16516TIP3    H170963   3.208   0.700   1.614  1.9410 -0.0831  1.5345
16516TIP3    H270964   3.080   0.689   1.694  0.2611  1.0804 -0.8630
16517TIP3   OH270965   2.868   3.941   2.152  0.2207 -0.2017 -0.1714
16517TIP3    H170966   2.939   3.921   2.213 -0.2395  0.7544  0.7093
16517TIP3    H270967   2.851   3.858   2.107  0.5657 -0.9434  1.0155
16518TIP3   OH270968   3.919   1.623  11.718  0.3066 -0.2521  0.1999
16518TIP3    H170969   3.969   1.694  11.677  1.2269 -0.0020  1.6881
16518TIP3    H270970   3.931   1.636  11.812 -1.6234 -0.8894  0.5752
16519TIP3   OH270971   4.712   4.575   0.635  0.4496  0.2449 -0.0066
16519TIP3    H170972   4.715   4.633   0.559 -1.7181 -0.7308 -0.9230
16519TIP3    H270973   4.619   4.563   0.653  0.8620 -1.4862  1.3039
16520TIP3   OH270974   6.359   5.962   2.901 -0.5486  0.3095  0.2361
16520TIP3    H170975   6.291   6.013   2.945 -1.9775 -0.6327 -0.7913
16520TIP3    H270976   6.325   5.873   2.899  0.5974 -0.1321 -0.5386
16521TIP3   OH270977   5.190   3.148  12.232  0.0794 -0.2770  0.7063
16521TIP3    H170978   5.270   3.181  12.191 -0.1785  2.3460  2.0720
16521TIP3    H270979   5.208   3.149  12.326 -0.6852 -2.2603  0.9203
16522TIP3   OH270980   0.509   5.947  12.702 -0.4670 -0.2741 -0.3314
16522TIP3    H170981   0.498   6.010  12.631 -1.8038 -0.6360 -0.4832
16522TIP3    H270982   0.603   5.946  12.719 -0.4487  2.1156  0.0212
16523TIP3   OH270983   0.223   2.670   2.042 -0.2305  0.0588 -0.0645
16523TIP3    H170984   0.138   2.628   2.050 -0.1846  0.2541  1.8489
16523TIP3    H270985   0.263   2.660   2.128  2.5264 -1.7248 -1.4115
16524TIP3   OH270986   6.433   4.111  11.911 -0.2066 -0.3015  0.1882
16524TIP3    H170987   6.475   4.124  11.826 -0.5780  0.8067  0.1662
16524TIP3    H270988   6.467   4.026  11.941  0.3542 -0.4475 -0.8042
16525TIP3   OH270989   6.472   6.020  15.577  0.0915 -0.2503 -0.0108
16525TIP3    H170990   6.470   5.976  15.492 -1.3910  2.7301 -1.6946
16525TIP3    H270991   6.393   5.990  15.622  0.0060 -0.5967 -0.3884
16526TIP3   OH270992   2.904   6.558  12.867 -0.2523  0.5580 -0.2996
16526TIP3    H170993   2.819   6.531  12.831 -0.2266 -0.4492  0.3416
16526TIP3    H270994   2.944   6.477  12.897  1.3464  0.8939 -1.3862
16527TIP3   OH270995   0.747   5.824   0.738 -0.0237 -0.8379 -0.3639
16527TIP3    H170996   0.819   5.815   0.801 -0.0790  1.1953  0.0343
16527TIP3    H270997   0.724   5.917   0.739 -1.9471 -1.2430 -1.2990
16528TIP3   OH270998   0.127   1.999   1.962  0.3362  0.1531 -0.1185
16528TIP3    H170999   0.174   2.000   2.045  0.9128 -2.1532 -0.3307
16528TIP3    H271000   0.037   2.023   1.984  0.6144  0.1400  1.0762
16529TIP3   OH271001   3.414   6.472   1.928  0.8594  0.6273  0.2347
16529TIP3    H171002   3.495   6.475   1.978  0.6568  2.3549  0.5335
16529TIP3    H271003   3.440   6.441   1.841  1.9593  1.7281  0.1485
16530TIP3   OH271004   4.475   5.154  16.690 -0.3741  0.7217 -0.2140
16530TIP3    H171005   4.543   5.221  16.682  1.3581 -1.0035 -0.6727
16530TIP3    H271006   4.445   5.162  16.781  1.2258  0.8686  0.3488
16531TIP3   OH271007   4.108   4.826  14.636 -0.4167 -0.4598  0.6670
16531TIP3    H171008   4.035   4.765  14.643 -0.0531 -0.7887  2.0718
16531TIP3    H271009   4.186   4.771  14.638 -0.0684  0.0176  2.5310
16532TIP3   OH271010   4.584   6.072  12.685  0.1957  0.6550 -0.3398
16532TIP3    H171011   4.556   5.980  12.680  1.2391  0.3725 -1.6325
16532TIP3    H271012   4.613   6.083  12.776  0.5995 -0.4738 -0.3099
16533TIP3   OH271013   6.737   2.719   5.416 -0.1772 -0.1190 -0.4076
16533TIP3    H171014   6.799   2.753   5.481 -1.4421 -0.3098  0.9637
16533TIP3    H271015   6.771   2.749   5.332 -0.5121  3.5390  0.5751
16534TIP3   OH271016   2.142   0.106  14.740 -0.0149  0.3821 -0.4584
16534TIP3    H171017   2.135   0.094  14.645 -0.8519 -0.1059 -0.3502
16534TIP3    H271018   2.212   0.047  14.767  0.2615  0.5619 -0.7766
16535TIP3   OH271019   4.270   2.067   4.071 -0.1362 -0.0312 -0.6891
16535TIP3    H171020   4.200   2.060   4.006 -0.5816 -1.0521 -0.1119
16535TIP3    H271021   4.224   2.068   4.155  0.5763 -1.9594 -0.2347
16536TIP3   OH271022   4.723   3.905  15.285 -0.1426 -0.3405  0.0914
16536TIP3    H171023   4.662   3.920  15.214  0.3489  1.8211  0.0516
16536TIP3    H271024   4.784   3.839  15.251 -0.1935  0.3081 -1.3255
16537TIP3   OH271025   1.357   1.743  15.075 -0.5863  0.5799 -0.4117
16537TIP3    H171026   1.305   1.808  15.028  0.2771 -0.6510 -3.2258
16537TIP3    H271027   1.422   1.796  15.122  0.1705  1.8244 -2.7151
16538TIP3   OH271028   0.161   3.726   4.925 -0.3825  0.4882 -0.1639
16538TIP3    H171029   0.209   3.647   4.947 -0.7967  0.4424  0.6101
16538TIP3    H271030   0.229   3.790   4.904  0.0039  0.3015  0.4865
16539TIP3   OH271031   3.592   6.169  15.268  0.2828 -0.5315 -0.3190
16539TIP3    H171032   3.630   6.166  15.180  0.6405 -1.3958 -0.1429
16539TIP3    H271033   3.628   6.093  15.312 -1.6588 -1.4064 -0.1448
16540TIP3   OH271034   2.336   3.417  15.761 -0.1391 -0.3148 -0.0179
16540TIP3    H171035   2.314   3.330  15.794  2.1476 -1.0799 -0.3641
16540TIP3    H271036   2.295   3.421  15.674 -2.2477 -0.0699  0.9204
16541TIP3   OH271037   3.423   0.355  12.149  0.1352  0.1114 -0.0460
16541TIP3    H171038   3.472   0.431  12.118  0.1721 -0.1476 -0.6351
16541TIP3    H271039   3.344   0.353  12.094  0.7782 -1.0605 -0.9841
16542TIP3   OH271040   5.383   3.864  11.154  0.1093 -0.5267  0.2465
16542TIP3    H171041   5.324   3.809  11.103  0.3229  0.7093 -1.3885
16542TIP3    H271042   5.325   3.924  11.201 -0.0920 -1.7258  1.5886
16543TIP3   OH271043   4.695   6.162  10.814 -0.8411  0.5226  0.7851
16543TIP3    H171044   4.703   6.197  10.725 -0.2501 -0.4609  0.4282
16543TIP3    H271045   4.700   6.067  10.802  0.1606  0.4141  1.9628
16544TIP3   OH271046   5.337   2.243  13.912  0.4641 -0.2220 -0.0115
16544TIP3    H171047   5.373   2.187  13.843  0.9875 -0.0427  0.1143
16544TIP3    H271048   5.409   2.301  13.936  0.1781 -0.0500  0.4445
16545TIP3   OH271049   4.608   2.715  13.308 -0.2696  0.3156 -0.3748
16545TIP3    H171050   4.522   2.732  13.345 -0.0933 -0.8765  0.6490
16545TIP3    H271051   4.599   2.630  13.265  0.6960 -0.4567  0.8663
16546TIP3   OH271052   4.367   2.290   5.839 -0.6822 -0.0993 -0.0525
16546TIP3    H171053   4.351   2.222   5.904 -2.7338  1.5038  1.2237
16546TIP3    H271054   4.383   2.370   5.889 -2.3862  1.2126 -1.4248
16547TIP3   OH271055   5.092   5.741  15.281  0.7784  0.4200  0.1616
16547TIP3    H171056   5.032   5.755  15.208  1.8356  1.2544 -0.5763
16547TIP3    H271057   5.164   5.802  15.265  1.6837 -0.3404  1.1749
16548TIP3   OH271058   3.416   2.261   2.549  0.1510 -0.3635 -0.5214
16548TIP3    H171059   3.375   2.181   2.516 -1.5261  0.9383 -1.7936
16548TIP3    H271060   3.344   2.324   2.556  1.4170  1.0703  0.3878
16549TIP3   OH271061   2.098   1.799   2.120  0.2415  0.1611  0.1454
16549TIP3    H171062   2.012   1.803   2.162  1.2088  1.7045  2.1055
16549TIP3    H271063   2.100   1.712   2.078 -2.1245 -0.0191  0.2975
16550TIP3   OH271064   3.468   6.629   1.269  0.3042 -0.2380  0.4312
16550TIP3    H171065   3.377   6.651   1.290 -0.0043  1.0043 -1.8835
16550TIP3    H271066   3.507   6.713   1.243  1.0108 -1.2928 -2.2085
16551TIP3   OH271067   3.636   4.511  14.878 -0.2966 -0.0569 -0.3481
16551TIP3    H171068   3.666   4.601  14.870  0.5572 -0.3667 -0.7150
16551TIP3    H271069   3.600   4.505  14.967  0.2188  0.4762 -0.0976
16552TIP3   OH271070   1.852   5.991  12.479 -0.2583 -0.2756 -0.3533
16552TIP3    H171071   1.795   5.938  12.534 -1.0902  0.0533 -0.8813
16552TIP3    H271072   1.937   5.988  12.523 -1.1056  0.7547  1.4542
16553TIP3   OH271073   4.603   5.038  14.203  0.2943 -0.0776  0.4219
16553TIP3    H171074   4.653   5.044  14.285  0.9675  1.1775 -0.0448
16553TIP3    H271075   4.540   5.110  14.208  0.3542  0.0205 -0.1602
16554TIP3   OH271076   3.285   2.495  14.182 -0.1742  0.0941  0.3133
16554TIP3    H171077   3.220   2.541  14.234 -1.3881  0.7220 -1.6431
16554TIP3    H271078   3.357   2.557  14.173 -0.7782  0.7267 -0.3004
16555TIP3   OH271079   6.671   4.928  15.045 -0.0465 -0.1305 -0.4656
16555TIP3    H171080   6.575   4.922  15.048 -0.0078 -0.4700  0.3086
16555TIP3    H271081   6.688   4.997  14.981 -0.8120  0.0604 -0.4782
16556TIP3   OH271082   0.375   3.561   4.913 -0.1463  0.3217 -0.0078
16556TIP3    H171083   0.436   3.634   4.918  0.1162  0.0329  1.2814
16556TIP3    H271084   0.380   3.532   4.822  0.5776  1.1992 -0.2602
16557TIP3   OH271085   0.460   1.887  12.315  0.0141 -0.3629 -0.7087
16557TIP3    H171086   0.540   1.837  12.334  0.8290  1.3175  0.5143
16557TIP3    H271087   0.491   1.971  12.283 -1.2059  0.7591  0.8956
16558TIP3   OH271088   3.386   1.475   4.324 -0.3674 -0.2009  0.2613
16558TIP3    H171089   3.338   1.392   4.332  1.2100 -1.3444 -1.3280
16558TIP3    H271090   3.363   1.507   4.237 -1.0812  1.1800  0.9154
16559TIP3   OH271091   4.286   2.987   3.368  0.4228 -0.0919 -0.0958
16559TIP3    H171092   4.372   2.961   3.401 -0.5813 -0.4540  2.3812
16559TIP3    H271093   4.263   2.920   3.304  2.3841  0.5928 -1.6395
16560TIP3   OH271094   1.021   2.014  12.578  0.0673 -1.1190 -0.5142
16560TIP3    H171095   1.019   2.005  12.673 -0.9875  0.2942 -0.3758
16560TIP3    H271096   1.068   2.096  12.563  1.9801 -2.2907 -1.3316
16561TIP3   OH271097   6.649   1.466  15.927  0.0425  0.1422 -0.0842
16561TIP3    H171098   6.643   1.458  15.831 -1.2198  1.0865 -0.1089
16561TIP3    H271099   6.634   1.377  15.959 -1.3216  0.1090 -0.7332
16562TIP3   OH271100   6.437   1.225   2.174  0.3441  0.3331  0.3858
16562TIP3    H171101   6.413   1.146   2.124 -0.5431  1.0220 -0.3126
16562TIP3    H271102   6.528   1.209   2.201  0.8727 -0.0718 -1.4729
16563TIP3   OH271103   5.279   4.237  13.224 -0.3805 -0.4014 -0.4369
16563TIP3    H171104   5.211   4.242  13.156 -0.1654  0.4643 -0.5974
16563TIP3    H271105   5.230   4.236  13.306 -0.5961  1.5837 -0.4884
16564TIP3   OH271106   3.002   6.320  13.007 -0.1976 -0.2053 -0.0800
16564TIP3    H171107   3.000   6.227  13.032  2.3749 -0.5859 -0.9540
16564TIP3    H271108   3.023   6.367  13.087  0.2458 -0.5776  0.0242
16565TIP3   OH271109   0.351   1.701  15.586 -0.0640 -0.2494 -0.1330
16565TIP3    H171110   0.360   1.726  15.678 -1.7252 -0.2761  0.0715
16565TIP3    H271111   0.292   1.767  15.549 -1.1811 -1.4560 -0.6043
16566TIP3   OH271112   5.219   5.806   5.321  0.7182 -0.0637 -0.2350
16566TIP3    H171113   5.254   5.802   5.232  0.7975  2.3557 -0.3774
16566TIP3    H271114   5.144   5.866   5.315 -0.5913 -1.4756  0.9708
16567TIP3   OH271115   1.241   5.806  13.871 -0.1872 -0.1188  0.4837
16567TIP3    H171116   1.298   5.801  13.795 -0.8132  0.9514 -0.0735
16567TIP3    H271117   1.154   5.782  13.838 -0.5074  0.5855  0.7981
16568TIP3   OH271118   1.174   0.820   4.143 -0.2309  0.1063 -0.1892
16568TIP3    H171119   1.103   0.801   4.081 -0.9644  0.3786  0.5576
16568TIP3    H271120   1.205   0.907   4.117 -1.7381  1.0201  0.9017
16569TIP3   OH271121   4.363   4.010  16.518  0.6609  0.0147  0.3494
16569TIP3    H171122   4.455   3.982  16.517  0.4579 -0.6777  0.9926
16569TIP3    H271123   4.366   4.098  16.556  1.2789  0.8641 -1.5296
16570TIP3   OH271124   2.191   0.728  16.374  0.4555 -0.1038 -0.5556
16570TIP3    H171125   2.167   0.636  16.363 -1.7980  0.0968  1.7884
16570TIP3    H271126   2.119   0.777  16.335 -0.8271  0.5497  2.3621
16571TIP3   OH271127   3.930   4.790   5.738  0.3641 -0.2581  0.7244
16571TIP3    H171128   3.901   4.733   5.667 -0.5007  1.2025 -0.1467
16571TIP3    H271129   3.867   4.862   5.739  1.1250  0.4460  2.1076
16572TIP3   OH271130   5.657   5.069  15.417  0.4817  0.4008 -0.3068
16572TIP3    H171131   5.648   5.089  15.510  0.1886 -0.4025 -0.1511
16572TIP3    H271132   5.671   5.154  15.375  2.2099  0.6453  0.6453
16573TIP3   OH271133   0.311   6.331  16.072  0.4823 -0.2753 -0.1610
16573TIP3    H171134   0.386   6.310  16.128 -0.2705 -1.4308  0.4694
16573TIP3    H271135   0.276   6.245  16.045 -0.8259  0.2180 -0.1275
16574TIP3   OH271136   2.265   6.166  13.078 -0.4303 -0.2255 -0.1124
16574TIP3    H171137   2.231   6.243  13.124  0.8297  0.6721 -0.6321
16574TIP3    H271138   2.246   6.093  13.136  0.4337  0.7851  1.5184
16575TIP3   OH271139   6.319   3.288   3.672 -0.3947  0.6791  0.1137
16575TIP3    H171140   6.247   3.225   3.674  0.5648 -0.4341  0.0925
16575TIP3    H271141   6.275   3.373   3.675 -1.7836  0.0674 -1.1831
16576TIP3   OH271142   2.722   2.050   6.364  0.0919  0.7390 -0.1670
16576TIP3    H171143   2.627   2.041   6.370 -0.0186  1.1495 -1.1544
16576TIP3    H271144   2.756   1.988   6.429 -0.8446  0.6202  0.2239
16577TIP3   OH271145   3.914   4.215  13.697  0.6978 -0.1890  0.7353
16577TIP3    H171146   3.825   4.246  13.715  0.4317 -1.0319  0.9235
16577TIP3    H271147   3.966   4.295  13.689 -0.8278  0.6958 -3.9198
16578TIP3   OH271148   3.338   0.948   5.212 -0.4371 -0.3748  0.1593
16578TIP3    H171149   3.269   1.014   5.204  0.6428  0.8515  0.4912
16578TIP3    H271150   3.402   0.973   5.145  1.4718  0.8376  2.3072
16579TIP3   OH271151   0.129   5.645   6.112  0.6231  0.0634  0.6502
16579TIP3    H171152   0.060   5.579   6.117  1.1773 -0.8523 -2.0923
16579TIP3    H271153   0.207   5.600   6.143  0.4025  0.4768  1.8471
16580TIP3   OH271154   4.623   3.906   6.087 -0.8001  0.4129 -0.0343
16580TIP3    H171155   4.552   3.950   6.040 -1.7428 -0.9519  0.0692
16580TIP3    H271156   4.702   3.951   6.059 -1.3643 -0.1214 -2.6919
16581TIP3   OH271157   3.941   2.802   4.562  0.1460 -0.3137 -0.1327
16581TIP3    H171158   3.857   2.779   4.602 -0.5644  1.9756 -0.1327
16581TIP3    H271159   3.924   2.801   4.468 -0.2015  1.0013 -0.1163
16582TIP3   OH271160   5.603   0.735   5.458 -0.0460  0.1311  0.0059
16582TIP3    H171161   5.588   0.828   5.443 -0.5789  0.0874  0.2777
16582TIP3    H271162   5.585   0.694   5.373 -3.1288 -0.1239  0.6729
16583TIP3   OH271163   1.590   2.153  12.258 -0.5219  0.5161  0.3371
16583TIP3    H171164   1.549   2.227  12.213 -0.5983 -0.0633 -0.5682
16583TIP3    H271165   1.575   2.078  12.200  0.7298  0.0451  0.5747
16584TIP3   OH271166   1.473   2.128  11.597 -0.4699  0.1053  0.9062
16584TIP3    H171167   1.458   2.034  11.607  1.9552 -0.3004  1.4052
16584TIP3    H271168   1.427   2.152  11.518  0.2379 -1.8913 -0.1789
16585TIP3   OH271169   5.145   2.261  16.627 -0.3582 -0.1216 -0.3803
16585TIP3    H171170   5.083   2.297  16.563 -0.0560 -0.2591 -0.7552
16585TIP3    H271171   5.158   2.332  16.689  1.1314  0.8872 -1.7551
16586TIP3   OH271172   6.792   5.121  14.227 -0.1451  0.1136 -0.6546
16586TIP3    H171173   6.734   5.198  14.226  0.7115  0.7830 -0.4154
16586TIP3    H271174   6.880   5.158  14.233  0.3098 -0.8885 -0.9691
16587TIP3   OH271175   1.583   3.935   4.714  0.8251  0.1317 -0.0965
16587TIP3    H171176   1.617   4.011   4.762 -2.1846  0.9574  0.9684
16587TIP3    H271177   1.507   3.908   4.764  1.4757 -3.3581 -0.7383
16588TIP3   OH271178   6.642   5.139   3.902  0.6492 -0.2718  0.2232
16588TIP3    H171179   6.710   5.074   3.886  0.0982 -0.9586  0.6112
16588TIP3    H271180   6.598   5.109   3.982 -1.0002 -0.6140 -0.7682
16589TIP3   OH271181   4.932   0.029  16.366  0.1679  0.2323 -0.0762
16589TIP3    H171182   5.000  -0.012  16.313  1.1358  0.9197  0.6033
16589TIP3    H271183   4.850  -0.008  16.332  0.9414 -1.9210  0.2200
16590TIP3   OH271184   1.297   4.984   1.747  0.6406 -0.7949  0.0359
16590TIP3    H171185   1.349   4.973   1.826 -0.2274 -1.1100  0.5796
16590TIP3    H271186   1.259   4.897   1.731  0.0586 -0.5055 -0.1859
16591TIP3   OH271187   2.955   2.501   1.663  0.3996 -0.1923 -0.7561
16591TIP3    H171188   2.981   2.477   1.751 -0.3615 -0.3003 -0.5557
16591TIP3    H271189   2.869   2.542   1.673  0.1678 -0.4848 -1.4792
16592TIP3   OH271190   5.476   6.623  11.875 -0.4910  0.6239  0.2222
16592TIP3    H171191   5.427   6.555  11.829  0.1528  1.0919 -1.2215
16592TIP3    H271192   5.520   6.577  11.947 -0.1907 -0.4697 -0.6278
16593TIP3   OH271193   2.027   5.263   5.805  0.2070 -0.3432  0.1822
16593TIP3    H171194   2.048   5.268   5.712  1.4446  0.0446  0.4676
16593TIP3    H271195   2.101   5.216   5.844  0.5558  0.9930  1.2111
16594TIP3   OH271196   1.136   6.505   2.772 -0.2639  0.5863 -0.3861
16594TIP3    H171197   1.140   6.464   2.858  2.3216  1.0774 -0.2031
16594TIP3    H271198   1.166   6.594   2.786  1.1431  0.3996 -1.9342
16595TIP3   OH271199   0.494   0.599   5.527  0.2772 -0.1522 -0.2046
16595TIP3    H171200   0.498   0.686   5.485  2.2306 -0.9747 -1.9251
16595TIP3    H271201   0.545   0.543   5.468 -1.7608 -2.7134  0.3267
16596TIP3   OH271202   6.500   3.688   3.292  0.5047  0.0136 -0.2892
16596TIP3    H171203   6.484   3.684   3.386 -0.5131 -1.2822 -0.4847
16596TIP3    H271204   6.585   3.647   3.280  0.8114  0.5285  0.0931
16597TIP3   OH271205   1.879   4.585   4.775  0.2748  0.3561 -0.2259
16597TIP3    H171206   1.833   4.605   4.694 -0.3850 -2.1343 -0.5648
16597TIP3    H271207   1.958   4.540   4.748 -0.1817 -0.9319  0.4661
16598TIP3   OH271208   2.470   1.933  16.971  0.4954  0.1980 -0.2931
16598TIP3    H171209   2.397   1.986  17.003  0.7470  0.3730 -0.0022
16598TIP3    H271210   2.499   1.884  17.049  0.8886  0.3616 -0.3365
16599TIP3   OH271211   4.688   0.951  15.949 -0.5193 -0.0151  0.3310
16599TIP3    H171212   4.609   1.004  15.958 -0.9017 -0.4829 -0.1691
16599TIP3    H271213   4.699   0.940  15.855 -0.4390 -0.8097  0.4267
16600TIP3   OH271214   6.395   6.251  16.861  0.2687  0.2544 -0.7956
16600TIP3    H171215   6.456   6.238  16.788  0.4538  0.9658 -0.7696
16600TIP3    H271216   6.313   6.279  16.819  0.2537  0.2638 -0.7591
16601TIP3   OH271217   4.151   5.695  15.757 -0.0781  0.0492  1.1633
16601TIP3    H171218   4.239   5.705  15.792  0.4369 -0.3863  0.0284
16601TIP3    H271219   4.163   5.689  15.662 -1.5707  3.3785  0.5998
16602TIP3   OH271220   0.787   6.250   2.165 -0.4141  0.2125  0.3172
16602TIP3    H171221   0.783   6.336   2.208 -0.8395  0.5336 -0.3359
16602TIP3    H271222   0.865   6.256   2.110  0.2181 -0.2543  1.1442
16603TIP3   OH271223   3.615   2.524  14.366 -0.1830  0.3258 -0.3427
16603TIP3    H171224   3.665   2.556  14.441 -0.0630 -0.6282 -0.0085
16603TIP3    H271225   3.673   2.461  14.324 -0.5545  0.2767 -0.7835
16604TIP3   OH271226   5.490   4.077  15.193 -0.3674  0.0783 -0.5932
16604TIP3    H171227   5.439   3.996  15.181  0.0859 -0.2885 -0.0817
16604TIP3    H271228   5.576   4.047  15.223  0.0847  0.7062 -1.2358
16605TIP3   OH271229   1.952   5.228   6.113  0.0625  0.3656  0.3792
16605TIP3    H171230   1.861   5.238   6.083 -0.0613 -1.4351  0.0335
16605TIP3    H271231   2.000   5.203   6.034  0.9113  1.4588  0.5329
16606TIP3   OH271232   0.742   6.132   2.986  0.4757 -0.1402  0.4206
16606TIP3    H171233   0.649   6.133   3.008  0.5480 -0.3660  0.7497
16606TIP3    H271234   0.777   6.056   3.034  0.7988 -0.1439  0.1813
16607TIP3   OH271235   4.064   2.003  15.150  0.2977  0.0465  0.2774
16607TIP3    H171236   4.115   2.084  15.147  1.2656 -0.5361  0.5994
16607TIP3    H271237   4.061   1.980  15.243 -0.7189  0.1628  0.2833
16608TIP3   OH271238   5.525   4.408  13.916  0.3299  0.0607 -0.5444
16608TIP3    H171239   5.450   4.467  13.909  1.5019  1.4540 -2.0813
16608TIP3    H271240   5.501   4.333  13.861  0.2170  0.7237 -1.4370
16609TIP3   OH271241   5.600   5.694  13.986 -0.4644  0.0452 -0.0462
16609TIP3    H171242   5.670   5.745  13.947 -0.0858  1.1367  1.9066
16609TIP3    H271243   5.528   5.756  13.997 -1.5152 -0.8810 -1.3471
16610TIP3   OH271244   1.327   2.454  11.329 -0.0468 -0.1723  0.3618
16610TIP3    H171245   1.341   2.372  11.374  1.1388  0.0298  0.3771
16610TIP3    H271246   1.376   2.446  11.247 -1.2265 -0.0909 -0.3839
16611TIP3   OH271247   1.733   2.657  14.944  0.5735 -0.2321 -0.4160
16611TIP3    H171248   1.660   2.645  14.884 -0.2970 -0.0397  0.5804
16611TIP3    H271249   1.753   2.750  14.938 -0.3369  0.0342  0.5064
16612TIP3   OH271250   0.279   4.102   4.194  0.0226 -0.5418 -0.1158
16612TIP3    H171251   0.220   4.153   4.139 -0.8723 -2.4875 -1.0496
16612TIP3    H271252   0.367   4.119   4.158 -0.0916  1.2448  0.3785
16613TIP3   OH271253   0.655   5.983  13.504  0.1675  0.5098 -0.0786
16613TIP3    H171254   0.693   6.040  13.571  1.0058 -0.6352  0.4463
16613TIP3    H271255   0.570   6.022  13.485  0.2729  1.3286  1.0477
16614TIP3   OH271256   2.426   4.179  16.583  0.2341  0.2767  0.0094
16614TIP3    H171257   2.441   4.212  16.671  2.8153 -1.1430  0.1904
16614TIP3    H271258   2.443   4.085  16.589 -0.4692 -0.0147 -1.8330
16615TIP3   OH271259   5.274   5.630  13.919  0.4908 -0.3282  0.1446
16615TIP3    H171260   5.214   5.690  13.963  1.0497 -0.3226  0.9165
16615TIP3    H271261   5.217   5.571  13.869 -0.1627 -0.4137  0.9827
16616TIP3   OH271262   2.500   6.475   3.181  0.0084 -0.2378  0.6515
16616TIP3    H171263   2.594   6.489   3.169 -0.1735  1.3885  0.8407
16616TIP3    H271264   2.475   6.416   3.110  0.8297  0.9017 -0.6364
16617TIP3   OH271265   5.940   3.732  12.494 -0.0156 -0.4178  0.0024
16617TIP3    H171266   6.021   3.751  12.447 -0.4731  2.0570  0.0658
16617TIP3    H271267   5.871   3.762  12.435 -0.9678 -2.6189 -0.1202
16618TIP3   OH271268   4.993   5.581   1.621  0.8557 -0.6924 -0.2940
16618TIP3    H171269   5.071   5.545   1.579  1.5168  1.4934 -1.0620
16618TIP3    H271270   5.026   5.626   1.699  0.3330 -0.0664 -0.4253
16619TIP3   OH271271   1.396   6.182  14.830  0.0703  0.0349  0.3101
16619TIP3    H171272   1.476   6.212  14.786 -0.7156  1.0167 -0.5113
16619TIP3    H271273   1.411   6.089  14.846  1.1055  0.0458 -0.4475
16620TIP3   OH271274   4.987   2.443   0.553  0.3031 -0.4172  0.3505
16620TIP3    H171275   4.941   2.520   0.520  0.5226 -0.8462 -1.0056
16620TIP3    H271276   5.060   2.431   0.493  0.6080 -1.3513  0.8858
16621TIP3   OH271277   5.646   4.778  16.296  0.0821 -0.1438 -0.0899
16621TIP3    H171278   5.563   4.748  16.260 -0.7525 -0.2926  1.8544
16621TIP3    H271279   5.711   4.720  16.256 -0.7707 -0.3099 -1.3078
16622TIP3   OH271280   5.618   1.078  11.831  0.2184 -0.1784  0.4522
16622TIP3    H171281   5.651   1.079  11.741 -2.9198  2.5242 -0.8621
16622TIP3    H271282   5.668   1.148  11.875 -2.0022  2.5158 -0.9679
16623TIP3   OH271283   1.421   0.159  12.883  0.0424 -0.2379 -0.2825
16623TIP3    H171284   1.480   0.176  12.810  1.2491  0.6125  0.8453
16623TIP3    H271285   1.444   0.225  12.949 -1.3948 -0.6171  0.6499
16624TIP3   OH271286   4.964   5.247  14.649 -0.3489 -0.1561  0.2592
16624TIP3    H171287   5.029   5.187  14.614 -0.1595  0.0446  0.2635
16624TIP3    H271288   4.914   5.276  14.573  0.0848  0.3065  0.1460
16625TIP3   OH271289   4.162   4.451  13.638 -0.0231  0.3389 -0.3067
16625TIP3    H171290   4.106   4.528  13.624 -0.0596  0.4920  0.6366
16625TIP3    H271291   4.166   4.441  13.733  0.5031 -0.4508 -0.4043
16626TIP3   OH271292   6.631   5.431  17.070 -0.0906 -0.0614  0.2671
16626TIP3    H171293   6.723   5.455  17.085  0.1009  0.5697 -1.5745
16626TIP3    H271294   6.633   5.336  17.057  0.5624  0.1110 -1.1323
16627TIP3   OH271295   0.927   2.365  11.199 -0.0843  0.1159  0.2238
16627TIP3    H171296   0.836   2.356  11.169  0.2097 -0.3666 -0.5464
16627TIP3    H271297   0.979   2.328  11.128  0.7011  0.0649  0.8183
16628TIP3   OH271298   3.800   2.641  14.694  0.3999  0.6133  0.3826
16628TIP3    H171299   3.856   2.619  14.620  0.1119  0.8159  0.1017
16628TIP3    H271300   3.822   2.577  14.761 -0.1157 -0.2786 -0.2753
16629TIP3   OH271301   3.209   3.685  12.922  0.0304 -0.4616 -0.2273
16629TIP3    H171302   3.178   3.742  12.992 -1.6626 -1.3278 -0.2109
16629TIP3    H271303   3.158   3.604  12.933 -0.1854 -0.6676 -2.3743
16630TIP3   OH271304   1.475   2.932   0.126 -0.0421  0.7990  0.5178
16630TIP3    H171305   1.401   2.979   0.086 -0.6583  0.7815  1.5776
16630TIP3    H271306   1.435   2.882   0.197  1.1517  1.8706  2.0125
16631TIP3   OH271307   3.719   4.291  14.043 -0.0901  0.4674 -0.7293
16631TIP3    H171308   3.779   4.259  14.111 -0.8548 -0.8860 -0.6544
16631TIP3    H271309   3.647   4.332  14.092 -1.1250 -1.3546 -0.6093
16632TIP3   OH271310   3.112   6.368  13.274  0.1254 -0.0506  0.1091
16632TIP3    H171311   3.205   6.353  13.293  0.5888  3.2464  1.0101
16632TIP3    H271312   3.066   6.310  13.336  1.5124 -1.6174 -0.2358
16633TIP3   OH271313   0.635   5.634  13.544  0.1526  0.3284  0.2602
16633TIP3    H171314   0.578   5.558  13.555  0.4066  0.1436  0.3125
16633TIP3    H271315   0.668   5.627  13.455 -1.0585  1.2407 -0.2880
16634TIP3   OH271316   6.374   4.470   0.934  0.1505 -0.1821 -0.0390
16634TIP3    H171317   6.376   4.564   0.951  1.2609 -0.0133 -0.9773
16634TIP3    H271318   6.292   4.455   0.888 -0.7176  0.0700  1.3575
16635TIP3   OH271319   1.923   5.030  12.971 -0.4186  0.0497  0.0556
16635TIP3    H171320   1.926   4.958  13.034 -0.8735 -1.1121 -1.1784
16635TIP3    H271321   1.833   5.062  12.975 -1.7387 -2.7498 -2.7724
16636TIP3   OH271322   2.231   0.830  11.884 -0.0160  0.4764  0.2432
16636TIP3    H171323   2.202   0.914  11.919 -1.8114  0.4908 -1.1368
16636TIP3    H271324   2.193   0.826  11.796  0.1560 -1.7120  0.2080
16637TIP3   OH271325   6.275   0.910   1.165 -0.1424  0.2625  0.3483
16637TIP3    H171326   6.313   0.986   1.120  1.5313 -0.3550  0.6720
16637TIP3    H271327   6.213   0.874   1.102  1.1377  0.2249 -0.9445
16638TIP3   OH271328   2.773   0.729  13.572  0.0130  0.2889  0.0346
16638TIP3    H171329   2.751   0.646  13.531 -0.1791 -0.4262  1.5044
16638TIP3    H271330   2.702   0.788  13.548  0.0661 -0.0077 -0.8786
16639TIP3   OH271331   0.391   0.304  15.661 -0.5148 -0.4032 -0.5773
16639TIP3    H171332   0.403   0.364  15.735  1.8984  0.8281 -1.8210
16639TIP3    H271333   0.301   0.319  15.633 -0.6973  0.9696  0.5900
16640TIP3   OH271334   1.853   1.355  16.638  0.6725 -0.1325  0.0808
16640TIP3    H171335   1.792   1.426  16.615  0.1405 -0.5849  0.0817
16640TIP3    H271336   1.805   1.275  16.618  0.5208 -0.5492  1.9229
16641TIP3   OH271337   6.590   5.217   5.168  0.2950  0.6933 -0.1105
16641TIP3    H171338   6.591   5.283   5.237  2.0949  0.5298  0.0734
16641TIP3    H271339   6.637   5.258   5.095  0.5189 -0.0110 -0.3691
16642TIP3   OH271340   2.124   4.599  16.252 -0.2668 -0.4387 -0.4915
16642TIP3    H171341   2.070   4.551  16.190 -2.4722  0.8923  0.2673
16642TIP3    H271342   2.162   4.531  16.308 -1.6525 -1.4378 -0.7026
16643TIP3   OH271343   2.293   5.849   0.470 -0.0550  0.7859 -0.0753
16643TIP3    H171344   2.215   5.804   0.438 -0.3789  0.3981  1.2196
16643TIP3    H271345   2.355   5.845   0.397 -0.5892 -0.5006 -0.4827
16644TIP3   OH271346   0.883   3.988  11.002  0.1369 -0.1921  0.1798
16644TIP3    H171347   0.808   3.934  10.977 -0.0917  0.5226 -0.7207
16644TIP3    H271348   0.950   3.970  10.936  0.1302  0.4780 -0.0152
16645TIP3   OH271349   4.805   4.140  11.155  0.0565 -0.2655  0.3660
16645TIP3    H171350   4.791   4.046  11.171  1.4678 -0.2627  1.8102
16645TIP3    H271351   4.796   4.180  11.242 -1.8893  1.1722 -0.4141
16646TIP3   OH271352   3.982   3.348   5.034  0.0102 -0.0666 -0.1727
16646TIP3    H171353   3.972   3.313   5.122 -0.8938  2.4538  0.8099
16646TIP3    H271354   4.034   3.428   5.045 -0.3128  0.4305 -1.8819
16647TIP3   OH271355   2.306   3.357   2.075  0.7715 -0.2233  0.1277
16647TIP3    H171356   2.395   3.390   2.062  0.6187 -0.0826 -0.5913
16647TIP3    H271357   2.317   3.282   2.133  1.3794 -0.2907 -0.0630
16648TIP3   OH271358   0.416   0.068  10.636 -0.0624  0.0963  0.8371
16648TIP3    H171359   0.439   0.069  10.729  2.2277 -0.9309  0.3518
16648TIP3    H271360   0.409   0.160  10.612  1.3932  0.4446  1.5996
16649TIP3   OH271361   2.115   6.372  13.231  0.0428  0.5889 -0.4252
16649TIP3    H171362   2.123   6.431  13.305 -2.6995 -0.3176  0.6860
16649TIP3    H271363   2.027   6.386  13.197  0.0834 -1.3217 -1.4806
16650TIP3   OH271364   3.668   2.317   5.661  0.1895  0.2988  0.0708
16650TIP3    H171365   3.628   2.371   5.593 -0.7944 -1.6095 -0.9447
16650TIP3    H271366   3.759   2.344   5.662  0.1048  0.7769 -1.6287
16651TIP3   OH271367   3.994   2.615  16.603  0.0756  0.3282  0.0630
16651TIP3    H171368   4.048   2.593  16.679  1.8359  0.4274 -1.0974
16651TIP3    H271369   3.986   2.533  16.555 -1.2564  0.2069  0.4548
16652TIP3   OH271370   0.686   3.630  15.334 -0.5451  0.1646 -0.4399
16652TIP3    H171371   0.723   3.712  15.365  1.3720 -0.0221 -2.0541
16652TIP3    H271372   0.593   3.649  15.320 -0.5266  1.4821  1.0101
16653TIP3   OH271373   0.334   3.507   1.759  0.4329  0.1951 -0.3128
16653TIP3    H171374   0.423   3.503   1.727  0.6807  0.4435  0.3185
16653TIP3    H271375   0.336   3.458   1.841 -0.1907 -0.4694 -0.6845
16654TIP3   OH271376   1.566   0.214   1.513 -0.6277  0.0483 -0.2632
16654TIP3    H171377   1.580   0.270   1.589 -2.4033 -0.5440  0.5584
16654TIP3    H271378   1.491   0.253   1.468  0.1226  0.1334 -1.4835
16655TIP3   OH271379   3.226   0.729  16.397  0.3720  0.1136 -0.5149
16655TIP3    H171380   3.258   0.652  16.444 -2.0059 -0.4136  0.3871
16655TIP3    H271381   3.147   0.754  16.444 -0.6291  1.2256 -2.6641
16656TIP3   OH271382   1.035   5.792   4.484 -0.3323  0.0737  0.1256
16656TIP3    H171383   1.121   5.817   4.517 -0.8782  0.4838  1.2678
16656TIP3    H271384   1.054   5.753   4.398  0.7994  1.9856 -0.5633
16657TIP3   OH271385   6.565   4.794   4.559 -0.2321  0.0974 -0.1038
16657TIP3    H171386   6.505   4.783   4.485 -1.8053  3.6435  0.4624
16657TIP3    H271387   6.642   4.838   4.522 -0.2517  0.2874  0.0794
16658TIP3   OH271388   5.178   1.333   0.019 -0.3353  0.1815  0.0720
16658TIP3    H171389   5.185   1.427   0.004 -0.7232  0.3919  1.1134
16658TIP3    H271390   5.084   1.316   0.022 -0.2839 -0.5061 -1.5879
16659TIP3   OH271391   6.517   0.041  12.824 -0.6334 -0.0141  0.5855
16659TIP3    H171392   6.603   0.083  12.823 -0.1594 -0.9544 -0.0219
16659TIP3    H271393   6.527  -0.032  12.885 -0.5916 -0.8880 -0.4208
16660TIP3   OH271394   3.392   0.288   1.903  0.1923 -0.4199  0.2845
16660TIP3    H171395   3.326   0.224   1.930 -1.2819 -0.1145 -2.3081
16660TIP3    H271396   3.468   0.235   1.878 -0.7790 -1.1757 -1.2092
16661TIP3   OH271397   6.507   2.657  14.252  0.0210  0.1252  0.4935
16661TIP3    H171398   6.597   2.629  14.265 -0.3606 -1.5057 -0.1023
16661TIP3    H271399   6.462   2.579  14.218 -1.2878  1.2998 -0.5948
16662TIP3   OH271400   2.262   3.785  11.543 -0.4636  0.1275  0.1183
16662TIP3    H171401   2.342   3.809  11.589  0.0164 -1.3557  0.1034
16662TIP3    H271402   2.291   3.732  11.469 -1.4514 -0.5263  0.1773
16663TIP3   OH271403   4.619   2.567  12.076  0.2120 -0.4662  0.1069
16663TIP3    H171404   4.670   2.510  12.019 -2.1391 -2.5942 -0.0372
16663TIP3    H271405   4.574   2.507  12.135  0.0529  1.4935  2.0947
16664TIP3   OH271406   3.631   2.318   5.351  0.2021  0.6534  0.1723
16664TIP3    H171407   3.715   2.284   5.320 -0.5597 -0.6740 -0.5342
16664TIP3    H271408   3.645   2.413   5.358  1.2098  0.6996 -1.7434
16665TIP3   OH271409   5.282   2.655   6.129  0.5122  0.0499 -0.2238
16665TIP3    H171410   5.241   2.622   6.208  0.3880  0.7254  0.0026
16665TIP3    H271411   5.238   2.610   6.057 -1.3766  1.4796 -0.0440
16666TIP3   OH271412   6.164   0.798   2.789 -0.3786  0.2142  0.2318
16666TIP3    H171413   6.154   0.721   2.845  2.3101 -0.1806  0.2789
16666TIP3    H271414   6.239   0.779   2.734  0.0114  2.5525 -0.1797
16667TIP3   OH271415   0.621   4.948   2.617  0.2256 -0.1618  0.3709
16667TIP3    H171416   0.678   4.901   2.678 -0.5010 -2.3167 -0.5004
16667TIP3    H271417   0.646   4.913   2.531 -0.7337  0.6818 -0.2610
16668TIP3   OH271418   1.002   6.328   4.189  0.5704 -0.0327 -0.6053
16668TIP3    H171419   0.955   6.342   4.107 -1.1813 -0.6730  0.2227
16668TIP3    H271420   1.069   6.395   4.191 -1.3787  2.0453 -1.1128
16669TIP3   OH271421   1.280   2.113   6.271 -0.2518 -0.0709 -0.1202
16669TIP3    H171422   1.322   2.027   6.272  0.5464  0.2717 -1.6833
16669TIP3    H271423   1.321   2.161   6.344  1.1589 -0.1857 -0.8042
16670TIP3   OH271424   5.070   4.549  14.198 -0.7457  0.3162  0.1121
16670TIP3    H171425   5.049   4.616  14.133 -0.9111  0.2502  0.0967
16670TIP3    H271426   5.094   4.597  14.277  0.2225  0.4149 -0.2279
16671TIP3   OH271427   6.486   6.609  12.974  0.3142 -0.0269 -0.4363
16671TIP3    H171428   6.398   6.621  12.939  0.3468 -0.3668 -0.6324
16671TIP3    H271429   6.472   6.597  13.068  0.1162 -0.5167 -0.5272
16672TIP3   OH271430   6.304   5.367   5.309 -0.1559 -0.1272  0.4014
16672TIP3    H171431   6.339   5.440   5.259  0.6599 -0.2583  0.7778
16672TIP3    H271432   6.237   5.406   5.365  1.5271  0.6666  1.9368
16673TIP3   OH271433   3.967   3.569   4.419  0.2351 -0.0509  1.1121
16673TIP3    H171434   3.880   3.563   4.378 -0.0489  2.8034  1.1365
16673TIP3    H271435   3.961   3.644   4.478  2.5876 -0.0960  1.4986
16674TIP3   OH271436   3.328   1.929   2.922  0.2142  0.2724 -0.0944
16674TIP3    H171437   3.408   1.879   2.940  1.4841  2.2217  0.0492
16674TIP3    H271438   3.271   1.911   2.996  0.7181 -0.7724  0.0577
16675TIP3   OH271439   3.471   2.599   2.273 -0.4591 -0.5374 -0.6086
16675TIP3    H171440   3.452   2.667   2.338 -0.2396 -0.8694 -0.1898
16675TIP3    H271441   3.388   2.584   2.229 -1.4045 -2.3645  1.5643
16676TIP3   OH271442   2.925   4.617  15.187 -0.1832  0.2074  0.8477
16676TIP3    H171443   2.841   4.660  15.174 -0.1911  0.1382  0.6695
16676TIP3    H271444   2.907   4.524  15.177 -0.9075 -0.2526  4.8283
16677TIP3   OH271445   2.404   2.038  14.735 -0.3440 -0.0025  0.4862
16677TIP3    H171446   2.424   1.959  14.785  0.6601  1.9008  3.4058
16677TIP3    H271447   2.486   2.059  14.690 -0.0474  0.2986  1.1511
16678TIP3   OH271448   6.220   0.934   4.925  0.5855 -0.4872  0.3613
16678TIP3    H171449   6.184   0.999   4.985  0.4003  0.4776 -0.7555
16678TIP3    H271450   6.309   0.919   4.957  1.9461  2.9625 -1.2473
16679TIP3   OH271451   1.355   0.019  15.489  0.2037  0.2442  0.2632
16679TIP3    H171452   1.290   0.005  15.558 -0.7248  1.5331 -0.3090
16679TIP3    H271453   1.310   0.073  15.424  1.8267  1.0938 -0.2064
16680TIP3   OH271454   6.579   4.713  13.135 -0.2415  0.1846  0.2228
16680TIP3    H171455   6.592   4.759  13.053 -1.6118 -0.3011 -0.2920
16680TIP3    H271456   6.659   4.661  13.147  0.1342  0.5665 -0.5929
16681TIP3   OH271457   4.518   2.878  13.971 -0.2517 -0.2030 -0.0734
16681TIP3    H171458   4.473   2.804  13.930  0.8060 -0.0651 -1.5684
16681TIP3    H271459   4.558   2.841  14.050 -0.8284 -0.9179 -0.1101
16682TIP3   OH271460   5.957   5.780  11.618 -0.0500 -0.7302 -0.0652
16682TIP3    H171461   5.935   5.873  11.612  0.9388 -0.5796 -1.8904
16682TIP3    H271462   5.882   5.734  11.581 -0.0186 -0.6016 -0.2831
16683TIP3   OH271463   4.750   5.926  14.498 -0.0591  0.6853  0.0736
16683TIP3    H171464   4.698   5.882  14.564 -0.3457  2.9028  1.4386
16683TIP3    H271465   4.691   5.993  14.462  0.4409  0.2416 -1.6976
16684TIP3   OH271466   1.249   3.154   4.647 -0.6172  0.0368 -0.0461
16684TIP3    H171467   1.319   3.204   4.688  1.2121 -0.8443 -1.9173
16684TIP3    H271468   1.224   3.089   4.713  1.5599 -0.7217  0.1147
16685TIP3   OH271469   0.921   3.904   3.198 -0.0897 -0.1607 -0.3774
16685TIP3    H171470   0.913   3.854   3.279 -0.2756  1.8374  0.9086
16685TIP3    H271471   0.831   3.924   3.173 -0.0869 -1.5544 -1.6529
16686TIP3   OH271472   2.817   2.117  15.169  0.0903  0.6979  0.0505
16686TIP3    H171473   2.757   2.090  15.099  0.3959 -1.6313  0.6297
16686TIP3    H271474   2.770   2.097  15.250  0.6975  1.1398  0.5221
16687TIP3   OH271475   0.758   1.630   2.940 -0.8585  0.3319 -1.1925
16687TIP3    H171476   0.803   1.699   2.891  0.8736  0.7600  0.8468
16687TIP3    H271477   0.667   1.658   2.942 -0.6659  1.1763 -2.6550
16688TIP3   OH271478   3.926   6.601  16.376 -0.5671  0.3567  0.6615
16688TIP3    H171479   4.012   6.601  16.333 -0.6975 -1.0548  0.3459
16688TIP3    H271480   3.910   6.693  16.396  0.4606  0.8038 -0.4040
16689TIP3   OH271481   1.519   0.389   2.976 -0.4696 -0.2208  0.5248
16689TIP3    H171482   1.614   0.383   2.975 -0.3985  0.8218 -0.1651
16689TIP3    H271483   1.491   0.346   2.895 -0.4349  1.2902 -0.3331
16690TIP3   OH271484   0.520   0.692  14.601 -0.3517  0.2439 -0.1922
16690TIP3    H171485   0.613   0.689  14.626 -0.5271  0.3588  0.4841
16690TIP3    H271486   0.519   0.657  14.512  0.0516 -2.0802  0.6433
16691TIP3   OH271487   5.626   6.259   0.479  0.2820  0.2064 -0.0507
16691TIP3    H171488   5.623   6.207   0.399  0.4476 -1.3714  0.9120
16691TIP3    H271489   5.550   6.230   0.529  1.2665 -0.3145  1.2019
16692TIP3   OH271490   6.245   5.757   0.190  0.1640 -0.1292 -0.0928
16692TIP3    H171491   6.312   5.689   0.197  0.7440  0.4694  0.3320
16692TIP3    H271492   6.173   5.715   0.143 -0.0072 -1.4215  1.2674
16693TIP3   OH271493   6.353   1.506  12.428  0.3226  0.4897 -0.2121
16693TIP3    H171494   6.281   1.565  12.406  1.8299  1.6030 -2.6020
16693TIP3    H271495   6.428   1.564  12.442  1.5306 -0.7557 -1.2430
16694TIP3   OH271496   4.100   5.025  14.847 -0.3530  0.3426  0.3629
16694TIP3    H171497   4.115   4.945  14.797  1.2140  0.5700  0.4281
16694TIP3    H271498   4.049   4.996  14.923 -0.1353 -0.5231  0.1929
16695TIP3   OH271499   4.295   1.875   2.016 -0.2388  0.4795 -0.3210
16695TIP3    H171500   4.296   1.939   1.944 -0.5913  1.6689  0.6944
16695TIP3    H271501   4.215   1.896   2.065  0.0002 -0.3031  0.4222
16696TIP3   OH271502   5.097   0.972   0.291  0.0164 -0.8259 -0.6451
16696TIP3    H171503   5.073   0.885   0.259  0.0280 -0.2712 -2.2087
16696TIP3    H271504   5.111   1.024   0.212  1.2516  0.2665  0.2576
16697TIP3   OH271505   2.871   2.689   1.946 -0.1016 -0.5552 -0.4496
16697TIP3    H171506   2.817   2.656   1.874  0.5680 -3.3319  0.1928
16697TIP3    H271507   2.908   2.770   1.914 -2.8926  0.3520 -1.7287
16698TIP3   OH271508   1.739   1.969   5.722 -0.8160  0.3401  0.1792
16698TIP3    H171509   1.676   2.006   5.784 -1.0014  0.4501 -0.0700
16698TIP3    H271510   1.738   1.875   5.741 -0.1343  0.4883  0.9996
16699TIP3   OH271511   6.522   5.744  12.371  0.1332 -0.5770 -0.9427
16699TIP3    H171512   6.491   5.814  12.429  0.8454 -0.8550 -0.1899
16699TIP3    H271513   6.462   5.671  12.388  2.2356 -1.8185  2.0499
16700TIP3   OH271514   0.689   1.345   3.962 -0.1248  0.5930  0.0391
16700TIP3    H171515   0.765   1.377   3.914  0.3780 -0.4713  0.1083
16700TIP3    H271516   0.614   1.389   3.920  0.2883 -0.3345 -1.7590
16701TIP3   OH271517   0.264   0.425   2.182  0.4197  0.1295  0.3266
16701TIP3    H171518   0.308   0.495   2.230  0.3560  0.7734 -0.5320
16701TIP3    H271519   0.330   0.356   2.175  1.0666  0.7812 -0.2787
16702TIP3   OH271520   3.925   2.640  14.176  0.7297  0.4392  0.2009
16702TIP3    H171521   3.909   2.552  14.210 -0.0705  0.2679 -0.6027
16702TIP3    H271522   3.878   2.697  14.236  0.3003  0.2299  0.0631
16703TIP3   OH271523   4.128   1.350   2.165  0.0471  0.0023 -0.7960
16703TIP3    H171524   4.121   1.294   2.088  1.9895 -3.2253  1.1393
16703TIP3    H271525   4.222   1.357   2.181  0.0090  4.5718 -1.2250
16704TIP3   OH271526   1.246   3.263   5.307 -0.2712 -0.0377  0.0660
16704TIP3    H171527   1.243   3.211   5.227 -2.1489  0.5649 -0.3102
16704TIP3    H271528   1.154   3.286   5.324  0.4775  3.3938  0.0395
16705TIP3   OH271529   6.162   2.657  14.367 -0.2593 -0.8741  0.3114
16705TIP3    H171530   6.176   2.738  14.416  0.0458 -0.5369 -0.3311
16705TIP3    H271531   6.224   2.594  14.405 -0.7669 -0.9252  1.0715
16706TIP3   OH271532   4.466   3.667   2.409 -0.4102  0.4501  0.0738
16706TIP3    H171533   4.372   3.675   2.423 -0.2845  0.7470  0.8097
16706TIP3    H271534   4.505   3.689   2.494  0.1825 -3.5510  1.0421
16707TIP3   OH271535   6.380   0.710  15.741  0.1727 -0.0789 -0.2592
16707TIP3    H171536   6.455   0.763  15.715 -0.6303  0.7189 -1.0573
16707TIP3    H271537   6.305   0.770  15.734 -0.6014 -0.9771  0.0607
16708TIP3   OH271538   4.061   1.037   0.378  0.6511 -0.4160  0.0846
16708TIP3    H171539   4.076   1.115   0.431  0.4235  0.2190 -0.7852
16708TIP3    H271540   3.966   1.034   0.366  0.6364 -0.9463  0.2867
16709TIP3   OH271541   1.033   0.759   1.560  0.9360  0.1324  0.8315
16709TIP3    H171542   1.053   0.730   1.471  0.3230  2.5112 -0.1450
16709TIP3    H271543   0.937   0.756   1.566  0.8660  1.5671  0.7897
16710TIP3   OH271544   3.175   5.883   2.444 -0.0044  0.3274 -1.0616
16710TIP3    H171545   3.178   5.933   2.526  1.1326 -2.1056  0.4871
16710TIP3    H271546   3.084   5.889   2.416 -0.4512  1.1539  0.4458
16711TIP3   OH271547   1.140   6.641  11.950 -0.9705  0.1244  0.6980
16711TIP3    H171548   1.094   6.692  11.883 -0.7055  0.5254  0.8177
16711TIP3    H271549   1.089   6.560  11.958 -0.9382  0.0243 -0.0652
16712TIP3   OH271550   4.742   2.492  15.856 -0.2726  0.0420 -0.4693
16712TIP3    H171551   4.835   2.476  15.838 -0.6008 -1.4767 -1.0181
16712TIP3    H271552   4.708   2.406  15.880 -1.5318  0.5933 -0.2153
16713TIP3   OH271553   1.988   4.020  11.613 -0.3157  0.2641 -0.1858
16713TIP3    H171554   2.010   4.043  11.704  0.8971 -1.5128  0.0283
16713TIP3    H271555   1.895   4.000  11.615 -0.0135 -1.2327  1.0553
16714TIP3   OH271556   6.254   4.252   1.808 -0.4077 -0.5485  0.5756
16714TIP3    H171557   6.218   4.222   1.725 -0.2702 -1.8862  0.9736
16714TIP3    H271558   6.342   4.216   1.811 -0.7615 -1.3795  1.7382
16715TIP3   OH271559   5.311   0.331  15.714  0.0176  0.3196  0.2297
16715TIP3    H171560   5.375   0.398  15.688 -1.1298  1.4763  0.2682
16715TIP3    H271561   5.340   0.304  15.801 -0.3803  1.9642  0.9102
16716TIP3   OH271562   4.449   4.862  10.931  0.4295  0.4439 -0.1205
16716TIP3    H171563   4.382   4.802  10.965  1.6501 -1.6877 -1.3235
16716TIP3    H271564   4.447   4.936  10.992  0.2862 -1.7118  2.6785
16717TIP3   OH271565   3.885   1.872  12.803 -0.2849  0.0327 -0.4154
16717TIP3    H171566   3.832   1.806  12.848  1.3664 -0.4141  0.9492
16717TIP3    H271567   3.975   1.840  12.809  0.1526  0.4634 -3.2121
16718TIP3   OH271568   4.805   6.292   5.580 -0.4116 -0.6767 -0.5320
16718TIP3    H171569   4.779   6.382   5.557 -1.9401 -0.9227  0.1501
16718TIP3    H271570   4.856   6.301   5.660  0.1029 -0.3688 -0.8808
16719TIP3   OH271571   2.977   3.482  12.877 -0.0426  0.5175 -0.5235
16719TIP3    H171572   2.965   3.423  12.951  0.6842 -0.2170 -0.9730
16719TIP3    H271573   2.922   3.558  12.898 -0.5177 -0.0446  0.3524
16720TIP3   OH271574   0.603   6.066   0.940 -0.0297  0.0907 -0.4595
16720TIP3    H171575   0.546   6.098   0.870 -0.8528  0.0338  0.1656
16720TIP3    H271576   0.548   6.068   1.018  1.1339  1.0075  0.3769
16721TIP3   OH271577   0.604   3.109   6.302  0.5450  0.0315 -0.1928
16721TIP3    H171578   0.671   3.173   6.325  0.0556  0.1318  0.9957
16721TIP3    H271579   0.639   3.066   6.223  0.1099  2.9172 -2.1227
16722TIP3   OH271580   1.339   6.006   2.760  0.3360 -0.7169  0.1144
16722TIP3    H171581   1.373   5.927   2.718 -0.1308 -1.8102  1.7253
16722TIP3    H271582   1.254   5.980   2.794  1.3109 -0.3536  3.0418
16723TIP3   OH271583   4.243   1.335  16.848  0.1839 -0.3244  0.4234
16723TIP3    H171584   4.187   1.307  16.776 -2.2770  0.0247  2.0847
16723TIP3    H271585   4.323   1.284  16.837 -0.2430 -0.5886 -2.2723
16724TIP3   OH271586   1.901   2.470   0.336  0.0136 -0.1105 -0.6381
16724TIP3    H171587   1.846   2.395   0.360  0.1273  0.1050  0.3596
16724TIP3    H271588   1.841   2.544   0.334  0.0453 -0.0886 -0.8316
16725TIP3   OH271589   5.871   5.991  14.632  0.4127 -0.2631  0.1529
16725TIP3    H171590   5.803   6.033  14.684  1.5187  1.9513 -0.0783
16725TIP3    H271591   5.855   6.020  14.543  1.3374 -0.1318  0.0186
16726TIP3   OH271592   4.701   2.721  11.118 -0.3318  0.3648 -0.0682
16726TIP3    H171593   4.790   2.742  11.090 -0.2871  0.6253  0.2597
16726TIP3    H271594   4.652   2.802  11.106 -0.8851 -0.1681 -1.6145
16727TIP3   OH271595   6.602   2.266  13.037 -0.0983  0.4079  0.5285
16727TIP3    H171596   6.538   2.331  13.009  0.6303  1.0248  0.2557
16727TIP3    H271597   6.685   2.314  13.042  0.6916 -0.7334 -0.8008
16728TIP3   OH271598   4.160   1.850  16.183 -0.5577 -0.1911  0.6263
16728TIP3    H171599   4.225   1.808  16.127  2.1755  1.5814  2.2139
16728TIP3    H271600   4.161   1.800  16.264 -2.5900 -1.2075  0.0887
16729TIP3   OH271601   5.723   0.059   0.616 -0.4074 -0.3191 -0.1021
16729TIP3    H171602   5.767   0.004   0.681 -0.0063  0.4519  0.2943
16729TIP3    H271603   5.631   0.060   0.644 -0.2097  0.1243  0.5332
16730TIP3   OH271604   0.366   5.197  11.589 -0.7513  0.1529  0.1006
16730TIP3    H171605   0.301   5.127  11.595  1.0271 -1.4824  1.7441
16730TIP3    H271606   0.419   5.174  11.513 -0.2772 -0.1988  0.5344
16731TIP3   OH271607   5.543   0.031   3.390 -0.1388  0.0075 -0.1299
16731TIP3    H171608   5.498   0.016   3.307 -0.3174 -0.0351 -0.0274
16731TIP3    H271609   5.635   0.010   3.372 -0.2544 -0.4701 -0.1933
16732TIP3   OH271610   4.324   2.214   0.170  0.2203  0.8054  0.4909
16732TIP3    H171611   4.351   2.123   0.157  2.0320  0.9621  2.5666
16732TIP3    H271612   4.266   2.210   0.247 -0.9340  1.2494 -0.3323
16733TIP3   OH271613   2.927   2.880   3.613  0.3685 -0.4063 -0.4162
16733TIP3    H171614   2.897   2.881   3.522 -1.6703 -0.5379  0.2170
16733TIP3    H271615   2.900   2.794   3.646 -0.2176  0.2008  0.7257
16734TIP3   OH271616   2.117   4.153   1.280 -0.1646 -0.1534 -0.1046
16734TIP3    H171617   2.176   4.079   1.292 -1.5526 -1.3014  0.0532
16734TIP3    H271618   2.049   4.139   1.346 -0.9419  0.7526 -0.6937
16735TIP3   OH271619   3.836   1.698   0.315 -0.3008  0.2837  0.3997
16735TIP3    H171620   3.771   1.652   0.368 -0.5593 -0.1786 -0.3042
16735TIP3    H271621   3.911   1.710   0.373 -0.2117 -1.0551  0.6008
16736TIP3   OH271622   1.471   2.529  15.709 -0.2658  0.5330  0.1873
16736TIP3    H171623   1.484   2.441  15.673 -0.9466  0.7943 -0.7545
16736TIP3    H271624   1.403   2.518  15.775  0.5724  0.1446  1.0003
16737TIP3   OH271625   2.113   3.678   3.052  0.3174 -0.0817 -0.4290
16737TIP3    H171626   2.058   3.616   3.099 -0.3099  0.2566 -0.7044
16737TIP3    H271627   2.200   3.639   3.053  0.5635  0.3937  1.8864
16738TIP3   OH271628   4.910   3.393   1.847  0.0465 -0.2587 -0.3997
16738TIP3    H171629   4.856   3.412   1.771  0.5744 -2.0667 -1.2621
16738TIP3    H271630   4.879   3.308   1.878  0.3315  0.1133  0.9769
16739TIP3   OH271631   0.809   5.844  14.051  0.4424  0.6483  0.0043
16739TIP3    H171632   0.745   5.840  13.980 -0.9662  0.6344  1.2263
16739TIP3    H271633   0.859   5.923  14.034 -1.1099  1.6652 -0.0236
16740TIP3   OH271634   3.341   3.375  12.678 -0.0163 -0.0132 -0.1806
16740TIP3    H171635   3.421   3.425  12.661  1.0734 -1.7796 -0.4449
16740TIP3    H271636   3.360   3.325  12.757 -1.7043  1.1650  1.0561
16741TIP3   OH271637   0.681   1.261   0.632 -0.6432 -0.4218  0.0503
16741TIP3    H171638   0.627   1.181   0.627 -0.0585 -0.9087  1.1965
16741TIP3    H271639   0.676   1.287   0.724  1.3405 -0.6771  0.2771
16742TIP3   OH271640   0.187   6.004   1.428 -0.0489  0.1005 -0.0497
16742TIP3    H171641   0.142   6.024   1.511  0.1246  0.3356 -0.0120
16742TIP3    H271642   0.116   5.991   1.366 -0.2634 -2.3422  0.6284
16743TIP3   OH271643   6.665   2.429  11.054 -0.1226  0.1795  0.8439
16743TIP3    H171644   6.597   2.376  11.011  0.0811 -1.4301  2.3962
16743TIP3    H271645   6.660   2.514  11.011 -1.0675 -0.8246 -1.1529
16744TIP3   OH271646   2.456   1.384   3.195 -0.3006 -0.1974 -0.4493
16744TIP3    H171647   2.472   1.355   3.105 -0.1860  0.2008 -0.5578
16744TIP3    H271648   2.523   1.338   3.247  1.1409  1.3317 -0.8761
16745TIP3   OH271649   5.640   3.550  13.785 -0.5298  0.8471  0.0830
16745TIP3    H171650   5.576   3.621  13.779 -0.4631  0.9991  1.0448
16745TIP3    H271651   5.600   3.486  13.844 -1.3900 -0.8080 -2.1443
16746TIP3   OH271652   0.157   3.596   0.937  0.2666 -0.4884  1.0686
16746TIP3    H171653   0.243   3.559   0.958 -0.1424 -2.1152  0.0808
16746TIP3    H271654   0.160   3.610   0.843 -1.3884 -3.0551  0.5399
16747TIP3   OH271655   1.958   4.737  14.824 -0.1574 -0.0973  0.4250
16747TIP3    H171656   2.046   4.703  14.806 -0.8493 -0.4199 -3.1299
16747TIP3    H271657   1.918   4.671  14.881  1.1979 -1.0407  0.3490
16748TIP3   OH271658   4.880   3.397   5.477 -0.0557  0.6413  0.5778
16748TIP3    H171659   4.940   3.470   5.462  1.3207 -0.3363  1.1795
16748TIP3    H271660   4.884   3.380   5.571 -0.7434  0.0983  0.5217
16749TIP3   OH271661   5.602   5.789  14.752 -0.5326 -0.0940  0.2828
16749TIP3    H171662   5.573   5.709  14.707  0.0591 -0.4045  0.4458
16749TIP3    H271663   5.667   5.759  14.815 -0.5159  0.4861  0.5471
16750TIP3   OH271664   2.875   3.969   5.514 -0.1460  0.2614  0.1717
16750TIP3    H171665   2.813   3.897   5.500 -0.1691  0.5949 -1.6609
16750TIP3    H271666   2.851   4.034   5.449  1.6845  0.6968 -0.1124
16751TIP3   OH271667   3.192   4.302  15.184 -0.1467 -0.2805 -0.2481
16751TIP3    H171668   3.235   4.359  15.247  0.1597 -1.5579  0.7489
16751TIP3    H271669   3.243   4.221  15.187 -0.3466 -0.4910 -1.8882
16752TIP3   OH271670   4.986   3.814   4.114 -0.0327  0.1444 -0.2341
16752TIP3    H171671   4.926   3.818   4.040 -1.6119 -0.8429  0.9408
16752TIP3    H271672   5.026   3.728   4.108 -0.7818 -0.2686  0.4939
16753TIP3   OH271673   0.241   2.408  15.750  0.8125  0.0872 -0.0030
16753TIP3    H171674   0.321   2.398  15.698  0.1617 -2.5726 -0.6070
16753TIP3    H271675   0.271   2.402  15.841  1.2335 -2.3529 -0.2328
16754TIP3   OH271676   3.234   0.450  14.634 -0.5360  0.2164  0.0096
16754TIP3    H171677   3.316   0.481  14.596 -0.2914  2.0355  1.8526
16754TIP3    H271678   3.168   0.512  14.602 -0.5478  0.9330  1.3412
16755TIP3   OH271679   3.829   0.871   0.114 -0.1945 -0.1367 -0.3264
16755TIP3    H171680   3.845   0.963   0.135  0.6939  0.1052 -1.9084
16755TIP3    H271681   3.908   0.826   0.142  0.8669  0.1430 -2.6245
16756TIP3   OH271682   4.217   0.381   0.567 -0.5663 -0.2538  0.0148
16756TIP3    H171683   4.231   0.455   0.626 -2.4482 -0.6952  1.1179
16756TIP3    H271684   4.177   0.419   0.489  0.9578  0.2002 -0.5698
16757TIP3   OH271685   1.571   1.886  12.196  0.6096 -0.3773 -0.0060
16757TIP3    H171686   1.611   1.806  12.162  0.3339 -0.6259  0.2512
16757TIP3    H271687   1.514   1.856  12.266  0.1486 -0.0051 -0.2149
16758TIP3   OH271688   0.104   6.521   0.222 -0.7252 -0.3283  0.2538
16758TIP3    H171689   0.040   6.577   0.267  1.9329  1.6614  1.8231
16758TIP3    H271690   0.068   6.433   0.230 -2.9129  0.6039  1.6613
16759TIP3   OH271691   4.215   3.306  14.461  0.1299  0.0214 -0.0034
16759TIP3    H171692   4.169   3.275  14.539  2.6418 -1.6749  0.9375
16759TIP3    H271693   4.281   3.367  14.494 -0.3404  1.2060 -1.1327
16760TIP3   OH271694   1.331   2.713   5.691  0.0120  0.4161 -0.0154
16760TIP3    H171695   1.261   2.660   5.730 -0.0365  0.9845  0.6878
16760TIP3    H271696   1.295   2.742   5.607  0.2412 -1.0943 -0.6738
16761TIP3   OH271697   4.960   4.515  13.393 -0.0507  0.1493 -0.4018
16761TIP3    H171698   4.923   4.593  13.353  0.2982  0.1431 -0.7382
16761TIP3    H271699   4.938   4.444  13.333 -1.7703 -0.2953  0.6773
16762TIP3   OH271700   2.606   4.916  14.769  0.5875 -1.1140  0.1348
16762TIP3    H171701   2.561   4.848  14.720  0.0987 -0.2414 -0.6553
16762TIP3    H271702   2.587   4.997  14.722  3.4674 -0.7596 -0.6352
16763TIP3   OH271703   4.331   0.239   6.316 -0.2912 -0.4106  0.3005
16763TIP3    H171704   4.266   0.308   6.329 -0.0632 -0.0014 -0.5980
16763TIP3    H271705   4.403   0.261   6.376 -0.9234 -0.8001  1.2110
16764TIP3   OH271706   3.100   3.661   6.334  0.0158 -0.3828  0.3134
16764TIP3    H171707   3.122   3.724   6.403 -0.8690  0.4366 -0.1268
16764TIP3    H271708   3.042   3.598   6.377 -2.2577  1.2959 -0.1019
16765TIP3   OH271709   6.280   2.882   0.553  0.0523 -0.0681 -0.0818
16765TIP3    H171710   6.210   2.946   0.543  0.1897 -0.0770 -1.3425
16765TIP3    H271711   6.252   2.808   0.498 -0.3466 -1.3250  1.7333
16766TIP3   OH271712   1.130   5.401  10.702 -0.5228 -0.3685 -0.5307
16766TIP3    H171713   1.060   5.342  10.674 -0.0311  0.1650 -3.1506
16766TIP3    H271714   1.157   5.446  10.622  2.5873 -0.2979  0.4007
16767TIP3   OH271715   3.688   0.198   5.624 -0.0258 -0.5742 -0.3097
16767TIP3    H171716   3.704   0.289   5.651 -0.1890 -0.7660  0.4769
16767TIP3    H271717   3.597   0.197   5.595  0.2312 -0.3049 -1.1368
16768TIP3   OH271718   2.867   1.540  14.649 -0.8028  0.1899  0.3456
16768TIP3    H171719   2.837   1.567  14.562 -1.6016 -3.2427 -0.5808
16768TIP3    H271720   2.941   1.598  14.667  0.6597 -0.1104 -3.5031
16769TIP3   OH271721   1.704   4.421   0.664  0.3845  0.3467 -0.0134
16769TIP3    H171722   1.679   4.446   0.753 -0.1342  0.1180 -0.0911
16769TIP3    H271723   1.745   4.335   0.674 -0.5385 -0.1076 -0.1097
16770TIP3   OH271724   0.343   6.584  16.332 -0.2367 -0.0403 -0.2227
16770TIP3    H171725   0.327   6.502  16.287 -1.1110  0.5914 -1.0902
16770TIP3    H271726   0.438   6.594  16.332 -0.0393 -1.5880  0.9109
16771TIP3   OH271727   4.486   0.641   0.841 -0.3673 -0.0637 -0.1711
16771TIP3    H171728   4.395   0.614   0.831 -0.7940  0.6435  1.4178
16771TIP3    H271729   4.488   0.685   0.926  1.3869  0.2519 -0.3465
16772TIP3   OH271730   1.590   4.391  15.001 -0.2025 -0.5139 -0.3852
16772TIP3    H171731   1.603   4.297  15.001  0.7359 -0.4616 -2.5088
16772TIP3    H271732   1.495   4.403  14.998 -0.3280 -1.3745  0.0001
16773TIP3   OH271733   3.864   1.179  14.684  0.5628  0.3914  0.6325
16773TIP3    H171734   3.908   1.149  14.763 -1.2217  2.5449  2.6131
16773TIP3    H271735   3.859   1.274  14.694 -0.0275  0.7062 -1.9432
16774TIP3   OH271736   6.425   2.475  11.536 -0.3266 -0.0609  0.2471
16774TIP3    H171737   6.408   2.569  11.526 -2.1533 -0.2048  1.6091
16774TIP3    H271738   6.344   2.432  11.508  0.0821 -1.1816  0.7286
16775TIP3   OH271739   3.724   1.330  12.873 -0.3666  0.2303  0.0965
16775TIP3    H171740   3.754   1.251  12.829 -0.1370 -0.0566  0.7576
16775TIP3    H271741   3.629   1.327  12.866 -0.4444 -0.8057  1.2835
16776TIP3   OH271742   0.579   5.536  16.857  0.7369 -0.0619 -0.3808
16776TIP3    H171743   0.498   5.489  16.842  0.3516  0.9024 -1.4613
16776TIP3    H271744   0.565   5.583  16.940  0.1878  0.1183 -0.5739
16777TIP3   OH271745   6.647   3.678  10.871 -0.1908 -0.1623 -0.4682
16777TIP3    H171746   6.638   3.643  10.960 -0.9845  0.2434 -0.3805
16777TIP3    H271747   6.623   3.606  10.814 -1.7643  0.2013 -0.2907
16778TIP3   OH271748   2.015   3.867  16.516  0.2299  0.1828  0.3205
16778TIP3    H171749   1.932   3.907  16.490  0.1982  0.0168  0.1639
16778TIP3    H271750   1.997   3.773  16.514  0.3289  0.1590  0.6002
16779TIP3   OH271751   6.790   4.061  13.961 -0.6549  0.1496  0.2006
16779TIP3    H171752   6.768   3.967  13.964  0.4875 -0.1337  0.4952
16779TIP3    H271753   6.727   4.102  14.020 -0.5808 -0.5740  0.8038
16780TIP3   OH271754   4.918   6.721   3.515  1.3382 -0.9321  0.9146
16780TIP3    H171755   4.951   6.809   3.498  0.7581 -0.8496  0.1162
16780TIP3    H271756   4.877   6.726   3.601  1.2021 -0.3798  0.8194
16781TIP3   OH271757   6.389   2.731  12.936 -0.0617 -0.3093  1.3417
16781TIP3    H171758   6.374   2.822  12.911  0.1068  0.0116  2.3503
16781TIP3    H271759   6.342   2.721  13.019  0.1896 -1.0542  1.4029
16782TIP3   OH271760   5.026   2.838   5.855 -0.0089  0.5951 -0.1782
16782TIP3    H171761   4.960   2.794   5.909 -0.4976 -0.6908 -1.7403
16782TIP3    H271762   5.077   2.767   5.817  1.0404  1.5120 -0.5485
16783TIP3   OH271763   1.379   6.586  14.298 -0.1224  0.6126  0.9452
16783TIP3    H171764   1.291   6.616  14.275 -0.3933  0.0922  1.2814
16783TIP3    H271765   1.405   6.642  14.371 -0.0510  0.9599  0.6601
16784TIP3   OH271766   2.250   1.473  13.802  0.7590 -0.1553 -0.4152
16784TIP3    H171767   2.241   1.544  13.866  1.5280 -1.2341  0.9615
16784TIP3    H271768   2.161   1.441  13.789  0.6506 -0.3108  0.6093
16785TIP3   OH271769   6.127   1.810  16.608  0.3078 -0.1714 -0.0467
16785TIP3    H171770   6.216   1.837  16.587  0.4504 -0.2503  0.4444
16785TIP3    H271771   6.126   1.715  16.592 -0.3552  0.1656 -2.3383
16786TIP3   OH271772   2.645   4.235  10.982 -0.2341 -0.3235 -0.4584
16786TIP3    H171773   2.692   4.185  10.915 -0.9230 -0.8514 -0.5600
16786TIP3    H271774   2.711   4.294  11.019  0.8569 -1.9909  0.3645
16787TIP3   OH271775   5.400   3.835   4.098  0.0299  0.4685  0.0730
16787TIP3    H171776   5.430   3.745   4.089  1.5731  0.9949 -0.4026
16787TIP3    H271777   5.385   3.846   4.192 -1.0957 -0.5471  0.0262
16788TIP3   OH271778   3.477   0.660  10.907  0.2217  0.1035  0.6179
16788TIP3    H171779   3.462   0.749  10.874  0.0992  0.0804  0.6140
16788TIP3    H271780   3.536   0.621  10.842 -1.9429 -0.7803 -0.9079
16789TIP3   OH271781   4.520   3.845   1.027 -0.5254 -0.0073  0.2533
16789TIP3    H171782   4.541   3.795   1.106 -0.0419  0.4490  0.4205
16789TIP3    H271783   4.601   3.891   1.006  0.4344 -2.5686 -2.3719
16790TIP3   OH271784   0.374   6.675  17.085 -0.0779 -0.9367 -0.3933
16790TIP3    H171785   0.308   6.643  17.024 -0.0674  0.7371 -1.3384
16790TIP3    H271786   0.326   6.732  17.145  0.6191  1.2484 -1.8119
16791TIP3   OH271787   6.029   2.002   5.372  0.2339  0.4363  0.0359
16791TIP3    H171788   6.043   1.988   5.279  0.9421 -1.1618  0.3423
16791TIP3    H271789   6.092   2.069   5.397 -0.6663  1.6240 -0.8166
16792TIP3   OH271790   0.375   3.740   3.267 -0.0574 -0.3942  0.2657
16792TIP3    H171791   0.329   3.656   3.264  2.4782 -1.8726 -1.1738
16792TIP3    H271792   0.392   3.762   3.176 -0.2210  1.4820  0.6338
16793TIP3   OH271793   3.444   1.547   1.028  0.5188  0.2135 -0.3617
16793TIP3    H171794   3.359   1.507   1.008  1.6573 -1.6195 -1.9611
16793TIP3    H271795   3.448   1.625   0.972  0.0500  0.1030 -0.5510
16794TIP3   OH271796   2.296   0.278   1.843 -0.1631 -0.0388  0.3721
16794TIP3    H171797   2.210   0.240   1.862 -0.3295 -0.1641 -0.5851
16794TIP3    H271798   2.287   0.314   1.755  1.3208 -1.7645 -0.5412
16795TIP3   OH271799   6.228   5.613  15.042 -0.0438 -0.5002 -0.2015
16795TIP3    H171800   6.320   5.604  15.065 -0.1385 -1.6919 -0.2201
16795TIP3    H271801   6.228   5.668  14.964  0.5402  0.6199  0.5560
16796TIP3   OH271802   5.989   5.382   0.460 -0.0881 -0.5895 -0.0224
16796TIP3    H171803   6.051   5.388   0.388  0.6689 -2.4706  0.4205
16796TIP3    H271804   6.031   5.323   0.523 -0.6694  1.0684  2.0318
16797TIP3   OH271805   2.281   3.789  14.981  0.2884  0.6978  0.4480
16797TIP3    H171806   2.278   3.808  15.075 -0.5083  0.9754  0.3780
16797TIP3    H271807   2.240   3.865  14.941  0.2710  0.4015 -0.0981
16798TIP3   OH271808   4.142   1.166   4.441  0.0797 -0.0784  0.4012
16798TIP3    H171809   4.126   1.204   4.528 -0.9891 -2.3713  1.2662
16798TIP3    H271810   4.188   1.084   4.458  1.2687  0.1670 -1.3356
16799TIP3   OH271811   0.158   0.933  17.154 -0.0659 -0.1852  0.2589
16799TIP3    H171812   0.172   1.005  17.215  3.2870 -1.1221  0.8015
16799TIP3    H271813   0.184   0.854  17.202  0.9486 -1.1682 -1.7520
16800TIP3   OH271814   4.406   1.776   0.738  0.8011 -0.3744 -0.2068
16800TIP3    H171815   4.490   1.733   0.752  0.9574 -0.4227 -1.2501
16800TIP3    H271816   4.414   1.820   0.654  0.3096  0.9301  0.3915
16801TIP3   OH271817   3.432   3.878   1.926  0.2197  0.1293 -0.6275
16801TIP3    H171818   3.346   3.840   1.909  0.0491  0.6954 -1.0782
16801TIP3    H271819   3.485   3.851   1.851 -0.3731  2.1439 -1.8655
16802TIP3   OH271820   3.657   1.314  16.025  0.9960  0.2455  0.3095
16802TIP3    H171821   3.628   1.245  16.085 -0.3995 -0.5004 -1.1285
16802TIP3    H271822   3.617   1.394  16.059  0.3112 -0.1523  0.4639
16803TIP3   OH271823   1.324   3.460  14.422 -0.2576 -0.1507  0.1007
16803TIP3    H171824   1.414   3.427  14.416 -0.2293 -0.1284  0.4160
16803TIP3    H271825   1.278   3.397  14.477 -0.4259 -0.1411 -0.0300
16804TIP3   OH271826   5.790   4.955   4.622  0.0781 -0.2354 -0.1467
16804TIP3    H171827   5.851   4.887   4.595  1.0764  1.4407 -2.3885
16804TIP3    H271828   5.812   4.971   4.714 -0.3142 -2.9560  0.5277
16805TIP3   OH271829   4.696   2.272  14.913  0.3006 -0.0811 -0.0568
16805TIP3    H171830   4.656   2.343  14.861  0.0834 -0.7250 -0.7887
16805TIP3    H271831   4.686   2.301  15.004 -2.5186 -0.5350 -0.1469
16806TIP3   OH271832   5.640   4.559   0.507  0.1669 -0.0238  0.0055
16806TIP3    H171833   5.696   4.495   0.552  0.8127  1.6764  1.7860
16806TIP3    H271834   5.671   4.559   0.417  2.0266 -0.2601  0.5944
16807TIP3   OH271835   3.088   1.753  15.981 -0.2607  0.1410 -0.0554
16807TIP3    H171836   3.006   1.744  16.029  0.6104 -1.5018  1.2018
16807TIP3    H271837   3.131   1.668  15.990  2.1333  1.3128  0.3368
16808TIP3   OH271838   1.597   5.853  16.878  0.1189  0.3278 -0.3360
16808TIP3    H171839   1.643   5.847  16.962  1.7180  0.9464 -1.1277
16808TIP3    H271840   1.518   5.903  16.898 -0.6849 -1.4375  1.2172
16809TIP3   OH271841   4.427   0.189  13.427 -0.5046 -0.3020 -0.0853
16809TIP3    H171842   4.467   0.272  13.401  0.1365 -0.3327  0.7243
16809TIP3    H271843   4.356   0.174  13.365 -0.4350  0.7071 -0.4101
16810TIP3   OH271844   5.523   4.559   4.483  0.1732  0.6195 -0.3699
16810TIP3    H171845   5.508   4.527   4.394 -1.2033 -1.3332  0.4984
16810TIP3    H271846   5.617   4.550   4.495  0.3568  0.7184 -1.5500
16811TIP3   OH271847   0.682   0.760  11.984 -0.2802  0.2191  0.2786
16811TIP3    H171848   0.714   0.718  11.904  0.6258 -0.4118  0.9526
16811TIP3    H271849   0.702   0.853  11.972 -1.7501  0.4090 -0.9626
16812TIP3   OH271850   6.293   5.344  12.725 -0.9115 -0.2825 -0.1221
16812TIP3    H171851   6.228   5.322  12.791 -1.1663  0.0109 -0.2731
16812TIP3    H271852   6.250   5.410  12.670 -1.0548 -1.2027 -1.1511
16813TIP3   OH271853   1.564   5.359  12.979 -0.3517  0.0751  0.2333
16813TIP3    H171854   1.560   5.392  13.068  1.2329  0.0416  0.3469
16813TIP3    H271855   1.486   5.393  12.937 -0.5289  1.0531  1.3128
16814TIP3   OH271856   6.544   1.022  13.945  0.1199  0.3300  0.3025
16814TIP3    H171857   6.603   0.986  13.878 -0.6629 -2.1941  0.8844
16814TIP3    H271858   6.523   1.110  13.913  0.5935 -0.3909 -2.2332
16815TIP3   OH271859   1.063   5.872   2.752  0.7104 -0.2881  0.5190
16815TIP3    H171860   0.971   5.847   2.765  0.1651  0.2289 -1.8537
16815TIP3    H271861   1.100   5.801   2.700  1.7822 -0.6793  1.7893
16816TIP3   OH271862   5.497   2.242   2.868 -0.0224  0.5044  0.1050
16816TIP3    H171863   5.558   2.296   2.917  0.9669 -0.3860 -0.1004
16816TIP3    H271864   5.509   2.154   2.903 -0.4514  0.1388 -0.6413
16817TIP3   OH271865   3.695   1.454  15.449  0.5221  0.4320 -0.2094
16817TIP3    H171866   3.719   1.422  15.536 -3.1157  0.2907  0.9230
16817TIP3    H271867   3.704   1.377  15.392  0.6477 -0.1256  0.5411
16818TIP3   OH271868   0.590   6.506  12.723 -0.2209 -0.1659  1.1795
16818TIP3    H171869   0.562   6.496  12.632 -0.6336 -2.3193  1.4975
16818TIP3    H271870   0.644   6.585  12.723 -0.1698 -0.1508 -0.9246
16819TIP3   OH271871   3.870   2.411  14.299 -0.4853 -0.5608 -0.3658
16819TIP3    H171872   3.907   2.337  14.251  1.2024  0.1673 -0.2697
16819TIP3    H271873   3.896   2.396  14.390 -2.7829 -1.3949  0.2316
16820TIP3   OH271874   1.107   5.187  14.411  0.3501 -0.6922  0.3595
16820TIP3    H171875   1.055   5.109  14.431 -0.8391 -0.3017 -1.0479
16820TIP3    H271876   1.043   5.258  14.407  0.9730 -0.1790 -1.3204
16821TIP3   OH271877   0.709   4.213  10.709  0.0357  0.4626  0.2605
16821TIP3    H171878   0.758   4.252  10.637 -0.4294  0.4103 -0.0879
16821TIP3    H271879   0.744   4.124  10.716 -1.7737 -0.4787 -1.7132
16822TIP3   OH271880   0.642   2.107  16.551  0.0778  0.1493 -0.2579
16822TIP3    H171881   0.710   2.058  16.598  1.1708  0.2110 -1.6705
16822TIP3    H271882   0.668   2.199  16.560  0.4195  0.1479 -1.1163
16823TIP3   OH271883   1.781   2.926  13.955 -0.1499  0.1993 -0.4381
16823TIP3    H171884   1.804   2.863  14.024  0.2807  0.3950 -0.3975
16823TIP3    H271885   1.835   3.002  13.974 -0.9035  0.7076 -0.3020
16824TIP3   OH271886   4.437   4.496   5.381 -0.0964  0.2536 -0.1735
16824TIP3    H171887   4.463   4.516   5.291 -0.3844  0.2453 -0.2605
16824TIP3    H271888   4.386   4.573   5.408  3.3482  2.2411  1.4173
16825TIP3   OH271889   1.807   6.266   2.728 -0.0953 -0.0236  0.0266
16825TIP3    H171890   1.722   6.283   2.767  0.0673  0.7704  0.0381
16825TIP3    H271891   1.788   6.253   2.635 -0.1184  1.1253 -0.1383
16826TIP3   OH271892   5.169   3.920  12.811  0.9505 -0.1772  0.4610
16826TIP3    H171893   5.254   3.962  12.826  0.7692  1.2292 -1.9283
16826TIP3    H271894   5.146   3.944  12.722 -2.2198 -0.0894  1.1854
16827TIP3   OH271895   0.823   2.534  12.856  0.1835  0.2626  0.2220
16827TIP3    H171896   0.901   2.543  12.802  0.6962 -0.8559  0.7345
16827TIP3    H271897   0.788   2.448  12.834  1.0640 -0.7577  2.4247
16828TIP3   OH271898   2.248   6.505  16.446 -0.3280 -0.5859  0.0789
16828TIP3    H171899   2.259   6.516  16.541  0.2334 -2.5738  0.2851
16828TIP3    H271900   2.217   6.591  16.416  1.8298  0.8902  1.6827
16829TIP3   OH271901   4.994   5.191  11.649  0.0003 -0.2231  0.6236
16829TIP3    H171902   4.904   5.161  11.638 -0.0114  0.7110 -3.2238
16829TIP3    H271903   4.986   5.283  11.671 -0.0831  0.2817 -1.3419
16830TIP3   OH271904   4.263   0.860  16.052  0.8460 -0.0401 -0.3191
16830TIP3    H171905   4.174   0.891  16.035  0.3217 -1.4479 -0.2906
16830TIP3    H271906   4.286   0.810  15.973  1.1809 -0.6049  0.1310
16831TIP3   OH271907   1.734   3.692   0.881 -0.5739  0.2607  0.3507
16831TIP3    H171908   1.804   3.648   0.930 -0.5789 -0.3093 -0.1410
16831TIP3    H271909   1.748   3.664   0.790 -0.1698  1.7933 -0.0979
16832TIP3   OH271910   1.123   0.255   1.602  0.0248 -0.2183  0.2225
16832TIP3    H171911   1.093   0.226   1.515  1.9963 -0.8337 -0.3089
16832TIP3    H271912   1.157   0.175   1.643  0.7684  0.4091  0.8448
16833TIP3   OH271913   0.483   1.867  14.254  0.0814 -0.4640 -0.0691
16833TIP3    H171914   0.549   1.889  14.189  1.5652 -0.6844  1.2816
16833TIP3    H271915   0.449   1.951  14.284  2.1956 -0.1184  1.5760
16834TIP3   OH271916   6.151   1.973   5.120  0.7932  0.0647  0.2658
16834TIP3    H171917   6.137   2.067   5.118  1.5384  0.1785  0.1181
16834TIP3    H271918   6.151   1.946   5.029  1.4984  0.0732  0.2547
16835TIP3   OH271919   5.400   6.559   1.558  0.4518 -0.2160  0.0642
16835TIP3    H171920   5.370   6.647   1.537  2.3021  0.4065 -0.1032
16835TIP3    H271921   5.364   6.542   1.645  0.6130  0.9611  0.3762
16836TIP3   OH271922   2.824   1.063  16.053 -0.1033  0.2655  0.1261
16836TIP3    H171923   2.745   1.010  16.050  0.4385 -0.5117 -1.0181
16836TIP3    H271924   2.847   1.079  15.961  1.1874  0.2818  0.4232
16837TIP3   OH271925   5.723   4.389  10.561  0.4195  0.0971  0.1067
16837TIP3    H171926   5.678   4.458  10.512 -0.3548  0.4517  1.2509
16837TIP3    H271927   5.758   4.434  10.638 -1.7596 -1.0436  1.8783
16838TIP3   OH271928   4.825   3.113  14.000 -0.3747 -0.7317 -0.2327
16838TIP3    H171929   4.801   3.054  14.071 -1.4027  0.4338  0.4399
16838TIP3    H271930   4.885   3.063  13.946 -1.3520 -2.4409  0.2035
16839TIP3   OH271931   2.400   0.510  12.991 -0.0244 -0.1273  0.1264
16839TIP3    H171932   2.446   0.544  12.914  1.3964  0.6039  1.2305
16839TIP3    H271933   2.310   0.499  12.963  0.5394 -0.3061 -1.7604
16840TIP3   OH271934   5.561   0.734  15.701  0.2174 -0.0937  0.3254
16840TIP3    H171935   5.510   0.776  15.631  2.1749  1.8486 -0.0128
16840TIP3    H271936   5.596   0.655  15.660 -0.7788 -0.3684 -0.0475
16841TIP3   OH271937   2.972   2.157   4.204 -0.4955  0.3216 -0.0896
16841TIP3    H171938   2.927   2.202   4.132 -1.1757  0.6275  0.5097
16841TIP3    H271939   3.010   2.228   4.256  1.0026  0.0502 -0.7768
16842TIP3   OH271940   1.964   4.727   3.710 -0.6134  0.3070  0.5794
16842TIP3    H171941   1.974   4.633   3.697 -0.4336  0.4301 -0.2246
16842TIP3    H271942   1.972   4.739   3.805 -0.9608 -0.5179  0.7186
16843TIP3   OH271943   4.894   1.292  13.260 -0.5686 -0.0885 -0.1465
16843TIP3    H171944   4.812   1.249  13.285  0.5360 -1.5519  1.1345
16843TIP3    H271945   4.961   1.224  13.269  1.3703  1.9333  2.4768
16844TIP3   OH271946   2.408   6.652   0.541  0.0655  0.1078  0.3188
16844TIP3    H171947   2.329   6.601   0.522 -0.4610  1.0006  0.0779
16844TIP3    H271948   2.480   6.589   0.531 -0.6262 -0.7835  0.8149
16845TIP3   OH271949   5.178   2.352  11.773  0.3878  0.1229 -0.3995
16845TIP3    H171950   5.266   2.337  11.809 -0.0680 -0.6167  0.4548
16845TIP3    H271951   5.192   2.363  11.679  1.3966  0.0580 -0.2734
16846TIP3   OH271952   5.645   6.318  11.103 -0.2111 -0.1543 -0.2969
16846TIP3    H171953   5.597   6.341  11.023  0.3279  0.4760 -0.4525
16846TIP3    H271954   5.736   6.313  11.074 -0.2551 -2.1748 -0.1931
16847TIP3   OH271955   1.445   6.261   4.638  0.2932  0.2659  0.4834
16847TIP3    H171956   1.401   6.300   4.714  2.2714  0.9209  1.3631
16847TIP3    H271957   1.525   6.222   4.674  2.2914  2.2573 -1.4574
16848TIP3   OH271958   3.675   3.289  11.310  0.8550 -0.4947  0.2819
16848TIP3    H171959   3.671   3.252  11.222 -0.7247  0.7184 -0.2095
16848TIP3    H271960   3.585   3.313  11.330  1.1918 -0.7058  2.2281
16849TIP3   OH271961   3.782   2.696  13.250 -0.0633 -0.4601  0.4001
16849TIP3    H171962   3.822   2.642  13.181 -0.6737 -0.8986  0.3866
16849TIP3    H271963   3.695   2.718  13.216  0.5812  1.5490 -0.1349
16850TIP3   OH271964   1.422   6.459  14.740  0.0677 -0.2056  0.6119
16850TIP3    H171965   1.396   6.456  14.832  0.8053 -0.9112  0.8133
16850TIP3    H271966   1.497   6.518  14.738  0.7806 -1.0878  0.6698
16851TIP3   OH271967   5.261   5.517  10.919 -0.4086 -0.3183 -0.3792
16851TIP3    H171968   5.197   5.451  10.894  0.8055 -2.3228  1.4598
16851TIP3    H271969   5.215   5.600  10.909 -2.5278 -1.5090 -1.2361
16852TIP3   OH271970   2.374   3.426   4.171  0.0733 -0.4711 -0.2665
16852TIP3    H171971   2.318   3.446   4.096  0.2836 -0.4703 -0.4236
16852TIP3    H271972   2.360   3.333   4.188  0.4198 -0.5886 -0.6313
16853TIP3   OH271973   0.281   4.512  12.762 -0.0555  0.2323 -0.3302
16853TIP3    H171974   0.234   4.469  12.691 -0.1641  2.0218 -1.3970
16853TIP3    H271975   0.370   4.522  12.730 -0.4301  2.2894 -0.8295
16854TIP3   OH271976   4.421   2.469  16.204 -0.5438  0.3229 -0.3738
16854TIP3    H171977   4.511   2.472  16.234  1.1619  1.6635 -4.7739
16854TIP3    H271978   4.374   2.528  16.263  1.4693 -0.0533  1.7481
16855TIP3   OH271979   5.644   1.960   5.561  0.1651  0.6706 -0.4444
16855TIP3    H171980   5.716   1.925   5.508 -0.4775  0.5779 -1.2857
16855TIP3    H271981   5.667   1.938   5.651  1.0515  0.4014 -0.7306
16856TIP3   OH271982   4.817   1.659  14.592 -0.1142  0.4678  0.4876
16856TIP3    H171983   4.815   1.570  14.627  1.2363  0.3079  0.1979
16856TIP3    H271984   4.771   1.712  14.657 -3.3340 -0.7936 -0.5489
16857TIP3   OH271985   4.405   6.334  16.397  0.4310  0.0790 -0.3518
16857TIP3    H171986   4.427   6.393  16.469 -0.8821  1.7010 -1.2009
16857TIP3    H271987   4.409   6.247  16.435 -2.7952  0.9501  2.4881
16858TIP3   OH271988   4.604   4.971  15.842  0.5115 -0.8438 -0.6070
16858TIP3    H171989   4.519   4.929  15.830  0.3919 -0.7674 -0.0785
16858TIP3    H271990   4.628   5.004  15.755 -0.0660 -0.7454 -0.7323
16859TIP3   OH271991   3.276   1.518   3.979  0.5483 -0.0534  0.4058
16859TIP3    H171992   3.286   1.545   3.887 -0.8446  2.0556  0.8023
16859TIP3    H271993   3.216   1.444   3.975 -0.9224  1.1053 -0.3274
16860TIP3   OH271994   0.477   2.236   0.206  0.5457  0.2491  0.1391
16860TIP3    H171995   0.487   2.236   0.301  0.5546 -1.2602  0.1677
16860TIP3    H271996   0.384   2.250   0.191  0.6343  1.0714  0.3465
16861TIP3   OH271997   1.841   4.540   2.038  0.7748 -0.6327 -0.2010
16861TIP3    H171998   1.899   4.614   2.057  0.8195 -1.2241  2.3135
16861TIP3    H271999   1.898   4.463   2.043  0.1677 -1.0580  0.2562
16862TIP3   OH272000   6.591   1.652   3.680  0.0699 -0.0695 -0.0552
16862TIP3    H172001   6.497   1.635   3.682  0.1976 -0.8247 -0.0898
16862TIP3    H272002   6.631   1.575   3.721  0.6756  0.2298 -0.0597
16863TIP3   OH272003   2.470   0.687   1.639 -0.6217 -0.2280 -0.4603
16863TIP3    H172004   2.399   0.718   1.583 -0.1462  1.5498 -0.1144
16863TIP3    H272005   2.434   0.693   1.728 -0.0017  0.8459 -0.2701
16864TIP3   OH272006   2.404   3.578   3.601  0.4630  0.7753  0.4703
16864TIP3    H172007   2.417   3.617   3.687  1.5493 -0.6080  0.9706
16864TIP3    H272008   2.405   3.484   3.616 -2.1769  0.4766 -0.6982
16865TIP3   OH272009   0.684   6.731   0.997  0.0754  0.0189 -0.2377
16865TIP3    H172010   0.756   6.719   0.935 -0.0872  2.9854 -1.1185
16865TIP3    H272011   0.703   6.670   1.068  2.5372 -0.4683 -1.2357
16866TIP3   OH272012   4.528   5.357  13.611  0.0130  0.1727 -0.0163
16866TIP3    H172013   4.547   5.301  13.535 -2.9542  0.2199 -0.9537
16866TIP3    H272014   4.588   5.327  13.679  2.1052 -0.5607 -2.0430
16867TIP3   OH272015   4.844   5.714  17.158 -0.1342 -0.1797  0.0677
16867TIP3    H172016   4.915   5.748  17.211 -0.6455 -0.1960  0.7714
16867TIP3    H272017   4.777   5.687  17.221  0.1128 -2.1916 -0.4626
16868TIP3   OH272018   1.864   6.708  15.142  0.4825  0.2254  0.0391
16868TIP3    H172019   1.929   6.679  15.206 -1.4326 -1.3324  1.4041
16868TIP3    H272020   1.864   6.803  15.149  3.2852  0.3900 -0.7866
16869TIP3   OH272021   4.517   1.510  11.913 -0.6076 -0.0683 -0.0773
16869TIP3    H172022   4.432   1.468  11.924 -0.0419 -1.5105 -0.8683
16869TIP3    H272023   4.506   1.569  11.838 -0.8146 -0.5390 -0.4200
16870TIP3   OH272024   3.554   4.090   4.498 -0.1844  0.3384 -0.6828
16870TIP3    H172025   3.604   4.165   4.528 -0.6220  0.8942 -1.3038
16870TIP3    H272026   3.473   4.092   4.549 -0.2547  0.3726 -0.7940
16871TIP3   OH272027   3.544   0.156  16.993  0.3762 -0.1635 -0.3322
16871TIP3    H172028   3.557   0.185  17.083 -0.3585  1.3485 -0.6899
16871TIP3    H272029   3.520   0.064  17.001 -2.8489  0.6720  1.2961
16872TIP3   OH272030   6.178   1.823  16.274  0.1786  0.2413  0.3539
16872TIP3    H172031   6.093   1.852  16.241  0.7750 -1.0977 -2.6507
16872TIP3    H272032   6.160   1.741  16.320 -0.0921 -0.5558 -1.1192
16873TIP3   OH272033   6.034   2.304  16.060  0.3624 -0.0557 -0.1289
16873TIP3    H172034   5.967   2.299  16.128  1.5188 -0.5918  1.0351
16873TIP3    H272035   5.989   2.283  15.979 -1.2910  1.6372  0.2914
16874TIP3   OH272036   3.183   1.439  12.209  0.1736 -0.1138 -0.5219
16874TIP3    H172037   3.141   1.364  12.252  1.4543 -0.9120 -0.6014
16874TIP3    H272038   3.175   1.510  12.273  1.2394 -1.0322  0.7056
16875TIP3   OH272039   1.677   4.876   0.118 -0.4139  0.6555 -0.4721
16875TIP3    H172040   1.586   4.847   0.112 -0.2586 -1.2001  3.3040
16875TIP3    H272041   1.672   4.963   0.158 -0.5172  0.8054 -0.8057
16876TIP3   OH272042   4.057   2.723   5.105 -0.6117 -0.2700  0.2501
16876TIP3    H172043   4.104   2.675   5.036 -0.9657  2.5399 -2.1679
16876TIP3    H272044   3.984   2.765   5.059 -0.4706  2.3170  2.1723
16877TIP3   OH272045   4.268   2.407   3.139  0.1416 -0.1734  0.2208
16877TIP3    H172046   4.354   2.364   3.136  0.1780 -0.2080  1.2509
16877TIP3    H272047   4.241   2.399   3.231 -0.6900  0.3773  0.0343
16878TIP3   OH272048   5.930   2.629  15.786  0.3805  0.3616  0.1379
16878TIP3    H172049   5.987   2.700  15.757 -1.3535  1.8587  0.2001
16878TIP3    H272050   5.895   2.660  15.870 -1.2767 -0.0419 -0.3769
16879TIP3   OH272051   2.517   1.287  14.510 -0.6637  0.1132  0.5513
16879TIP3    H172052   2.501   1.241  14.592 -1.0915 -1.8315 -0.5618
16879TIP3    H272053   2.430   1.305  14.475 -0.5083 -1.0518 -0.4970
16880TIP3   OH272054   6.338   2.812  15.812 -0.0777  0.2489  0.2945
16880TIP3    H172055   6.319   2.744  15.747 -1.0958  0.5716  0.2282
16880TIP3    H272056   6.433   2.809  15.824 -0.0028 -0.5264 -0.4264
16881TIP3   OH272057   2.738   1.667   4.712 -0.4475  0.1352  0.4432
16881TIP3    H172058   2.743   1.761   4.732 -0.2776  0.3516 -0.5374
16881TIP3    H272059   2.748   1.624   4.796  1.4364  0.9615  0.7144
16882TIP3   OH272060   0.080   1.573  14.130  0.4767 -0.4804  0.9049
16882TIP3    H172061   0.030   1.565  14.211 -0.3174  0.9684  0.5953
16882TIP3    H272062   0.161   1.618  14.156 -0.3930  1.2823  0.7135
16883TIP3   OH272063   1.783   6.111   5.029 -0.0895  0.2316  0.5259
16883TIP3    H172064   1.872   6.115   5.064 -0.7563  0.4165  2.2994
16883TIP3    H272065   1.748   6.199   5.043 -0.9411 -0.1643  0.9608
16884TIP3   OH272066   6.701   6.755  12.381 -0.2391 -0.1646 -0.2853
16884TIP3    H172067   6.767   6.793  12.323 -0.6559  1.0377 -0.0127
16884TIP3    H272068   6.644   6.704  12.323  1.2865 -1.7790 -0.4246
16885TIP3   OH272069   3.208   4.190  14.773  0.5897  0.6180 -0.4796
16885TIP3    H172070   3.205   4.270  14.825 -0.9349  0.4415 -0.2741
16885TIP3    H272071   3.286   4.144  14.805  1.8381  2.2505 -0.9973
16886TIP3   OH272072   5.749   2.643   0.205 -0.0155 -0.1381  0.7736
16886TIP3    H172073   5.741   2.571   0.267  0.8108  0.7031  1.8851
16886TIP3    H272074   5.780   2.717   0.257 -0.9897  1.0840 -0.3029
16887TIP3   OH272075   4.458   4.352   2.322  0.2964 -0.4361 -0.7275
16887TIP3    H172076   4.369   4.326   2.296 -1.1991  3.7779 -0.6479
16887TIP3    H272077   4.478   4.296   2.397 -2.3225 -1.4880 -0.6907
16888TIP3   OH272078   2.908   3.392   0.663 -0.1304  0.0326 -0.1805
16888TIP3    H172079   2.873   3.318   0.714  1.8446 -0.9329 -0.1261
16888TIP3    H272080   2.969   3.435   0.723 -0.2313  0.8800 -0.6747
16889TIP3   OH272081   4.084   5.797  12.403 -0.0158 -0.2243  0.3299
16889TIP3    H172082   4.150   5.768  12.339 -0.1749  1.4239 -0.6492
16889TIP3    H272083   4.118   5.767  12.487  2.3133  1.0336 -0.0708
16890TIP3   OH272084   4.915   2.395  11.673  0.1391 -0.2204 -0.3844
16890TIP3    H172085   5.003   2.359  11.662  1.7775  2.6539  1.9467
16890TIP3    H272086   4.886   2.416  11.584  2.1266 -0.5848 -1.1632
16891TIP3   OH272087   4.511   6.760   6.412  0.5416 -0.7596 -0.0880
16891TIP3    H172088   4.418   6.750   6.431  0.8780 -1.6653  1.2625
16891TIP3    H272089   4.527   6.854   6.420 -0.4665 -0.4419 -1.5246
16892TIP3   OH272090   2.655   5.902   3.998 -0.6902  0.1750  0.4037
16892TIP3    H172091   2.713   5.925   3.925 -1.3308  2.7420  0.6223
16892TIP3    H272092   2.715   5.880   4.070 -0.0311 -0.0714 -0.2093
16893TIP3   OH272093   4.665   3.030   2.775 -0.5720 -0.1127 -0.1477
16893TIP3    H172094   4.726   3.098   2.748 -0.7111 -0.5658 -1.6882
16893TIP3    H272095   4.580   3.074   2.779 -0.3156  0.3001  1.0723
16894TIP3   OH272096   6.069   4.879  14.621  0.9605 -0.7136 -0.0798
16894TIP3    H172097   6.007   4.892  14.550  0.5802  1.0680  0.5138
16894TIP3    H272098   6.154   4.902  14.583  0.8395 -0.3224 -0.1154
16895TIP3   OH272099   2.378   2.601   6.685 -0.0502 -0.0917 -0.1836
16895TIP3    H172100   2.408   2.655   6.612  0.2816  1.0133  0.7387
16895TIP3    H272101   2.300   2.647   6.718  1.2268  0.8670  1.7113
16896TIP3   OH272102   0.745   5.584   2.377  0.0321 -0.1652  0.4853
16896TIP3    H172103   0.772   5.672   2.403 -3.0410  1.0768 -0.0931
16896TIP3    H272104   0.650   5.590   2.368 -0.2204 -3.4330 -0.1223
16897TIP3   OH272105   6.749   4.021  13.483 -0.4596 -0.2332 -0.6493
16897TIP3    H172106   6.708   3.935  13.483  1.7614 -1.4129  1.0686
16897TIP3    H272107   6.690   4.076  13.533 -1.4363 -1.0326 -0.8972
16898TIP3   OH272108   1.503   5.189  12.165 -0.2600  0.3125  0.1814
16898TIP3    H172109   1.469   5.121  12.223 -2.6313 -0.4746 -1.9119
16898TIP3    H272110   1.490   5.154  12.077  0.2187  2.6869 -0.9178
16899TIP3   OH272111   1.012   1.818  13.199 -0.6978  0.2882 -0.0845
16899TIP3    H172112   0.921   1.816  13.227 -0.3901  0.4305  0.9721
16899TIP3    H272113   1.025   1.736  13.151 -1.7663  0.9348 -1.5557
16900TIP3   OH272114   1.298   5.895  16.896  0.2202  0.3415  0.1682
16900TIP3    H172115   1.247   5.953  16.954 -0.1567  0.3991 -0.2129
16900TIP3    H272116   1.232   5.840  16.855  0.5353 -0.0112  0.1390
16901TIP3   OH272117   6.047   4.534  11.839 -0.5097 -0.9996  0.0197
16901TIP3    H172118   6.078   4.511  11.751  0.8961 -1.2990  0.5529
16901TIP3    H272119   6.055   4.452  11.889  1.5200 -0.1866  1.1401
16902TIP3   OH272120   0.175   4.133   0.824 -0.1542 -0.1058 -0.2687
16902TIP3    H172121   0.145   4.054   0.778 -1.4567  0.4213 -0.3577
16902TIP3    H272122   0.132   4.205   0.778 -1.5763  0.4470  1.7868
16903TIP3   OH272123   6.437   3.128  13.949  0.0730 -0.3661 -0.4031
16903TIP3    H172124   6.363   3.084  13.907 -1.0274  0.1378  0.9475
16903TIP3    H272125   6.457   3.073  14.025  0.7360 -0.1923 -0.4447
16904TIP3   OH272126   1.032   6.755   3.242 -0.1998  0.0939 -0.3475
16904TIP3    H172127   0.983   6.687   3.288 -0.3986  0.3978 -0.1089
16904TIP3    H272128   1.124   6.729   3.252 -0.3046 -0.5455 -0.9037
16905TIP3   OH272129   3.522   5.124  13.584  0.3677  0.2044  0.4239
16905TIP3    H172130   3.440   5.168  13.604 -0.2075  0.0158 -1.3354
16905TIP3    H272131   3.553   5.091  13.668 -0.5747  1.5701  1.3556
16906TIP3   OH272132   1.790   2.853   5.352 -0.3677  0.2085 -0.4322
16906TIP3    H172133   1.819   2.905   5.427 -0.5725  1.1054 -0.9467
16906TIP3    H272134   1.825   2.766   5.367  0.6814  0.7016  0.0628
16907TIP3   OH272135   5.605   1.099   2.749 -0.0332  0.2220  0.2249
16907TIP3    H172136   5.665   1.095   2.824  0.3634 -1.3399 -0.1436
16907TIP3    H272137   5.518   1.090   2.788  0.2853 -3.4221  0.3736
16908TIP3   OH272138   4.011   4.030   5.532  0.2628  0.0661  0.1665
16908TIP3    H172139   3.919   4.052   5.516 -0.2495 -0.8837  1.6049
16908TIP3    H272140   4.053   4.115   5.549 -0.7209  0.3780  1.1886
16909TIP3   OH272141   5.669   2.166  15.646 -0.6728 -0.3919 -0.1387
16909TIP3    H172142   5.592   2.122  15.682  0.4626 -2.2018  0.1935
16909TIP3    H272143   5.709   2.208  15.722 -1.1338  0.3022 -0.2631
16910TIP3   OH272144   1.403   5.943   2.156 -0.0100  0.2444  0.0546
16910TIP3    H172145   1.347   5.865   2.160  1.1905 -0.6085  0.6399
16910TIP3    H272146   1.347   6.014   2.186 -1.2709 -0.2850 -0.9223
16911TIP3   OH272147   6.238   5.588   3.630  0.1789  0.3786  0.3648
16911TIP3    H172148   6.243   5.672   3.676 -0.6112  0.3912  0.4409
16911TIP3    H272149   6.239   5.612   3.537 -1.3166  0.5878  0.3693
16912TIP3   OH272150   5.090   2.710   1.200  0.1064 -0.3451 -0.0008
16912TIP3    H172151   5.115   2.679   1.113  1.7673 -1.7135  0.9051
16912TIP3    H272152   5.058   2.799   1.186  0.3619 -0.5325 -1.9892
16913TIP3   OH272153   0.003   3.902   0.647  0.1420 -0.0043 -0.3153
16913TIP3    H172154   0.024   3.809   0.655  0.0960  0.0116  0.0072
16913TIP3    H272155   0.067   3.936   0.585  0.9733  0.0091  0.5300
16914TIP3   OH272156   1.000   1.718  13.626 -0.2274  0.2007  0.3542
16914TIP3    H172157   1.047   1.679  13.699  1.2924  1.6130  0.1946
16914TIP3    H272158   0.909   1.725  13.656  0.6033  2.0617  2.7147
16915TIP3   OH272159   2.993   0.985  15.560  0.4623  0.1892 -0.1696
16915TIP3    H172160   2.913   0.982  15.508  0.1076  1.0576  0.3068
16915TIP3    H272161   3.034   1.068  15.537  0.5678  0.3408  0.5387
16916TIP3   OH272162   3.341   4.876   2.625 -0.2316 -0.4115  0.1957
16916TIP3    H172163   3.375   4.957   2.662 -0.7335 -0.5859  1.0810
16916TIP3    H272164   3.261   4.902   2.578 -0.6107 -0.4408  0.8154
16917TIP3   OH272165   1.412   3.572  13.208 -0.1735  0.2137  0.2994
16917TIP3    H172166   1.499   3.604  13.234 -0.4232  2.0793 -1.0682
16917TIP3    H272167   1.354   3.647  13.217 -1.4141 -0.6651 -0.0585
16918TIP3   OH272168   4.811   6.476  14.155  0.2073 -0.0671  0.3236
16918TIP3    H172169   4.758   6.471  14.075 -1.4162  2.3254  1.1499
16918TIP3    H272170   4.756   6.439  14.223  0.2966  0.7567  0.8649
16919TIP3   OH272171   2.532   4.793  15.705 -0.5164  0.0748  0.4488
16919TIP3    H172172   2.466   4.856  15.680 -0.2735 -0.2579 -1.1003
16919TIP3    H272173   2.601   4.802  15.639 -0.8753 -2.3975 -0.3649
16920TIP3   OH272174   2.057   2.841   4.588 -0.2431 -0.4572 -0.1967
16920TIP3    H172175   1.973   2.824   4.546 -0.7181  1.1863 -0.0018
16920TIP3    H272176   2.093   2.916   4.539  1.0422 -1.0377 -0.1792
16921TIP3   OH272177   6.052   4.719   2.460 -0.1615  0.6354 -1.0564
16921TIP3    H172178   5.992   4.647   2.479  1.7652 -0.4166  1.5130
16921TIP3    H272179   6.034   4.741   2.368 -3.8363 -0.1349 -0.6827
16922TIP3   OH272180   6.622   4.597  16.260 -0.3433  0.1778 -0.7631
16922TIP3    H172181   6.658   4.667  16.314 -1.4379 -0.8638  1.4470
16922TIP3    H272182   6.699   4.553  16.223  0.7077 -0.8544  2.3577
16923TIP3   OH272183   0.069   6.296  12.735 -0.5698  0.0554  0.4594
16923TIP3    H172184   0.164   6.300  12.745 -0.6555 -1.9262  2.7163
16923TIP3    H272185   0.038   6.376  12.777 -0.0017 -0.4458  1.8866
16924TIP3   OH272186   4.447   0.745   2.887 -0.5666 -0.3506  0.8801
16924TIP3    H172187   4.526   0.698   2.862 -0.3551 -0.4974  1.7985
16924TIP3    H272188   4.428   0.802   2.812  1.1696  0.6834  1.1762
16925TIP3   OH272189   1.406   0.791   0.539 -0.2477  0.2859 -0.3454
16925TIP3    H172190   1.458   0.859   0.582 -0.8594  1.0225 -0.7320
16925TIP3    H272191   1.333   0.839   0.498 -0.9296 -0.6460 -0.2692
16926TIP3   OH272192   4.768   3.852  12.587  0.5533  0.2068 -0.1136
16926TIP3    H172193   4.758   3.865  12.681  0.7103 -0.2415 -0.0319
16926TIP3    H272194   4.782   3.940  12.552  0.0681  0.4206  0.2279
16927TIP3   OH272195   6.113   3.087   5.109 -0.1903  0.7038 -0.2268
16927TIP3    H172196   6.063   3.162   5.138  0.0252  0.9694 -0.5340
16927TIP3    H272197   6.179   3.074   5.178 -1.2413 -0.2137  0.6346
16928TIP3   OH272198   3.559   1.024   0.894 -0.2156 -0.2441  0.3950
16928TIP3    H172199   3.541   1.057   0.983 -2.2976 -1.3307  0.4329
16928TIP3    H272200   3.653   1.037   0.883  0.0252  0.3712  2.5788
16929TIP3   OH272201   0.295   4.298   2.825 -0.2199  0.3241 -0.1751
16929TIP3    H172202   0.260   4.217   2.863 -0.1876  1.1210  1.6983
16929TIP3    H272203   0.383   4.305   2.861 -0.4589  1.4978  0.2479
16930TIP3   OH272204   0.343   5.009   3.657 -0.0090 -0.8705  0.2674
16930TIP3    H172205   0.373   4.930   3.701  1.4314 -1.1392 -1.1379
16930TIP3    H272206   0.340   4.986   3.564 -1.4255  0.1655  0.0093
16931TIP3   OH272207   0.431   1.215  12.598 -0.0984  0.0528 -0.4227
16931TIP3    H172208   0.404   1.232  12.688 -2.2274 -0.4303 -0.9029
16931TIP3    H272209   0.504   1.154  12.606 -0.6216 -0.4304  0.9681
16932TIP3   OH272210   4.631   6.754  12.543 -0.0403 -0.2498  0.8510
16932TIP3    H172211   4.581   6.832  12.566 -0.3002 -0.8076  2.3130
16932TIP3    H272212   4.708   6.758  12.599  1.3750  0.3321 -1.0105
16933TIP3   OH272213   5.138   4.726   5.245 -0.1809  0.6071 -0.2168
16933TIP3    H172214   5.144   4.665   5.171 -0.5033  1.5403 -1.0234
16933TIP3    H272215   5.136   4.669   5.322 -2.0273 -0.5104 -1.0122
16934TIP3   OH272216   0.707   6.247  12.756  0.6816  0.6302  0.6184
16934TIP3    H172217   0.750   6.287  12.680 -1.5405  0.6708 -0.7052
16934TIP3    H272218   0.651   6.317  12.791  1.5837  0.5819  2.3041
16935TIP3   OH272219   2.328   1.413  12.790 -0.2593 -0.1939 -0.2339
16935TIP3    H172220   2.373   1.329  12.795  0.1319  0.0269 -0.0051
16935TIP3    H272221   2.370   1.459  12.718  2.0365  1.2393  1.8405
16936TIP3   OH272222   5.426   5.345   3.426  0.1673 -0.0705  0.0985
16936TIP3    H172223   5.376   5.403   3.368 -2.1205 -3.4347 -1.5859
16936TIP3    H272224   5.371   5.333   3.502 -0.1562 -1.2262 -0.2947
16937TIP3   OH272225   4.266   2.210  13.789  0.6049 -0.0853  0.2724
16937TIP3    H172226   4.286   2.291  13.742  0.2646  0.0631  0.3802
16937TIP3    H272227   4.173   2.195  13.771  0.4842 -0.0515  0.8616
16938TIP3   OH272228   2.053   2.030   5.863  0.2112  0.0638 -0.3626
16938TIP3    H172229   2.003   2.032   5.945  1.5647  2.7016  0.4981
16938TIP3    H272230   2.144   2.038   5.891  0.6530  1.8704 -2.1199
16939TIP3   OH272231   0.701   3.721   4.555  0.1551  0.2370  0.0639
16939TIP3    H172232   0.792   3.703   4.577  0.4800  1.6474 -0.0133
16939TIP3    H272233   0.684   3.668   4.477  0.8277 -0.2079  0.2124
16940TIP3   OH272234   2.069   2.482   3.568 -0.0274  0.1121  0.1861
16940TIP3    H172235   2.103   2.538   3.637  0.7325  0.6448 -0.6050
16940TIP3    H272236   2.014   2.418   3.614 -0.6527  1.2990  1.1297
16941TIP3   OH272237   1.375   3.591  16.319 -0.8506 -0.1248 -0.1854
16941TIP3    H172238   1.421   3.644  16.255 -2.1240 -0.2903 -1.2840
16941TIP3    H272239   1.410   3.503  16.307  1.4558  0.4226  1.8241
16942TIP3   OH272240   3.400   2.499  14.560 -0.0360  0.5101 -0.4785
16942TIP3    H172241   3.430   2.587  14.583  0.9432 -0.1898  1.1776
16942TIP3    H272242   3.468   2.465  14.503  0.2487  0.3823 -0.0683
16943TIP3   OH272243   3.308   2.842  14.680 -0.3606  0.4309 -0.2042
16943TIP3    H172244   3.258   2.832  14.599 -0.7348 -2.1059  0.2439
16943TIP3    H272245   3.391   2.799  14.662 -0.4320 -0.1224  0.7087
16944TIP3   OH272246   2.643   0.622  15.962  0.1599  0.1541  0.2154
16944TIP3    H172247   2.573   0.582  15.910 -0.1022  0.6983  0.1523
16944TIP3    H272248   2.724   0.591  15.920 -0.0431 -0.0926  0.0013
16945TIP3   OH272249   6.527   4.497   5.092  0.1918 -0.1952  0.2921
16945TIP3    H172250   6.459   4.432   5.071  0.1166 -0.2489  0.6898
16945TIP3    H272251   6.488   4.549   5.162  0.2012  0.3663 -0.1156
16946TIP3   OH272252   1.660   5.876  15.829  0.0453  1.0449 -0.0052
16946TIP3    H172253   1.601   5.912  15.763 -1.5074  1.5105  1.5598
16946TIP3    H272254   1.621   5.791  15.853  1.7872 -0.1506 -1.1865
16947TIP3   OH272255   1.916   1.057   6.084  0.2826  0.4278  0.3015
16947TIP3    H172256   1.982   1.071   6.152  0.6952 -0.2798  0.0655
16947TIP3    H272257   1.941   0.973   6.043 -0.7537  0.1544  0.1907
16948TIP3   OH272258   0.697   2.533   1.406 -0.0965 -0.1667  0.0751
16948TIP3    H172259   0.621   2.536   1.464 -0.0119 -1.2097  0.2584
16948TIP3    H272260   0.769   2.566   1.459 -0.2861  0.1920  0.1137
16949TIP3   OH272261   3.927   3.808   6.700  0.4229 -0.0058 -0.0855
16949TIP3    H172262   3.974   3.792   6.618  0.8263  0.2349  0.0927
16949TIP3    H272263   3.996   3.808   6.767  0.1465  0.2070  0.2006
16950TIP3   OH272264   1.889   4.112  15.292 -0.4343 -0.6121  0.3944
16950TIP3    H172265   1.895   4.125  15.198 -0.1470  0.7751  0.5827
16950TIP3    H272266   1.955   4.046  15.312  0.6176  0.2339 -0.1764
16951TIP3   OH272267   5.235   6.271   0.793 -0.1351 -0.1523  0.2130
16951TIP3    H172268   5.323   6.307   0.801  0.1441 -0.9184  0.8099
16951TIP3    H272269   5.204   6.301   0.708  1.4660 -1.4713 -0.8996
16952TIP3   OH272270   5.676   1.385  16.592 -0.0682  0.7671  0.1767
16952TIP3    H172271   5.686   1.380  16.687 -0.3086  0.7426  0.2023
16952TIP3    H272272   5.584   1.410  16.579 -0.3515 -0.3248 -0.0698
16953TIP3   OH272273   2.520   2.122   3.889  0.4234 -0.3742  0.4298
16953TIP3    H172274   2.549   2.202   3.846  0.2793 -0.6638 -0.2109
16953TIP3    H272275   2.596   2.063   3.882  0.6102 -0.2179  1.1009
16954TIP3   OH272276   1.038   1.071   1.846  0.1449 -0.3406 -0.0054
16954TIP3    H172277   1.034   1.165   1.863  0.9939 -0.3458  0.2311
16954TIP3    H272278   0.983   1.059   1.769 -0.3646  0.2761  0.2481
16955TIP3   OH272279   2.990   4.474  12.361  0.0472  0.1877 -0.5781
16955TIP3    H172280   3.018   4.459  12.451 -1.3995  1.5376  0.1399
16955TIP3    H272281   2.919   4.411  12.347 -2.5470  2.5999  0.7114
16956TIP3   OH272282   2.468   3.074   5.306 -0.3603 -0.0036  0.2683
16956TIP3    H172283   2.411   3.084   5.230 -0.6985  1.5794  0.6809
16956TIP3    H272284   2.426   3.006   5.359  0.0061 -1.2873 -1.0367
16957TIP3   OH272285   1.517   3.622  11.237  0.4621  0.0795  0.2509
16957TIP3    H172286   1.446   3.659  11.184  0.3673 -0.8921 -0.3286
16957TIP3    H272287   1.597   3.646  11.190  0.5973  1.6881  1.2164
16958TIP3   OH272288   6.658   1.406   0.135  0.5169 -0.7616 -0.0928
16958TIP3    H172289   6.665   1.501   0.125 -0.5218 -0.4542  1.6685
16958TIP3    H272290   6.646   1.374   0.045  2.0212  0.6194 -0.8509
16959TIP3   OH272291   2.462   5.743   1.081  0.0855 -0.0411  0.4022
16959TIP3    H172292   2.495   5.758   0.992 -0.9740  0.0612  0.0084
16959TIP3    H272293   2.431   5.828   1.111 -0.1949 -0.2077  0.5966
16960TIP3   OH272294   4.636   2.641  16.299  0.7986 -0.6784  0.2361
16960TIP3    H172295   4.600   2.724  16.331 -1.8767 -1.5260 -0.3473
16960TIP3    H272296   4.710   2.666  16.243 -1.3468  1.5244 -1.8182
16961TIP3   OH272297   1.570   5.457   4.675  0.1200  0.2341  0.4811
16961TIP3    H172298   1.547   5.372   4.711  1.4107  0.5647  2.2198
16961TIP3    H272299   1.531   5.520   4.736  0.9925  0.8313  0.4457
16962TIP3   OH272300   4.330   4.917   2.479  0.5006  0.2276 -0.0096
16962TIP3    H172301   4.241   4.889   2.500 -0.1468  2.0215 -0.1761
16962TIP3    H272302   4.355   4.861   2.405  0.4199 -1.8455  1.4700
16963TIP3   OH272303   5.311   4.117  12.150 -0.2512 -0.5783  0.0776
16963TIP3    H172304   5.283   4.058  12.220  1.0373 -2.7589 -1.1437
16963TIP3    H272305   5.233   4.133  12.098 -0.7548 -0.6388  0.8035
16964TIP3   OH272306   5.655   3.489  10.577  0.0202 -1.0270 -0.0842
16964TIP3    H172307   5.737   3.453  10.610 -0.1365  0.5286  2.2110
16964TIP3    H272308   5.673   3.509  10.485  2.9540  1.0886  0.7777
16965TIP3   OH272309   4.203   4.645   0.151 -0.0156 -0.1010  0.0671
16965TIP3    H172310   4.188   4.629   0.057 -1.2735  5.1279 -0.9594
16965TIP3    H272311   4.118   4.626   0.192 -0.3569  0.3167 -0.4209
16966TIP3   OH272312   1.754   4.423   4.019 -0.8085 -0.2043 -0.6942
16966TIP3    H172313   1.680   4.386   3.971 -0.9957 -1.4621  0.4795
16966TIP3    H272314   1.714   4.476   4.088 -0.6414 -0.9485 -0.0088
16967TIP3   OH272315   6.588   2.387  13.583 -0.0244 -0.0137  0.2475
16967TIP3    H172316   6.587   2.347  13.496  0.9540  0.0568  0.1894
16967TIP3    H272317   6.653   2.337  13.632  1.4179  1.6273  0.0950
16968TIP3   OH272318   3.903   6.646  15.205 -0.3362 -0.1337 -0.4766
16968TIP3    H172319   3.908   6.732  15.164  1.8547 -0.2289 -0.5353
16968TIP3    H272320   3.986   6.603  15.180 -0.2321 -1.2897  1.6481
16969TIP3   OH272321   3.646   5.449  14.005  0.4332 -0.3939 -1.2219
16969TIP3    H172322   3.687   5.366  13.981 -0.6072 -0.8681 -1.4251
16969TIP3    H272323   3.591   5.428  14.080  2.3113  0.7186  0.5978
16970TIP3   OH272324   3.619   5.533  15.931  0.3992 -0.5060  0.1139
16970TIP3    H172325   3.695   5.565  15.980  0.8778 -1.8108  0.2492
16970TIP3    H272326   3.618   5.439  15.947  0.1758 -0.8797 -1.8427
16971TIP3   OH272327   6.781   2.896   3.922  0.4192 -0.7888 -0.5368
16971TIP3    H172328   6.792   2.801   3.935  0.8661 -0.6254  0.3927
16971TIP3    H272329   6.721   2.903   3.848  0.9808 -1.7951 -1.1168
16972TIP3   OH272330   6.076   1.735   5.675  0.1467  0.0240 -0.3637
16972TIP3    H172331   6.025   1.656   5.658  0.9869 -0.4903 -0.5518
16972TIP3    H272332   6.114   1.722   5.762  2.4655 -1.0370 -1.4393
16973TIP3   OH272333   2.275   6.683   3.243  0.3248  0.0466 -0.6347
16973TIP3    H172334   2.214   6.635   3.299 -0.9941  0.3445 -1.7952
16973TIP3    H272335   2.344   6.619   3.224 -0.7331 -0.9935 -1.0768
16974TIP3   OH272336   2.540   2.686  15.161 -0.8006 -0.4337 -0.1876
16974TIP3    H172337   2.627   2.691  15.122 -0.7630 -0.0814 -0.0599
16974TIP3    H272338   2.556   2.667  15.253 -0.8935 -1.3886 -0.3601
16975TIP3   OH272339   4.275   5.161   1.851 -0.3925 -0.4896  0.4694
16975TIP3    H172340   4.307   5.137   1.764 -0.6177 -0.0876  0.2732
16975TIP3    H272341   4.306   5.090   1.908 -0.7910 -1.0897 -0.0425
16976TIP3   OH272342   0.868   2.912  12.885  0.2182 -0.2385 -0.0803
16976TIP3    H172343   0.830   2.988  12.928 -0.5749 -1.0860  0.7661
16976TIP3    H272344   0.947   2.892  12.935 -1.2062 -1.8079  1.6983
16977TIP3   OH272345   2.552   1.299   2.963  0.5353  0.4326 -0.1799
16977TIP3    H172346   2.538   1.212   2.924 -0.0198  0.2659  0.3752
16977TIP3    H272347   2.638   1.326   2.930  0.2266  0.1557 -1.2425
16978TIP3   OH272348   3.449   2.993   4.447  0.0615 -0.5331  0.9295
16978TIP3    H172349   3.526   3.015   4.500  0.9661 -1.0592 -0.1433
16978TIP3    H272350   3.465   2.903   4.418 -1.4077 -0.9976  1.4414
16979TIP3   OH272351   1.647   5.480  17.043 -0.3438 -0.0014 -0.5677
16979TIP3    H172352   1.683   5.396  17.075 -0.9067 -0.0584 -0.0631
16979TIP3    H272353   1.724   5.533  17.026  0.0198  0.3070  1.6610
16980TIP3   OH272354   6.631   3.870  11.282 -0.3364  0.7167 -0.0087
16980TIP3    H172355   6.704   3.928  11.305  0.1987  0.4510 -0.9757
16980TIP3    H272356   6.672   3.784  11.267 -1.2493 -0.2258  2.4665
16981TIP3   OH272357   6.787   1.388   4.918  0.3992 -0.3936 -0.0655
16981TIP3    H172358   6.741   1.376   5.001 -0.3199  0.1759 -0.3761
16981TIP3    H272359   6.763   1.311   4.867  0.9033 -0.7845  0.2669
16982TIP3   OH272360   2.761   1.071  13.569 -0.4443 -0.3924  0.4318
16982TIP3    H172361   2.785   1.159  13.541 -2.1570  0.2763  0.9230
16982TIP3    H272362   2.741   1.024  13.488 -1.6398  0.3565  0.2737
16983TIP3   OH272363   1.221   4.596  11.418  0.1175  0.0969  0.4526
16983TIP3    H172364   1.284   4.544  11.367 -0.6075  0.0158 -0.3837
16983TIP3    H272365   1.147   4.537  11.431 -0.8526  0.9994 -0.7924
16984TIP3   OH272366   0.711   4.400   5.489 -0.3725  0.2108  0.4777
16984TIP3    H172367   0.617   4.381   5.480 -0.4823  0.9721 -0.1103
16984TIP3    H272368   0.738   4.353   5.568 -1.0210 -0.8590  0.0798
16985TIP3   OH272369   5.679   1.708  12.728  0.3635  0.5997  0.1473
16985TIP3    H172370   5.614   1.727  12.795  0.7191  3.0320 -0.1144
16985TIP3    H272371   5.669   1.614  12.711 -4.0118  1.0557 -0.8661
16986TIP3   OH272372   1.430   4.751   0.034  0.1979  0.3049 -0.0955
16986TIP3    H172373   1.381   4.669   0.028  1.0238 -0.1709 -0.5428
16986TIP3    H272374   1.397   4.794   0.113 -1.4898  0.3719 -0.8034
16987TIP3   OH272375   2.204   5.009   5.659 -0.6975 -0.2373  0.0521
16987TIP3    H172376   2.287   5.052   5.676 -1.2347 -0.2561  3.3129
16987TIP3    H272377   2.142   5.081   5.643 -0.6274 -0.0316  0.6688
16988TIP3   OH272378   6.635   6.082  12.914 -0.4014  0.0511 -0.0233
16988TIP3    H172379   6.612   5.998  12.875  1.1802 -0.8276  0.8293
16988TIP3    H272380   6.730   6.090  12.899 -0.3562  1.2320  0.7457
16989TIP3   OH272381   3.113   1.027   0.560  0.0939  0.3870  0.0189
16989TIP3    H172382   3.059   0.951   0.539 -1.0365  0.9063  0.9429
16989TIP3    H272383   3.147   1.010   0.648 -0.1440  0.9367  0.2201
16990TIP3   OH272384   3.473   4.409  13.147  0.9932  0.0352  0.3753
16990TIP3    H172385   3.461   4.479  13.083 -1.5834  2.3989  3.1050
16990TIP3    H272386   3.568   4.398  13.154  1.4948  3.0219 -0.5131
16991TIP3   OH272387   2.274   1.450  12.279 -0.1208 -0.0621 -0.3438
16991TIP3    H172388   2.280   1.441  12.184  0.4358  3.1631 -0.7257
16991TIP3    H272389   2.359   1.418  12.311 -0.3000 -1.1469 -0.9090
16992TIP3   OH272390   6.772   4.425  16.055 -0.1587 -0.7666  0.1750
16992TIP3    H172391   6.867   4.440  16.055 -0.2662  0.1955 -1.2394
16992TIP3    H272392   6.762   4.330  16.053  0.6734 -1.0999  4.2334
16993TIP3   OH272393   6.069   0.815   3.425  0.5628 -0.1543  0.1037
16993TIP3    H172394   6.076   0.900   3.382 -0.5417  0.4691  1.0734
16993TIP3    H272395   5.994   0.773   3.384  0.3295 -0.1197  0.4895
16994TIP3   OH272396   5.764   1.107   6.679 -0.3279 -0.1012  0.4106
16994TIP3    H172397   5.683   1.056   6.687 -0.2351 -0.1962  0.7618
16994TIP3    H272398   5.754   1.156   6.598 -0.7366 -0.1200  0.4495
16995TIP3   OH272399   4.880   4.267   0.086 -0.5677 -0.4040  0.2969
16995TIP3    H172400   4.912   4.194   0.033 -1.7915 -0.1564 -0.8413
16995TIP3    H272401   4.921   4.344   0.047 -0.9553 -0.2885  0.1084
16996TIP3   OH272402   6.420   3.674   4.709  0.2649 -0.1500 -0.4429
16996TIP3    H172403   6.358   3.679   4.781  1.6389  0.1737  0.7679
16996TIP3    H272404   6.493   3.622   4.743  0.4600 -0.9847 -1.9955
16997TIP3   OH272405   1.309   1.342  10.675  0.0426  0.0281  0.3773
16997TIP3    H172406   1.258   1.422  10.673  0.2913  0.2199  1.2557
16997TIP3    H272407   1.259   1.279  10.623  0.2358  0.9756 -0.9801
16998TIP3   OH272408   6.638   6.208   5.679  0.0413  0.4557 -0.5932
16998TIP3    H172409   6.706   6.264   5.716 -0.2254 -0.5695  1.5858
16998TIP3    H272410   6.644   6.224   5.585  1.8493  1.9936 -0.2984
16999TIP3   OH272411   2.516   3.662   3.850 -0.3534  0.0120  0.5424
16999TIP3    H172412   2.474   3.739   3.812 -0.0083 -0.9482 -1.9900
16999TIP3    H272413   2.610   3.682   3.847 -0.1275 -0.9962 -1.6106
17000TIP3   OH272414   1.035   1.921   1.703 -0.0980  0.2314  0.0014
17000TIP3    H172415   1.007   1.831   1.687  0.2779 -0.2251  1.7229
17000TIP3    H272416   1.129   1.915   1.716 -0.2385  0.6801  1.3080
17001TIP3   OH272417   0.864   1.108  13.295 -1.2435  0.0834  0.5553
17001TIP3    H172418   0.927   1.143  13.232 -1.1590  0.1220  0.6615
17001TIP3    H272419   0.874   1.163  13.372 -1.4203  0.1017  0.5665
17002TIP3   OH272420   4.922   4.090  12.720 -0.3488 -0.0596  0.2054
17002TIP3    H172421   4.910   4.150  12.794  0.6156  0.0265  0.3047
17002TIP3    H272422   4.978   4.021  12.754  0.7790  0.3991 -0.6544
17003TIP3   OH272423   1.038   2.332   2.783  0.5127  0.2668  0.1105
17003TIP3    H172424   0.986   2.272   2.729 -1.0552  0.4507  1.3400
17003TIP3    H272425   1.073   2.276   2.853  1.3612  0.2880 -0.2910
17004TIP3   OH272426   4.433   1.124  15.102  0.0192 -0.2576 -0.3570
17004TIP3    H172427   4.488   1.047  15.087  2.8751  1.4218  0.6189
17004TIP3    H272428   4.376   1.128  15.025  0.3649 -2.8056 -0.8464
17005TIP3   OH272429   5.927   0.946   2.332  0.2337 -0.3359 -0.6902
17005TIP3    H172430   6.007   0.918   2.376  0.9367  0.7286 -1.2528
17005TIP3    H272431   5.861   0.949   2.402  0.6999 -1.1390 -0.2070
17006TIP3   OH272432   1.090   6.557   4.079 -0.3859 -0.3852  0.0658
17006TIP3    H172433   1.088   6.639   4.030 -1.1992  0.7453  1.8860
17006TIP3    H272434   1.178   6.553   4.116  0.0960 -1.0402 -1.0926
17007TIP3   OH272435   2.189   0.735  12.396  0.0276  0.5295 -0.1045
17007TIP3    H172436   2.224   0.761  12.481 -0.8155  0.2435  0.3441
17007TIP3    H272437   2.095   0.731  12.409 -0.1235  0.6108 -1.0977
17008TIP3   OH272438   0.918   1.832   5.073 -0.6402  0.0993 -0.3524
17008TIP3    H172439   0.946   1.915   5.034  1.4397  0.7069  2.1366
17008TIP3    H272440   0.995   1.776   5.068 -0.3228  0.1447  2.4859
17009TIP3   OH272441   6.407   0.024   5.198 -0.7264  0.5069 -0.1663
17009TIP3    H172442   6.344  -0.042   5.227 -1.8400  1.7973  0.4610
17009TIP3    H272443   6.356   0.084   5.144  0.2684  0.8498 -0.7550
17010TIP3   OH272444   2.770   5.933  12.168  0.3571  0.4402  0.3281
17010TIP3    H172445   2.855   5.933  12.212  1.3119 -2.7842 -1.2406
17010TIP3    H272446   2.707   5.956  12.236  2.0080 -1.8139  2.7956
17011TIP3   OH272447   1.435   5.039   2.003 -0.1520  0.1792  0.2521
17011TIP3    H172448   1.510   5.067   1.951 -0.2644  1.4752  0.7502
17011TIP3    H272449   1.466   5.041   2.094 -0.0759 -1.6770  0.3118
17012TIP3   OH272450   3.212   6.704  16.805 -0.4977 -0.1838  0.0257
17012TIP3    H172451   3.184   6.614  16.820 -2.0162  0.3761  0.6970
17012TIP3    H272452   3.193   6.749  16.887 -1.3160  1.1185 -0.8320
17013TIP3   OH272453   5.422   5.976   2.292  0.2357 -0.1565  0.4416
17013TIP3    H172454   5.414   6.070   2.306 -0.6657 -0.3916  1.7281
17013TIP3    H272455   5.459   5.967   2.204  2.3427  1.4216  1.0939
17014TIP3   OH272456   4.757   3.451   6.528  0.3361  0.4297 -0.5417
17014TIP3    H172457   4.668   3.455   6.494  0.7801 -0.1310 -1.8190
17014TIP3    H272458   4.781   3.359   6.523  0.7103  0.4528  0.5611
17015TIP3   OH272459   6.632   3.351   4.196  0.1345  0.0335 -0.0661
17015TIP3    H172460   6.551   3.337   4.148 -0.4373  0.8005  0.6455
17015TIP3    H272461   6.684   3.272   4.180 -1.1077 -0.8554  0.1883
17016TIP3   OH272462   2.604   0.046   3.283  0.0839  0.6329 -0.6555
17016TIP3    H172463   2.615   0.027   3.376 -0.4260  1.3392 -0.4420
17016TIP3    H272464   2.680   0.006   3.241 -0.2907 -0.7281 -0.0868
17017TIP3   OH272465   5.895   2.001   1.985 -0.2832 -0.2503  0.0982
17017TIP3    H172466   5.955   2.054   1.933  0.3038 -1.3030 -0.3032
17017TIP3    H272467   5.945   1.925   2.011 -1.1186 -0.6181  0.6832
17018TIP3   OH272468   2.982   5.084   1.721 -0.1874 -0.4881  0.4071
17018TIP3    H172469   2.939   5.170   1.730  0.6825  0.0097 -0.0177
17018TIP3    H272470   2.992   5.073   1.626  1.3204 -0.2121  0.5054
17019TIP3   OH272471   0.885   0.987  16.493  0.3384  0.2266  0.5323
17019TIP3    H172472   0.827   0.949  16.427  0.5498  1.0693 -0.1406
17019TIP3    H272473   0.875   1.081  16.484  3.3498  0.5088 -1.0406
17020TIP3   OH272474   0.918   6.513  13.951  0.3003  0.2792  0.3413
17020TIP3    H172475   0.956   6.501  14.038 -3.1011  0.8335  2.0882
17020TIP3    H272476   0.944   6.601  13.925  3.8753 -0.9232 -0.7654
17021TIP3   OH272477   2.876   2.234   0.866  0.3289  0.4901 -0.2715
17021TIP3    H172478   2.902   2.173   0.935  0.1163 -0.0462 -0.6647
17021TIP3    H272479   2.900   2.190   0.784  1.4300  1.5092 -0.5291
17022TIP3   OH272480   6.575   0.997  15.433  0.2421  0.2745  0.9855
17022TIP3    H172481   6.539   0.979  15.346  0.7323 -2.4013  1.2782
17022TIP3    H272482   6.613   1.085  15.425 -0.3685  0.3976 -1.2651
17023TIP3   OH272483   3.447   2.890   0.229  0.2333 -0.1474 -0.4366
17023TIP3    H172484   3.367   2.851   0.264  0.0663  0.9426  0.4513
17023TIP3    H272485   3.489   2.819   0.181  2.0104 -2.8122  4.3895
17024TIP3   OH272486   4.597   3.098   5.591 -0.6282  0.9385  0.1525
17024TIP3    H172487   4.519   3.135   5.549 -1.4652 -1.5937 -0.7175
17024TIP3    H272488   4.629   3.168   5.648 -3.4772  2.1186  0.4761
17025TIP3   OH272489   4.067   6.212  12.224 -0.2991 -0.5342  0.6879
17025TIP3    H172490   4.087   6.207  12.318 -3.9503 -3.8239  1.5584
17025TIP3    H272491   4.134   6.157  12.183  0.5840 -0.1061  1.5152
17026TIP3   OH272492   4.874   2.441   5.554  0.1781  0.7945  0.7653
17026TIP3    H172493   4.841   2.497   5.483  1.5814 -0.2238 -0.7648
17026TIP3    H272494   4.902   2.503   5.622 -0.4425  1.8443  0.0906
17027TIP3   OH272495   4.319   2.072   1.813 -0.5521  0.3653 -0.1889
17027TIP3    H172496   4.289   2.077   1.722 -1.0426 -0.3650 -0.0757
17027TIP3    H272497   4.253   2.120   1.862 -1.1379 -0.5776 -0.0347
17028TIP3   OH272498   3.703   6.001  11.869  0.6031  0.6556  0.5287
17028TIP3    H172499   3.699   5.980  11.963  0.3519 -0.4216  0.2991
17028TIP3    H272500   3.786   5.962  11.840 -0.2951 -0.9168 -0.0932
17029TIP3   OH272501   0.805   0.605   4.838 -0.0776 -0.1243 -0.1793
17029TIP3    H172502   0.758   0.643   4.912 -0.7204 -0.7910 -0.2343
17029TIP3    H272503   0.798   0.511   4.851  1.7952 -0.2717  0.1463
17030TIP3   OH272504   2.775   3.341  16.236 -0.0596  0.4285  0.5014
17030TIP3    H172505   2.720   3.348  16.314 -0.8364 -3.3940  0.4566
17030TIP3    H272506   2.862   3.321  16.269 -0.4302 -1.3935  0.4691
17031TIP3   OH272507   2.446   4.853  17.165  0.7138  0.2047  0.0594
17031TIP3    H172508   2.402   4.916  17.108 -1.5522 -1.9632 -0.7717
17031TIP3    H272509   2.421   4.881  17.254 -0.3770  0.4276 -0.2971
17032TIP3   OH272510   4.907   0.662  12.820 -0.0111  0.3659 -0.2030
17032TIP3    H172511   4.860   0.707  12.750 -1.9532  0.3799  1.0335
17032TIP3    H272512   4.964   0.729  12.857  0.5635  0.5244 -1.3128
17033TIP3   OH272513   1.100   2.470  14.075  0.2438  0.1324  0.1726
17033TIP3    H172514   1.138   2.516  14.150  1.8311 -1.7389  0.6079
17033TIP3    H272515   1.151   2.389  14.068 -1.3937 -0.8511 -1.4870
17034TIP3   OH272516   2.920   0.949  16.798 -0.2426  0.4726 -0.4509
17034TIP3    H172517   2.947   1.011  16.865  2.7051 -0.9313 -0.2034
17034TIP3    H272518   2.831   0.923  16.824 -0.0238  1.6192  1.6475
17035TIP3   OH272519   1.280   3.168   5.930  0.3811 -0.1199  0.0222
17035TIP3    H172520   1.236   3.197   5.851 -1.7596  1.3132  1.6274
17035TIP3    H272521   1.308   3.249   5.974 -1.4978 -0.5841  2.3016
17036TIP3   OH272522   5.894   4.178   4.732  0.4188  0.4180 -0.2787
17036TIP3    H172523   5.831   4.172   4.804  1.4891  1.2971  0.7650
17036TIP3    H272524   5.899   4.089   4.697 -1.0777  0.2464 -0.1327
17037TIP3   OH272525   4.161   4.555   4.484 -0.1758  0.2746  0.3021
17037TIP3    H172526   4.071   4.541   4.511 -0.0704 -0.6740  0.1989
17037TIP3    H272527   4.157   4.564   4.389 -0.3774  2.2216  0.4458
17038TIP3   OH272528   6.372   3.059   2.991  0.0326 -0.1535  0.1064
17038TIP3    H172529   6.438   3.127   2.983 -1.7153  1.7141  0.5979
17038TIP3    H272530   6.394   2.994   2.924  0.0363  2.4294 -2.5578
17039TIP3   OH272531   4.010   6.433   4.131 -0.0775 -0.2449 -0.1729
17039TIP3    H172532   4.093   6.479   4.145 -0.3459  1.1601 -2.5833
17039TIP3    H272533   4.016   6.354   4.184  1.7563  1.0297  1.6350
17040TIP3   OH272534   4.179   2.640  16.794  0.2822 -0.2313  0.1450
17040TIP3    H172535   4.244   2.577  16.760 -2.0436 -2.0592 -1.2611
17040TIP3    H272536   4.146   2.599  16.874 -0.6221 -0.4315 -0.3113
17041TIP3   OH272537   3.535   1.140  16.952  0.1487  0.6562  0.0419
17041TIP3    H172538   3.623   1.179  16.946  0.9615 -1.0961  0.1307
17041TIP3    H272539   3.515   1.113  16.862 -0.6253  1.6500 -0.1074
17042TIP3   OH272540   4.048   1.906   1.076 -0.3138  0.0972  0.0189
17042TIP3    H172541   4.130   1.926   1.032 -0.0595  0.5910  0.6916
17042TIP3    H272542   4.035   1.812   1.061  0.5984 -0.0833  0.2553
17043TIP3   OH272543   4.497   0.147   4.433  0.2832 -0.3146 -0.0246
17043TIP3    H172544   4.508   0.224   4.489 -2.1393  0.5602 -0.6389
17043TIP3    H272545   4.569   0.153   4.370 -0.3560  1.9740 -0.6162
17044TIP3   OH272546   3.527   3.209  14.646  0.1067  0.8932  0.0277
17044TIP3    H172547   3.594   3.198  14.578 -1.2105  0.7982 -1.3089
17044TIP3    H272548   3.545   3.139  14.709  0.6986  0.2862 -0.7923
17045TIP3   OH272549   5.894   2.336   0.556 -0.4951  0.3329  0.1094
17045TIP3    H172550   5.961   2.268   0.550 -1.6055 -0.7533 -0.2511
17045TIP3    H272551   5.930   2.409   0.504  0.9360  0.2576  0.9318
17046TIP3   OH272552   5.957   1.643  15.733 -0.0557  0.0478  0.1072
17046TIP3    H172553   6.032   1.645  15.674 -0.0265 -0.9169  0.0887
17046TIP3    H272554   5.883   1.667  15.678 -0.0836 -1.1822 -0.4327
17047TIP3   OH272555   3.095   3.144  15.217  0.1798  0.0592 -0.1517
17047TIP3    H172556   3.112   3.238  15.208  0.6518 -0.0415 -0.3393
17047TIP3    H272557   3.132   3.105  15.138 -0.8456 -0.1835 -0.5143
17048TIP3   OH272558   5.335   2.082  13.351 -0.0445 -0.2244 -0.9588
17048TIP3    H172559   5.386   2.154  13.313  0.1624 -0.0678 -0.3905
17048TIP3    H272560   5.279   2.125  13.416 -0.3607 -0.4991 -1.0486
17049TIP3   OH272561   4.086   5.973  15.942 -0.3030  0.2359 -0.3991
17049TIP3    H172562   4.012   6.022  15.977  0.7402  0.2997  1.9542
17049TIP3    H272563   4.161   6.032  15.953  0.5286 -0.8391 -0.1164
17050TIP3   OH272564   3.642   1.598   0.505 -0.1261 -0.1067  0.0653
17050TIP3    H172565   3.565   1.544   0.522  0.7767 -1.3251  0.4679
17050TIP3    H272566   3.678   1.616   0.593 -0.0415  0.6012 -0.1064
17051TIP3   OH272567   2.975   1.621   2.465 -0.1861  0.0712  0.6972
17051TIP3    H172568   2.909   1.683   2.435  0.3267 -0.0230 -0.6851
17051TIP3    H272569   2.999   1.652   2.553 -3.1963 -0.8373  1.9473
17052TIP3   OH272570   3.445   5.292   0.724 -0.3949  0.2801  0.6158
17052TIP3    H172571   3.502   5.315   0.649  0.5680 -0.7211  1.0201
17052TIP3    H272572   3.367   5.254   0.684  0.4552 -1.0033  0.1027
17053TIP3   OH272573   1.328   4.364  15.050 -0.1113  0.1205 -0.2192
17053TIP3    H172574   1.254   4.399  14.999  0.1904  1.0078 -0.0635
17053TIP3    H272575   1.341   4.428  15.120  0.1650 -0.5473  0.3478
17054TIP3   OH272576   5.918   2.707   0.874  0.3724  0.3874  0.2810
17054TIP3    H172577   5.883   2.690   0.961  0.6273  0.9271  0.4959
17054TIP3    H272578   5.892   2.797   0.854 -0.7831 -0.1432 -0.7439
17055TIP3   OH272579   3.806   1.910   0.145  0.2662 -0.0005  0.0616
17055TIP3    H172580   3.711   1.897   0.153  0.2106  0.6298  0.4978
17055TIP3    H272581   3.844   1.836   0.192 -0.0187  0.0373  0.3615
17056TIP3   OH272582   4.998   2.789  11.148 -0.1229  0.6731  0.3874
17056TIP3    H172583   4.982   2.867  11.095 -0.4161  0.6433  0.4324
17056TIP3    H272584   5.075   2.811  11.200  0.1868  0.6889 -0.0761
17057TIP3   OH272585   1.278   5.155  11.517  0.0769 -0.3714 -0.1490
17057TIP3    H172586   1.321   5.234  11.550  0.2339 -1.0101  1.2012
17057TIP3    H272587   1.190   5.185  11.493  0.6939  0.5813 -1.3755
17058TIP3   OH272588   3.349   4.328  13.375  0.1870 -0.2194 -0.4135
17058TIP3    H172589   3.433   4.300  13.414  0.7775  0.5917 -1.0659
17058TIP3    H272590   3.371   4.349  13.285 -0.2713  1.9636 -0.0731
17059TIP3   OH272591   1.339   5.460   1.338 -0.0964 -0.3410  0.2757
17059TIP3    H172592   1.305   5.537   1.291  0.8827  0.0923  0.2562
17059TIP3    H272593   1.275   5.391   1.320 -1.1544  0.5347  0.5361
17060TIP3   OH272594   1.070   3.025  13.641  0.1825  0.0900 -0.3707
17060TIP3    H172595   1.020   3.058  13.715  1.0006  0.3316  0.0892
17060TIP3    H272596   1.049   3.086  13.569 -0.2733  0.1103 -0.2223
17061TIP3   OH272597   3.486   6.357  15.452  0.8526 -1.1312  0.8218
17061TIP3    H172598   3.510   6.304  15.376  0.9152 -1.1495  0.8530
17061TIP3    H272599   3.547   6.328  15.520 -0.6356 -2.7376  1.5591
17062TIP3   OH272600   5.463   3.167  10.796  0.3598 -0.1253  0.5383
17062TIP3    H172601   5.490   3.076  10.783  1.6523  0.2351  0.5190
17062TIP3    H272602   5.385   3.162  10.852 -0.7125 -1.3142 -0.9883
17063TIP3   OH272603   6.210   6.661   5.310 -0.0248  0.6791 -0.4343
17063TIP3    H172604   6.185   6.605   5.383 -0.4429  1.3584 -0.0481
17063TIP3    H272605   6.130   6.706   5.285  0.5773  2.1554  0.1803
17064TIP3   OH272606   4.907   3.491  17.024  0.0142 -0.0113 -0.5754
17064TIP3    H172607   4.948   3.496  16.938 -0.0354 -2.0135 -0.7724
17064TIP3    H272608   4.851   3.413  17.019 -0.5526  0.2452  1.0457
17065TIP3   OH272609   1.661   6.105   1.294 -0.1198  0.1819  0.9203
17065TIP3    H172610   1.613   6.171   1.345 -0.7296  0.1208  0.4376
17065TIP3    H272611   1.600   6.032   1.286  0.3470 -0.2134  0.9636
17066TIP3   OH272612   2.598   2.334  14.917 -0.2869  0.3159 -0.2490
17066TIP3    H172613   2.633   2.382  14.992 -0.8108 -0.6292  0.6249
17066TIP3    H272614   2.613   2.242  14.939 -1.6364 -0.0292 -0.7005
17067TIP3   OH272615   5.975   1.820  14.874 -0.4233 -0.2629 -0.6925
17067TIP3    H172616   6.061   1.856  14.854 -0.8822  0.0066 -2.3442
17067TIP3    H272617   5.968   1.826  14.969  1.5011 -0.6086 -0.4988
17068TIP3   OH272618   6.213   3.392  15.340 -0.3657 -0.1175  0.3894
17068TIP3    H172619   6.206   3.475  15.294  0.9811  0.0349  0.4013
17068TIP3    H272620   6.265   3.336  15.281  1.0197 -0.0581  1.4956
17069TIP3   OH272621   3.239   4.802  16.709 -0.5424 -0.2749  0.0164
17069TIP3    H172622   3.252   4.894  16.684 -1.0800 -0.2708 -0.2592
17069TIP3    H272623   3.145   4.792  16.716 -0.4912 -0.8335 -0.0509
17070TIP3   OH272624   1.415   3.269   0.399 -0.2222 -0.2412 -0.5737
17070TIP3    H172625   1.356   3.298   0.330 -0.9524 -2.0251 -0.7464
17070TIP3    H272626   1.360   3.216   0.457  1.2748 -2.5765 -1.1254
17071TIP3   OH272627   2.176   0.821   3.685  0.0858  0.3941 -0.4529
17071TIP3    H172628   2.233   0.894   3.661 -0.1467  0.2259 -1.5701
17071TIP3    H272629   2.101   0.862   3.728  0.4838  0.7127 -0.0531
17072TIP3   OH272630   6.430   6.549   1.750 -0.1137  0.0417  0.6824
17072TIP3    H172631   6.445   6.454   1.749 -2.0432 -0.3164 -0.8024
17072TIP3    H272632   6.517   6.587   1.757  1.1094 -1.8353 -2.2144
17073TIP3   OH272633   0.119   6.451   3.428  0.6085  0.2117  0.4693
17073TIP3    H172634   0.159   6.531   3.463  0.7230  0.2329  0.2928
17073TIP3    H272635   0.039   6.482   3.385 -1.0393 -0.1252  3.0858
17074TIP3   OH272636   2.240   4.457   5.344  0.3994 -0.3507 -0.2286
17074TIP3    H172637   2.309   4.411   5.391 -0.3863 -2.6133 -1.1627
17074TIP3    H272638   2.199   4.391   5.289 -0.6170  1.5555 -1.9264
17075TIP3   OH272639   2.459   5.236  11.841 -0.2320 -0.3773 -0.3825
17075TIP3    H172640   2.464   5.196  11.928  0.5316 -0.5961 -0.5207
17075TIP3    H272641   2.550   5.255  11.818 -0.3942 -0.6702 -1.3000
17076TIP3   OH272642   5.965   5.433  16.576  0.0659 -0.6734 -0.0761
17076TIP3    H172643   6.055   5.453  16.603 -0.6376  0.3896  1.5873
17076TIP3    H272644   5.966   5.339  16.558  1.5579 -0.6351 -0.3508
17077TIP3   OH272645   3.855   3.926   1.712  0.1352  0.4552 -0.5513
17077TIP3    H172646   3.943   3.915   1.676 -1.3029 -1.7042 -3.8086
17077TIP3    H272647   3.819   4.001   1.664 -0.5043 -0.0418 -0.8694
17078TIP3   OH272648   5.684   4.951  17.165  0.4877  0.4854 -0.3978
17078TIP3    H172649   5.589   4.947  17.153  0.3529  0.8491  0.4634
17078TIP3    H272650   5.715   4.866  17.134 -0.2246  0.0033  0.1602
17079TIP3   OH272651   4.468   3.160   4.314 -0.0797 -0.1074 -0.1732
17079TIP3    H172652   4.438   3.169   4.224  0.8526 -0.1137 -0.4967
17079TIP3    H272653   4.397   3.196   4.367 -0.8461 -0.5447 -0.8774
17080TIP3   OH272654   0.977   2.471   5.669 -0.1242  0.1752 -0.3808
17080TIP3    H172655   0.917   2.477   5.743 -0.7201  2.1312 -0.9573
17080TIP3    H272656   0.984   2.561   5.636  0.4081 -0.5657 -2.4782
17081TIP3   OH272657   0.197   5.551  12.143  0.3693  0.4165  0.6071
17081TIP3    H172658   0.160   5.529  12.057  0.7871  2.6407 -0.2243
17081TIP3    H272659   0.120   5.561  12.200 -0.0344  0.5408  0.0561
17082TIP3   OH272660   3.477   1.296   3.820 -0.5301 -0.5229  0.1578
17082TIP3    H172661   3.390   1.319   3.851 -0.6729 -0.1264 -0.5112
17082TIP3    H272662   3.463   1.263   3.731  0.1016  0.5016 -0.3368
17083TIP3   OH272663   2.089   5.038  13.376 -0.5638 -0.4392  0.2856
17083TIP3    H172664   2.130   4.952  13.369  0.4950  0.0544  0.1595
17083TIP3    H272665   2.013   5.034  13.318  1.2168 -0.3000 -2.2250
17084TIP3   OH272666   2.766   4.774  11.536 -0.1474  0.2191  0.4020
17084TIP3    H172667   2.704   4.830  11.584 -2.4951 -2.3338  0.6016
17084TIP3    H272668   2.840   4.764  11.596 -1.2058  0.3779  1.7942
17085TIP3   OH272669   1.490   4.299   4.004  0.5871  0.2755  0.0620
17085TIP3    H172670   1.423   4.364   3.985  1.1000  0.4994 -1.0800
17085TIP3    H272671   1.465   4.262   4.088 -1.3070 -0.0775 -0.6150
17086TIP3   OH272672   1.081   4.368   4.138  0.6012  0.4943  0.2018
17086TIP3    H172673   1.076   4.275   4.115  1.1421  0.5945 -0.3442
17086TIP3    H272674   0.990   4.393   4.153  0.5464 -0.4416  1.6972
17087TIP3   OH272675   4.178   5.700  14.472  0.1183  0.5107 -0.7139
17087TIP3    H172676   4.239   5.733  14.407 -0.4926  0.5660 -1.2744
17087TIP3    H272677   4.215   5.616  14.500  0.0180  0.1199 -1.6908
17088TIP3   OH272678   3.622   0.072   3.490 -0.3714 -0.1777  0.1536
17088TIP3    H172679   3.706   0.119   3.490  0.0483 -0.8079  2.0982
17088TIP3    H272680   3.578   0.102   3.411  2.3519 -1.0536 -1.8543
17089TIP3   OH272681   1.617   0.333  11.300 -0.2883 -0.0359  0.5691
17089TIP3    H172682   1.536   0.281  11.296 -0.7011  0.4791  1.7141
17089TIP3    H272683   1.687   0.268  11.306 -0.5366 -0.5060 -1.0639
17090TIP3   OH272684   3.113   2.222  15.233  0.4097 -0.1220 -0.1366
17090TIP3    H172685   3.138   2.244  15.322 -1.4093 -1.3378  0.7294
17090TIP3    H272686   3.157   2.139  15.215  1.7412  0.7030 -0.8589
17091TIP3   OH272687   4.056   5.542  11.975 -0.3106 -0.8081 -0.7527
17091TIP3    H172688   4.069   5.451  11.950 -1.7943 -0.6271 -2.4535
17091TIP3    H272689   3.971   5.543  12.019 -0.0926 -0.3006 -0.3254
17092TIP3   OH272690   1.173   4.729  14.852  0.0935  0.4246  0.7020
17092TIP3    H172691   1.253   4.678  14.839  0.7290  1.8087 -1.2061
17092TIP3    H272692   1.107   4.684  14.800  0.2046  0.5523  0.4509
17093TIP3   OH272693   1.384   4.775   0.375 -0.0652 -0.2652  0.2817
17093TIP3    H172694   1.424   4.688   0.371 -0.0052 -0.2483  0.5070
17093TIP3    H272695   1.413   4.811   0.459 -0.2237 -0.0920  0.2627
17094TIP3   OH272696   3.171   2.277  15.480 -0.6743  0.0060  0.0876
17094TIP3    H172697   3.134   2.349  15.531  0.9101  1.5390 -0.7951
17094TIP3    H272698   3.263   2.273  15.506 -0.3374 -0.5853 -1.0820
17095TIP3   OH272699   5.018   1.425  15.446  0.3887 -0.2496 -0.2231
17095TIP3    H172700   5.072   1.446  15.371  1.1008  1.8443  0.8104
17095TIP3    H272701   4.977   1.508  15.471  0.2528 -0.8505  1.7483
17096TIP3   OH272702   2.047   6.034  15.718 -0.8500  0.3357 -0.5230
17096TIP3    H172703   2.009   5.952  15.748  0.4730 -0.9752 -2.2685
17096TIP3    H272704   2.117   6.053  15.781  0.0491 -0.8823 -1.1283
17097TIP3   OH272705   2.249   4.281  14.235 -0.0916  0.2217 -0.1504
17097TIP3    H172706   2.308   4.325  14.174 -0.3018  0.5661 -0.1056
17097TIP3    H272707   2.162   4.292  14.197 -0.1153 -0.3946 -0.2828
17098TIP3   OH272708   1.507   6.713   4.644  1.0456  0.5733 -0.6552
17098TIP3    H172709   1.574   6.781   4.648  2.5485 -0.7704 -1.8497
17098TIP3    H272710   1.551   6.637   4.607 -0.0777 -1.6908  2.2595
17099TIP3   OH272711   3.862   1.586  13.886  0.2906  0.9677 -0.6038
17099TIP3    H172712   3.881   1.677  13.861 -0.1825  1.4431  0.6849
17099TIP3    H272713   3.775   1.569  13.851 -0.0805  1.3968  0.0864
17100TIP3   OH272714   5.685   4.492   1.399 -0.2094 -0.8208  0.1873
17100TIP3    H172715   5.592   4.513   1.390 -0.2382 -1.3914 -1.2620
17100TIP3    H272716   5.731   4.570   1.367 -0.1499 -0.2476  1.6075
17101TIP3   OH272717   0.303   1.814   3.152 -0.4529 -0.6719 -0.5015
17101TIP3    H172718   0.282   1.727   3.188 -1.4022 -1.3565 -2.4997
17101TIP3    H272719   0.228   1.834   3.096  0.2000  1.0320 -0.8057
17102TIP3   OH272720   3.225   5.356  11.779 -0.4626  0.0974 -0.0967
17102TIP3    H172721   3.192   5.431  11.730  0.4827  0.1829 -0.6324
17102TIP3    H272722   3.292   5.393  11.836 -0.4044 -0.2497  0.0607
17103TIP3   OH272723   1.039   6.568   1.134 -0.1139 -0.5055 -0.0726
17103TIP3    H172724   1.084   6.561   1.218  0.4735  1.4190 -0.1696
17103TIP3    H272725   0.946   6.559   1.156 -0.0308  0.8528  0.9575
17104TIP3   OH272726   5.367   0.074  11.896  0.7949 -0.8966 -0.4790
17104TIP3    H172727   5.413   0.121  11.965 -2.1913  0.5866  0.6956
17104TIP3    H272728   5.383  -0.019  11.915  1.1408 -0.4880  1.4380
17105TIP3   OH272729   1.126   4.277   4.412  0.0461 -0.9071  0.6100
17105TIP3    H172730   1.062   4.346   4.398  1.5208  0.8693  2.0694
17105TIP3    H272731   1.166   4.298   4.497  2.7677 -1.7184 -0.3523
17106TIP3   OH272732   0.282   0.509   5.373 -0.5247  0.0915 -0.0954
17106TIP3    H172733   0.289   0.542   5.284 -0.9098  3.4397  0.9800
17106TIP3    H272734   0.360   0.541   5.417 -0.1738 -1.7946  0.7268
17107TIP3   OH272735   2.298   0.566  13.876 -0.7294  0.3498  0.4799
17107TIP3    H172736   2.376   0.541  13.925  0.8834  0.2795 -1.9155
17107TIP3    H272737   2.309   0.660  13.859 -1.6123  0.5272  0.8190
17108TIP3   OH272738   1.745   3.643   5.854  0.0039 -0.1623 -0.5303
17108TIP3    H172739   1.679   3.660   5.921 -0.1287  0.0268 -0.7059
17108TIP3    H272740   1.699   3.593   5.787 -0.1745  0.6351 -1.0178
17109TIP3   OH272741   1.031   6.125  16.736 -0.4036 -0.5930  0.2206
17109TIP3    H172742   0.956   6.106  16.793 -2.8578  1.6157 -1.9730
17109TIP3    H272743   0.997   6.111  16.647  1.6814  0.8856 -0.8962
17110TIP3   OH272744   0.647   5.311  13.488 -0.3695  0.3452  0.3762
17110TIP3    H172745   0.592   5.292  13.564 -0.9133 -1.0863 -0.3159
17110TIP3    H272746   0.736   5.317  13.523 -0.2862 -2.5156  0.9147
17111TIP3   OH272747   5.735   2.178  16.552  0.3547  0.1477 -0.5745
17111TIP3    H172748   5.797   2.141  16.490  0.1513  1.2241 -1.4540
17111TIP3    H272749   5.658   2.120  16.547  1.4171 -1.4857  0.8957
17112TIP3   OH272750   0.766   1.656   3.839 -0.4083  0.2428  0.1118
17112TIP3    H172751   0.682   1.692   3.812  0.1324  2.4509  1.1048
17112TIP3    H272752   0.767   1.668   3.934  1.2130  0.7481  0.0582
17113TIP3   OH272753   5.170   1.175   5.344 -0.1024 -0.0636  0.0479
17113TIP3    H172754   5.215   1.253   5.310 -1.2639  0.4698 -0.3611
17113TIP3    H272755   5.078   1.201   5.346 -0.3664 -1.0252  1.0935
17114TIP3   OH272756   3.614   0.030  15.918 -0.0374  0.3589  0.7433
17114TIP3    H172757   3.660   0.000  15.996 -1.4231  0.0459  1.4697
17114TIP3    H272758   3.598   0.123  15.934 -1.0036  0.1260  1.2060
17115TIP3   OH272759   3.430   2.230  15.050 -0.6118  0.1001 -0.4016
17115TIP3    H172760   3.339   2.207  15.069  0.2522 -1.5398  2.2030
17115TIP3    H272761   3.470   2.243  15.136  1.5260  1.2561 -1.5028
17116TIP3   OH272762   5.243   1.067  13.825 -0.3996  0.0736  0.0719
17116TIP3    H172763   5.204   1.088  13.740  1.1364  0.0738 -0.6641
17116TIP3    H272764   5.241   1.150  13.873 -1.8112 -0.0628  0.2796
17117TIP3   OH272765   3.794   0.874  11.545 -0.9517 -0.4067  0.0397
17117TIP3    H172766   3.787   0.947  11.606  0.4194  0.3088 -0.6405
17117TIP3    H272767   3.851   0.905  11.475 -1.2073 -1.7631 -0.8138
17118TIP3   OH272768   5.741   6.425  16.590  0.3515  0.1476  0.4771
17118TIP3    H172769   5.684   6.448  16.516  1.2405 -0.4489 -0.4316
17118TIP3    H272770   5.692   6.452  16.667  0.1660  2.5019 -0.3707
17119TIP3   OH272771   3.343   4.074   2.608 -0.1449 -0.4788 -0.3384
17119TIP3    H172772   3.420   4.124   2.580 -0.0939  0.2666  1.0434
17119TIP3    H272773   3.368   4.037   2.692 -1.9303  1.4325  1.1368
17120TIP3   OH272774   2.285   6.431  11.173 -0.2708 -0.3135 -0.4773
17120TIP3    H172775   2.262   6.504  11.114  0.7290 -0.9061 -1.6443
17120TIP3    H272776   2.303   6.473  11.256 -1.7230  0.5563 -0.5528
17121TIP3   OH272777   1.642   6.051   2.930  0.2258 -0.0180  0.0427
17121TIP3    H172778   1.563   6.057   2.985 -0.7685 -1.6378 -1.1225
17121TIP3    H272779   1.644   6.133   2.881  0.1261  0.6768  1.1748
17122TIP3   OH272780   5.591   5.457   4.486  0.1974  0.2489  0.0139
17122TIP3    H172781   5.525   5.397   4.452  0.7333 -1.0019  1.0932
17122TIP3    H272782   5.545   5.540   4.497 -1.7928 -1.0544  2.5252
17123TIP3   OH272783   0.599   6.355   2.759 -0.3214 -0.1886 -0.0543
17123TIP3    H172784   0.689   6.323   2.762 -0.8490 -1.6889  0.9579
17123TIP3    H272785   0.585   6.379   2.668  0.4230 -2.0100 -0.6844
17124TIP3   OH272786   1.873   3.427  16.910 -0.6714 -0.2878 -0.4178
17124TIP3    H172787   1.884   3.522  16.903 -0.2523 -0.3881 -1.1788
17124TIP3    H272788   1.909   3.405  16.996 -1.8326  0.3901  0.2578
17125TIP3   OH272789   5.072   4.713   4.506  0.1325 -0.1485  0.1718
17125TIP3    H172790   5.126   4.645   4.548  2.1952  2.2536  1.7950
17125TIP3    H272791   5.136   4.778   4.475 -1.7354  1.4843 -0.4780
17126TIP3   OH272792   1.856   6.132   3.106  0.0996 -0.0940 -0.3352
17126TIP3    H172793   1.776   6.108   3.153  1.0018 -1.3506  0.6365
17126TIP3    H272794   1.846   6.226   3.088 -0.7029  0.2344  1.5559
17127TIP3   OH272795   2.954   5.308   5.009  0.0015  0.0489 -0.4267
17127TIP3    H172796   2.908   5.259   5.077 -0.2757  2.5151  1.2879
17127TIP3    H272797   3.033   5.256   4.992  0.1257 -0.6098  1.8738
17128TIP3   OH272798   4.343   2.328   4.747  0.2118 -0.4402 -0.3553
17128TIP3    H172799   4.280   2.381   4.698 -0.1211 -1.3144 -0.8989
17128TIP3    H272800   4.419   2.322   4.690 -0.6043 -2.4173 -1.3247
17129TIP3   OH272801   0.779   5.601  14.823  0.3471 -0.1885  0.4671
17129TIP3    H172802   0.870   5.624  14.844 -0.6625  1.9023  3.0445
17129TIP3    H272803   0.783   5.508  14.800  2.8146 -0.8383  2.9616
17130TIP3   OH272804   5.884   3.428   5.640 -0.2497 -0.1230 -0.5192
17130TIP3    H172805   5.870   3.523   5.637 -0.0201 -0.0228  1.0828
17130TIP3    H272806   5.976   3.418   5.663  0.1603 -0.7779 -2.2298
17131TIP3   OH272807   0.459   0.705  14.334  0.0720 -0.1649 -0.4697
17131TIP3    H172808   0.526   0.773  14.325  0.1728 -0.1315  0.4496
17131TIP3    H272809   0.383   0.751  14.369  0.6844 -0.7806  1.8550
17132TIP3   OH272810   6.472   6.752   6.156  0.4468 -0.4049  0.1505
17132TIP3    H172811   6.508   6.831   6.117 -0.4700 -0.0531  0.0200
17132TIP3    H272812   6.480   6.766   6.250  3.0040 -1.4077  0.1772
17133TIP3   OH272813   0.558   2.329  13.565 -0.2627  0.3116 -0.1978
17133TIP3    H172814   0.588   2.261  13.625 -0.7192  1.0371  0.8752
17133TIP3    H272815   0.634   2.345  13.508  0.0200 -0.7086 -0.1405
17134TIP3   OH272816   6.248   5.028   5.783  0.0965  0.3560  0.4680
17134TIP3    H172817   6.216   5.115   5.760 -0.2387  0.2147  0.4005
17134TIP3    H272818   6.169   4.978   5.805  0.4213  0.6132  2.4079
17135TIP3   OH272819   0.349   4.616  13.041 -0.8024  0.3644 -0.3941
17135TIP3    H172820   0.332   4.524  13.058 -1.9384  0.7017  0.4225
17135TIP3    H272821   0.385   4.650  13.123 -4.0950  1.4730  0.7854
17136TIP3   OH272822   1.118   1.904  14.045 -0.0721 -0.4407  0.0163
17136TIP3    H172823   1.047   1.840  14.042  0.5350 -1.2543  1.5566
17136TIP3    H272824   1.106   1.948  14.130 -0.3422  1.3581 -0.9173
17137TIP3   OH272825   5.571   4.701   1.981 -0.0553 -0.1941 -0.4831
17137TIP3    H172826   5.637   4.764   1.952  0.0586  0.9725  2.0261
17137TIP3    H272827   5.498   4.755   2.011 -0.3377 -1.2517  0.8475
17138TIP3   OH272828   0.929   5.696  16.446 -0.2377  0.1261 -0.0008
17138TIP3    H172829   0.898   5.694  16.536 -2.3896 -1.7054 -0.6897
17138TIP3    H272830   0.875   5.764  16.404 -0.4380 -0.1871 -0.2613
17139TIP3   OH272831   5.031   4.622   0.487  0.4439 -0.1704 -0.6213
17139TIP3    H172832   5.032   4.557   0.557  1.4042  1.3208  0.8216
17139TIP3    H272833   5.074   4.699   0.525  0.0123  1.0652 -2.5020
17140TIP3   OH272834   2.063   1.744  11.701  0.1520 -0.0683 -0.1580
17140TIP3    H172835   2.057   1.799  11.779  0.3668  0.6078 -0.6102
17140TIP3    H272836   2.109   1.665  11.730  1.9005  0.9635 -0.0199
17141TIP3   OH272837   5.596   3.689   4.786  0.5285 -0.3978  0.4601
17141TIP3    H172838   5.614   3.621   4.721  1.8027 -1.2905  1.6982
17141TIP3    H272839   5.518   3.734   4.753  0.6340 -1.3904 -1.2225
17142TIP3   OH272840   1.651   0.633   4.011 -0.8588  0.0645 -0.3865
17142TIP3    H172841   1.681   0.556   3.961 -0.2871 -0.8722  1.3207
17142TIP3    H272842   1.562   0.611   4.038 -0.2531 -0.5980  1.1801
17143TIP3   OH272843   0.728   6.086   0.619  0.1846 -0.0822 -0.2466
17143TIP3    H172844   0.805   6.099   0.675 -1.6798  2.3899  2.0074
17143TIP3    H272845   0.756   6.116   0.533  1.1111  3.5855  1.1213
17144TIP3   OH272846   0.930   6.407  11.030 -0.2541 -0.0414  0.1884
17144TIP3    H172847   0.838   6.391  11.048 -0.2421 -0.9079 -0.4457
17144TIP3    H272848   0.975   6.331  11.066  0.2854  0.6360  0.9947
17145TIP3   OH272849   3.369   3.872   4.947  0.1268  0.2948 -0.0658
17145TIP3    H172850   3.449   3.915   4.915  0.3666 -0.8848 -1.1543
17145TIP3    H272851   3.302   3.896   4.883 -0.5055  1.5529  1.0257
17146TIP3   OH272852   0.536   3.711   0.463  0.3884 -0.5202  0.1517
17146TIP3    H172853   0.628   3.709   0.491  0.5676  1.2718 -0.1835
17146TIP3    H272854   0.512   3.804   0.469 -0.9438 -0.7496 -1.2490
17147TIP3   OH272855   1.698   5.070  15.138  0.7698 -0.2823 -0.3090
17147TIP3    H172856   1.668   5.050  15.049 -1.5389  0.1480  0.3038
17147TIP3    H272857   1.690   5.165  15.145  0.9873 -0.3103  0.3519
17148TIP3   OH272858   6.296   4.938   0.639 -0.3790  0.4409  0.6926
17148TIP3    H172859   6.290   5.016   0.584 -1.8079 -0.0469  0.1015
17148TIP3    H272860   6.270   4.968   0.726 -0.0275  0.8158  0.6682
17149TIP3   OH272861   1.420   1.246   0.349  0.0714 -0.0596  0.2709
17149TIP3    H172862   1.370   1.192   0.288 -1.1439  1.2348  0.0787
17149TIP3    H272863   1.356   1.270   0.417  0.3483  1.8179 -0.1033
17150TIP3   OH272864   6.450   3.378  14.918 -0.3964  0.3751 -0.0781
17150TIP3    H172865   6.457   3.424  15.002 -0.0485 -1.6038  1.0413
17150TIP3    H272866   6.537   3.384  14.879 -0.4080  0.8160 -0.0410
17151TIP3   OH272867   1.568   4.195  12.725 -0.2252  0.5845  0.0011
17151TIP3    H172868   1.619   4.182  12.805 -0.4970 -0.5136  0.0090
17151TIP3    H272869   1.477   4.198  12.754 -0.2262  1.8665 -0.0912
17152TIP3   OH272870   6.253   5.146   2.151  0.0167  0.4590  0.1511
17152TIP3    H172871   6.164   5.140   2.116  0.7379 -1.2453 -1.5700
17152TIP3    H272872   6.241   5.153   2.246 -1.9473  1.0777 -0.0940
17153TIP3   OH272873   3.411   1.748   5.822 -0.0785 -0.0629  0.0095
17153TIP3    H172874   3.493   1.709   5.793  0.8639  1.0286  1.0731
17153TIP3    H272875   3.404   1.722   5.914 -0.2973  0.8461  0.2605
17154TIP3   OH272876   0.498   4.901   5.735 -0.0702 -0.1908 -0.0860
17154TIP3    H172877   0.436   4.905   5.662 -0.5740  0.6167  0.3771
17154TIP3    H272878   0.517   4.992   5.755  2.1832 -0.4028 -0.9633
17155TIP3   OH272879   4.648   0.218   5.083 -0.2804  0.2385 -0.2703
17155TIP3    H172880   4.553   0.204   5.086 -0.1384 -0.6400  0.5711
17155TIP3    H272881   4.676   0.173   5.004 -0.7416  1.7722 -1.3476
17156TIP3   OH272882   1.838   6.393  15.597  0.4684  0.3223  0.1777
17156TIP3    H172883   1.865   6.364  15.510 -1.8865  0.4595 -0.6812
17156TIP3    H272884   1.801   6.314  15.638 -0.9349  0.8352 -0.0445
17157TIP3   OH272885   6.662   1.313  17.053 -0.3537  0.2155 -0.1180
17157TIP3    H172886   6.637   1.301  16.961  1.1812 -1.2515 -0.3948
17157TIP3    H272887   6.651   1.226  17.092 -1.2698  0.8954  1.1711
17158TIP3   OH272888   2.421   1.788   1.049 -0.0493  0.2973  0.0128
17158TIP3    H172889   2.415   1.843   0.971 -0.0078 -1.7592 -1.5214
17158TIP3    H272890   2.376   1.707   1.025  0.4609 -0.6304  1.9493
17159TIP3   OH272891   1.337   2.188   0.494 -0.1843 -0.0960  0.5524
17159TIP3    H172892   1.369   2.136   0.421  1.4081  0.6645  0.6705
17159TIP3    H272893   1.340   2.130   0.569 -2.3263 -1.0490 -0.0108
17160TIP3   OH272894   2.905   3.311  15.553  0.4778  0.0762 -0.7844
17160TIP3    H172895   2.978   3.328  15.613 -0.1149 -0.4100  0.0913
17160TIP3    H272896   2.874   3.224  15.578 -0.4721  0.3259 -1.0833
17161TIP3   OH272897   4.925   3.561  11.705 -0.1615 -0.6513  0.1020
17161TIP3    H172898   4.889   3.587  11.790  0.0389  1.4359 -0.3956
17161TIP3    H272899   4.850   3.523  11.659 -1.2184  1.3877 -0.0115
17162TIP3   OH272900   0.538   0.302   1.000 -0.2547 -0.3673 -0.2739
17162TIP3    H172901   0.505   0.266   0.917 -0.4313 -0.9922  0.0606
17162TIP3    H272902   0.469   0.281   1.064  0.5378 -1.2208  0.3315
17163TIP3   OH272903   6.495   5.537  15.037 -0.4253  0.5366  0.3599
17163TIP3    H172904   6.553   5.489  14.978 -2.1685  0.6180 -1.4921
17163TIP3    H272905   6.530   5.519  15.125  1.3869 -0.7354 -0.5688
17164TIP3   OH272906   4.416   0.176   4.771 -0.0371  0.3116 -0.7866
17164TIP3    H172907   4.354   0.153   4.701 -2.1313  1.9394  0.4037
17164TIP3    H272908   4.422   0.098   4.825 -1.0857  0.1070 -0.9378
17165TIP3   OH272909   5.216   3.637   3.315 -0.3266  0.5685  0.1046
17165TIP3    H172910   5.269   3.669   3.388 -0.9669  0.2127  0.7451
17165TIP3    H272911   5.134   3.608   3.356 -1.3329  1.7900 -0.9361
17166TIP3   OH272912   5.455   2.879   6.844 -0.5604 -0.9376  0.4745
17166TIP3    H172913   5.477   2.808   6.785 -1.6214 -0.4473 -0.5589
17166TIP3    H272914   5.381   2.923   6.802  0.0251  0.7354  1.1232
17167TIP3   OH272915   0.686   3.380   4.714  0.0126 -0.3322 -0.5236
17167TIP3    H172916   0.751   3.436   4.672  0.4089 -0.1723  0.3007
17167TIP3    H272917   0.603   3.428   4.706  0.2978  0.2386 -0.0852
17168TIP3   OH272918   4.717   3.173   4.784  0.4263 -0.5345 -0.2430
17168TIP3    H172919   4.696   3.082   4.805  0.1108 -0.1792  1.0796
17168TIP3    H272920   4.729   3.215   4.869  1.2073  0.5212 -0.8521
17169TIP3   OH272921   1.138   4.128  12.218 -0.0461 -0.7083  0.0127
17169TIP3    H172922   1.072   4.066  12.185 -1.9788  1.2861 -0.1448
17169TIP3    H272923   1.165   4.092  12.302 -0.9132 -1.8874 -0.1835
17170TIP3   OH272924   4.220   5.926  12.657 -0.6245 -0.9488  0.3484
17170TIP3    H172925   4.188   5.923  12.747 -1.6988 -1.5237 -0.0343
17170TIP3    H272926   4.309   5.892  12.661 -0.5156 -0.5668  1.2496
17171TIP3   OH272927   5.886   1.860  16.177  0.1551 -0.1074 -0.6637
17171TIP3    H172928   5.821   1.873  16.108  2.5697 -1.3306 -3.4228
17171TIP3    H272929   5.910   1.767  16.170  2.2969  0.3299  0.0512
17172TIP3   OH272930   4.222   4.856  12.765 -0.2467  0.3731 -1.5242
17172TIP3    H172931   4.174   4.916  12.708 -0.4724  0.7907 -0.9040
17172TIP3    H272932   4.298   4.906  12.795 -1.5631  1.1780  0.7539
17173TIP3   OH272933   1.120   3.752  13.922 -0.1829 -0.2956  0.0014
17173TIP3    H172934   1.054   3.693  13.959  1.2606 -1.1705  1.3216
17173TIP3    H272935   1.128   3.724  13.831  1.5053 -3.2719  0.9187
17174TIP3   OH272936   2.491   2.447  12.108 -0.5315  0.1306 -0.8825
17174TIP3    H172937   2.578   2.461  12.144 -0.7893 -2.1019  0.8126
17174TIP3    H272938   2.432   2.492  12.169 -0.7205 -0.4828 -0.6040
17175TIP3   OH272939   0.543   4.056   1.142 -0.2147 -0.2889 -0.3322
17175TIP3    H172940   0.521   4.008   1.062 -2.8868  0.0267  0.1208
17175TIP3    H272941   0.479   4.127   1.147  2.8327  2.7194 -0.3358
17176TIP3   OH272942   3.707   6.307   4.083  0.1432  0.3242  1.0463
17176TIP3    H172943   3.791   6.351   4.090 -0.8187  2.2253  1.3615
17176TIP3    H272944   3.651   6.351   4.147 -0.6225 -2.1115  2.1457
17177TIP3   OH272945   2.275   5.213   3.842 -0.4204  0.0494  0.2919
17177TIP3    H172946   2.351   5.252   3.885 -1.4942  1.6058  0.8796
17177TIP3    H272947   2.299   5.209   3.749  0.7095 -0.3549  0.5890
17178TIP3   OH272948   0.352   2.780   3.209  0.2835  0.2503  0.3119
17178TIP3    H172949   0.261   2.799   3.187  0.5182  3.0218  1.4688
17178TIP3    H272950   0.348   2.737   3.294  0.0730 -0.0227  0.1691
17179TIP3   OH272951   0.425   1.298  15.170  0.2344 -0.6471  0.2788
17179TIP3    H172952   0.375   1.269  15.094 -0.7070  0.5785  0.3844
17179TIP3    H272953   0.504   1.338  15.134  0.3243 -1.0584  0.0148
17180TIP3   OH272954   1.271   3.378  16.872  0.3891 -0.3292  0.0753
17180TIP3    H172955   1.339   3.316  16.845  0.3111 -0.3362 -0.1127
17180TIP3    H272956   1.248   3.424  16.791  0.5274  0.0249  0.2352
17181TIP3   OH272957   1.645   5.930  15.552 -0.3685 -0.5433  0.2919
17181TIP3    H172958   1.733   5.960  15.531 -0.5832  0.4137  0.6775
17181TIP3    H272959   1.626   5.863  15.487 -0.0092  0.4579 -0.8901
17182TIP3   OH272960   0.186   2.309   2.360 -0.0934  0.1136  0.3990
17182TIP3    H172961   0.159   2.223   2.327  0.7376 -0.0514  0.1102
17182TIP3    H272962   0.175   2.303   2.455 -2.2045  0.4821  0.2069
17183TIP3   OH272963   2.226   6.658   4.116 -1.0540 -0.4803  0.3373
17183TIP3    H172964   2.256   6.608   4.040  0.5949  0.7342  0.1092
17183TIP3    H272965   2.286   6.634   4.186 -0.5438  0.7654  0.3543
17184TIP3   OH272966   1.149   2.591  14.315 -0.4340 -0.0068 -0.4898
17184TIP3    H172967   1.148   2.686  14.306 -2.2626 -0.0052 -0.6288
17184TIP3    H272968   1.236   2.571  14.350  0.6228  1.5350 -2.0545
17185TIP3   OH272969   0.649   5.673  16.143 -0.4635  0.0469  0.9896
17185TIP3    H172970   0.597   5.593  16.153 -1.0743  0.3260  0.1887
17185TIP3    H272971   0.589   5.743  16.168 -1.2155  0.5552 -1.8476
17186TIP3   OH272972   6.693   3.211   1.272 -0.6501 -0.0266 -0.3437
17186TIP3    H172973   6.747   3.270   1.219  0.3506  0.9795  1.6750
17186TIP3    H272974   6.642   3.270   1.329 -1.6647 -1.0589 -0.1507
17187TIP3   OH272975   6.032   5.663  12.817 -0.7768  0.4078  0.2157
17187TIP3    H172976   6.077   5.688  12.897  1.1456  0.4493 -0.8174
17187TIP3    H272977   5.940   5.659  12.841 -0.3874  1.6658  2.1092
17188TIP3   OH272978   4.613   1.229   1.452 -0.8219 -0.2588  0.3677
17188TIP3    H172979   4.556   1.306   1.449 -0.3946  0.0329 -0.3962
17188TIP3    H272980   4.615   1.197   1.362  1.4553  0.6651  0.0146
17189TIP3   OH272981   2.335   2.883   4.183 -0.1138 -0.1774  0.0445
17189TIP3    H172982   2.392   2.897   4.259 -0.4414 -0.5212  0.3595
17189TIP3    H272983   2.309   2.791   4.190 -1.0981  0.0982  0.1746
17190TIP3   OH272984   2.253   2.851  14.639  0.0900 -0.2999 -0.3005
17190TIP3    H172985   2.228   2.761  14.661 -0.3870 -0.0140  0.3753
17190TIP3    H272986   2.342   2.860  14.672 -0.2931 -0.1613  0.7439
17191TIP3   OH272987   2.451   4.572  16.770 -0.4485  0.6117 -0.0934
17191TIP3    H172988   2.383   4.504  16.768 -0.8593  1.0345 -1.7377
17191TIP3    H272989   2.472   4.582  16.863 -0.4385 -1.6886  0.2108
17192TIP3   OH272990   1.208   3.622  10.644  0.4651 -0.4201  0.8085
17192TIP3    H172991   1.245   3.707  10.669  1.6917 -0.7765  0.3024
17192TIP3    H272992   1.191   3.631  10.550 -0.6519 -0.3087  1.0100
17193TIP3   OH272993   3.630   0.196  16.480  0.2471  0.1475  0.1622
17193TIP3    H172994   3.669   0.212  16.565  3.3418  0.6129 -1.2087
17193TIP3    H272995   3.657   0.271  16.426  0.4900 -1.2816 -1.8377
17194TIP3   OH272996   5.879   4.592  13.310 -0.2693  0.9430 -0.4514
17194TIP3    H172997   5.816   4.617  13.243  0.2454  2.0656 -0.5343
17194TIP3    H272998   5.964   4.607  13.270  0.1644 -2.3567 -1.0407
17195TIP3   OH272999   6.431   5.710  11.071 -0.1783 -0.1137 -0.1222
17195TIP3    H173000   6.496   5.763  11.116 -1.3720  0.6124  0.7847
17195TIP3    H273001   6.468   5.698  10.983  0.9131  0.7258  0.1957
17196TIP3   OH273002   0.968   2.263   3.281  0.3136 -0.0468  0.1309
17196TIP3    H173003   0.949   2.222   3.366 -1.7040  1.6065  0.5430
17196TIP3    H273004   0.965   2.191   3.219  0.7978 -1.1318  1.3099
17197TIP3   OH273005   4.615   3.609  15.855  0.2294 -0.3564  0.6119
17197TIP3    H173006   4.587   3.619  15.764 -2.3653  0.9590  1.4425
17197TIP3    H273007   4.657   3.693  15.876  1.2196 -0.8199  0.5304
17198TIP3   OH273008   6.569   4.459  14.489 -0.3288  0.2493  0.2624
17198TIP3    H173009   6.583   4.510  14.569 -1.6502  1.1705 -0.0696
17198TIP3    H273010   6.623   4.504  14.423 -0.0178  0.0764  0.3939
17199TIP3   OH273011   2.364   3.333  16.243 -0.5603 -0.5912  0.1280
17199TIP3    H173012   2.409   3.331  16.159  0.1419  0.5417  0.4466
17199TIP3    H273013   2.353   3.241  16.268  2.6382 -0.9615  0.5652
17200TIP3   OH273014   1.115   0.913   2.065 -0.3164 -0.6231 -0.2333
17200TIP3    H173015   1.190   0.860   2.039 -0.9078 -1.5234 -0.1610
17200TIP3    H273016   1.117   0.988   2.005  2.4809  1.1419  1.7911
17201TIP3   OH273017   3.781   4.423  10.922 -0.4711 -0.1855  0.5089
17201TIP3    H173018   3.819   4.349  10.875 -1.3440 -0.5291  0.3260
17201TIP3    H273019   3.856   4.474  10.951  0.1011 -0.3108 -0.7132
17202TIP3   OH273020   2.546   1.103  12.396  0.1027  0.1329  0.1986
17202TIP3    H173021   2.487   1.032  12.421 -2.9382  2.5273  0.4117
17202TIP3    H273022   2.561   1.090  12.302 -0.1663 -0.9284  0.2941
17203TIP3   OH273023   6.180   1.698  15.505 -0.3570  0.0493 -0.0506
17203TIP3    H173024   6.235   1.688  15.583  0.0447  0.0618 -0.3315
17203TIP3    H273025   6.136   1.613  15.497  0.0672 -0.1611 -0.1636
17204TIP3   OH273026   2.836   0.706  11.711 -0.2653 -0.0572  0.0796
17204TIP3    H173027   2.757   0.683  11.758  0.3194 -0.3855  0.9258
17204TIP3    H273028   2.809   0.714  11.620 -1.0743 -1.1224  0.2160
17205TIP3   OH273029   1.178   6.300  15.825  0.3164 -0.2688  0.2545
17205TIP3    H173030   1.255   6.250  15.851  1.3429  0.7618 -0.6626
17205TIP3    H273031   1.168   6.366  15.893  1.1728  0.5320 -0.3711
17206TIP3   OH273032   5.760   3.525   5.914 -0.0481  0.2358  0.1321
17206TIP3    H173033   5.780   3.447   5.863  1.5248  0.1498  0.8227
17206TIP3    H273034   5.739   3.492   6.002 -1.1702  0.4870 -0.0223
17207TIP3   OH273035   2.703   3.012  13.889 -0.1580  0.2830  0.1516
17207TIP3    H173036   2.698   3.107  13.895 -0.9050  0.1901  1.3594
17207TIP3    H273037   2.661   2.981  13.970 -0.0777 -1.0679 -0.3064
17208TIP3   OH273038   4.535   1.934  14.218 -0.1699  0.2645 -0.0530
17208TIP3    H173039   4.486   2.007  14.180  1.9209  1.7505 -0.0920
17208TIP3    H273040   4.552   1.962  14.309  1.4235  0.3003 -0.3299
17209TIP3   OH273041   3.725   1.878  16.817 -0.0186  0.6763  0.2328
17209TIP3    H173042   3.687   1.812  16.875  1.3609  0.7238  1.2309
17209TIP3    H273043   3.739   1.832  16.734 -2.6121  0.7784 -0.3512
17210TIP3   OH273044   0.817   0.109  16.330  0.7827  0.4595  0.4015
17210TIP3    H173045   0.829   0.185  16.387 -0.0875  2.2406 -1.6614
17210TIP3    H273046   0.893   0.112  16.271  0.7275 -0.2743  0.2906
17211TIP3   OH273047   3.577   1.641  15.273  0.0562  0.0383  0.7259
17211TIP3    H173048   3.612   1.575  15.334  0.2177  1.5549  2.3731
17211TIP3    H273049   3.641   1.712  15.277  0.0392  0.2071 -1.2411
17212TIP3   OH273050   2.566   1.803  11.422  0.1959 -0.0636 -0.1436
17212TIP3    H173051   2.594   1.717  11.391 -0.5493 -0.4295  0.1604
17212TIP3    H273052   2.577   1.861  11.346  0.6074 -0.4429 -0.3777
17213TIP3   OH273053   2.771   1.422  13.100 -0.5362 -0.4915 -0.2249
17213TIP3    H173054   2.678   1.430  13.119 -0.9745 -2.0902 -1.5029
17213TIP3    H273055   2.794   1.334  13.130  0.0064 -0.9759 -1.9295
17214TIP3   OH273056   1.887   6.148  13.841  0.7375  0.1163  0.6373
17214TIP3    H173057   1.941   6.171  13.766  0.9217  2.7406  1.4786
17214TIP3    H273058   1.819   6.216  13.844 -1.8328 -2.2600  0.4517
17215TIP3   OH273059   6.149   4.650  14.954 -0.3198  0.5962  0.2322
17215TIP3    H173060   6.122   4.717  14.891  2.1651  1.7366  0.2475
17215TIP3    H273061   6.095   4.667  15.031 -0.7734  1.6600 -0.2915
17216TIP3   OH273062   3.084   1.014   4.917  0.3324  0.3222 -0.2921
17216TIP3    H173063   3.004   0.979   4.876  0.5238 -1.2909  0.5887
17216TIP3    H273064   3.155   0.976   4.866  0.5384  0.0802  0.1685
17217TIP3   OH273065   4.363   6.154  11.574  0.5265 -0.4772  0.1539
17217TIP3    H173066   4.367   6.190  11.662 -0.2268 -0.1360  0.0540
17217TIP3    H273067   4.293   6.203  11.531  1.0025 -0.5282 -0.6853
17218TIP3   OH273068   5.390   2.138  15.723  0.2481  0.7478  0.1615
17218TIP3    H173069   5.391   2.158  15.817 -0.1463  1.8974 -0.0632
17218TIP3    H273070   5.401   2.043  15.719  3.0324  0.9466  1.2594
17219TIP3   OH273071   6.319   1.228   0.854 -0.3151  0.1848  0.1776
17219TIP3    H173072   6.270   1.290   0.799  0.4152  1.4804  0.9375
17219TIP3    H273073   6.290   1.247   0.943  0.5003 -0.0275  0.4994
17220TIP3   OH273074   6.558   2.187  16.205  0.1876 -0.0824  0.1937
17220TIP3    H173075   6.591   2.098  16.215  2.0457  0.4927 -0.2951
17220TIP3    H273076   6.520   2.189  16.117  1.6405  0.0021 -0.4659
17221TIP3   OH273077   6.323   1.584   3.626 -0.4821  0.0932 -0.4510
17221TIP3    H173078   6.253   1.645   3.649 -0.4039  0.7274 -1.7626
17221TIP3    H273079   6.290   1.498   3.653 -1.1547  0.5539  0.2349
17222TIP3   OH273080   3.210   1.479   2.617  0.3385  0.0058 -0.1012
17222TIP3    H173081   3.279   1.414   2.600  0.1653 -0.5662  1.2487
17222TIP3    H273082   3.150   1.471   2.543 -1.2632 -3.5211  1.3356
17223TIP3   OH273083   5.932   3.992  16.401  0.5407  0.5321 -0.4749
17223TIP3    H173084   5.905   4.001  16.309 -0.0489  0.6246 -0.3010
17223TIP3    H273085   5.932   4.082  16.434  0.9178  0.5150 -0.4317
17224TIP3   OH273086   1.448   3.943   2.478  0.2629 -0.0773  0.1857
17224TIP3    H173087   1.447   4.023   2.425  1.5210 -0.5368 -0.5687
17224TIP3    H273088   1.531   3.947   2.526  1.1182 -1.6810 -1.0805
17225TIP3   OH273089   5.841   4.551  10.765  0.0097 -0.2212 -0.4260
17225TIP3    H173090   5.904   4.502  10.817 -1.6040 -0.0547  1.8121
17225TIP3    H273091   5.822   4.630  10.816 -0.5171  0.7396 -2.0105
17226TIP3   OH273092   5.812   6.784   2.376 -0.0979  0.0600 -1.0614
17226TIP3    H173093   5.851   6.868   2.397  1.3483 -1.2729  2.2612
17226TIP3    H273094   5.719   6.796   2.394  0.1905  0.7959  0.0549
17227TIP3   OH273095   0.213   5.661   4.860  0.0334 -0.1527 -0.1384
17227TIP3    H173096   0.208   5.743   4.812 -2.1790 -0.7073 -0.9874
17227TIP3    H273097   0.279   5.609   4.814  0.7440  0.7689 -0.1756
17228TIP3   OH273098   0.905   5.361  13.566  0.3189  0.0100  0.0306
17228TIP3    H173099   0.994   5.343  13.537  0.5690  2.3897 -0.9366
17228TIP3    H273100   0.915   5.387  13.658  0.4962 -0.5566  0.1752
17229TIP3   OH273101   6.478   3.076   2.475 -0.6015 -0.5403  0.5494
17229TIP3    H173102   6.463   3.170   2.470 -1.7126 -0.7326 -0.2586
17229TIP3    H273103   6.396   3.040   2.510 -0.8800 -1.3500 -0.8524
17230TIP3   OH273104   3.864   6.184   1.418  0.3465  0.0567 -0.2067
17230TIP3    H173105   3.884   6.097   1.385  0.5309  0.1019 -0.2162
17230TIP3    H273106   3.811   6.224   1.349 -1.2591 -0.6724  0.5607
17231TIP3   OH273107   4.967   3.918   5.473  0.5016 -0.1924  0.7182
17231TIP3    H173108   5.049   3.967   5.465 -1.2114  2.8069  0.1827
17231TIP3    H273109   4.938   3.934   5.563 -0.0121 -0.3521  0.5866
17232TIP3   OH273110   5.993   1.015  14.406 -0.2817  0.0260  0.4027
17232TIP3    H173111   5.966   1.045  14.493 -0.1633  1.5634 -0.0644
17232TIP3    H273112   6.067   0.957  14.423  0.2434  0.9219  1.2836
17233TIP3   OH273113   4.220   4.326  12.685 -0.0888 -0.6274  0.1338
17233TIP3    H173114   4.297   4.338  12.630 -0.6014  0.9849 -0.2982
17233TIP3    H273115   4.165   4.264  12.637 -1.1176  1.7203 -1.9272
17234TIP3   OH273116   5.487   6.701  12.922  0.0266  0.0585 -0.7087
17234TIP3    H173117   5.450   6.772  12.869 -1.6602 -0.8881 -0.8755
17234TIP3    H273118   5.489   6.736  13.011  1.0362  0.9687 -1.0648
17235TIP3   OH273119   6.120   5.278   5.793  0.2235  0.6347  0.0016
17235TIP3    H173120   6.135   5.281   5.887  3.0060  0.6607 -0.3429
17235TIP3    H273121   6.138   5.368   5.763  1.4712  0.1679 -0.7462
17236TIP3   OH273122   3.498   1.646  16.963  0.3654  0.3967  0.3026
17236TIP3    H173123   3.481   1.676  16.874  1.4431 -0.2818 -0.1493
17236TIP3    H273124   3.461   1.557  16.966  0.6311  0.2890  0.4246
17237TIP3   OH273125   3.033   5.135  13.521  0.1159  0.4136  0.0346
17237TIP3    H173126   2.977   5.100  13.451  1.4874  0.2000 -1.0173
17237TIP3    H273127   2.974   5.185  13.577 -1.2092 -0.2683 -0.6942
17238TIP3   OH273128   0.288   1.999   1.090 -0.3956 -0.0109  0.0860
17238TIP3    H173129   0.302   2.094   1.094  0.6425 -0.0893 -1.0828
17238TIP3    H273130   0.216   1.988   1.028 -2.1773  0.0972  2.0191
17239TIP3   OH273131   4.862   5.029  13.185 -0.3610 -1.2781  0.2323
17239TIP3    H173132   4.900   5.064  13.265 -1.2317 -1.9610  0.9716
17239TIP3    H273133   4.853   5.105  13.127 -1.6780 -0.3334  1.5878
17240TIP3   OH273134   2.956   4.633  17.052  0.3805 -0.2306 -0.4398
17240TIP3    H173135   3.019   4.705  17.042  0.1483 -0.1634 -1.5417
17240TIP3    H273136   2.928   4.613  16.963 -2.1884  0.6587  0.0766
17241TIP3   OH273137   5.208   2.561   1.825  0.2155  0.0438  0.4379
17241TIP3    H173138   5.302   2.578   1.832  0.2100  0.8832 -1.0914
17241TIP3    H273139   5.171   2.644   1.793 -0.6500 -1.0351 -1.5467
17242TIP3   OH273140   4.791   5.592  14.871  0.4896  0.2904  0.3343
17242TIP3    H173141   4.807   5.497  14.877  0.6178  0.1695 -1.3528
17242TIP3    H273142   4.799   5.611  14.777  0.3524  1.9610  0.6417
17243TIP3   OH273143   3.568   1.805   4.033 -0.3313 -0.2392  0.0756
17243TIP3    H173144   3.554   1.721   4.077  0.8035  0.3913  1.7578
17243TIP3    H273145   3.491   1.817   3.978 -0.9408 -1.9462  0.5158
17244TIP3   OH273146   4.452   6.675   2.422 -0.0291  0.0270  0.1507
17244TIP3    H173147   4.360   6.652   2.410 -0.5575  1.1233  1.8069
17244TIP3    H273148   4.466   6.750   2.364 -0.8800  1.3968  1.6397
17245TIP3   OH273149   3.677   2.461  11.000  0.4094 -0.1850 -0.7780
17245TIP3    H173150   3.582   2.471  10.998  0.3539  0.0490  1.1120
17245TIP3    H273151   3.700   2.429  10.912 -1.4566 -0.7193 -1.1119
17246TIP3   OH273152   1.956   1.058   0.531  0.2430 -0.2789  0.3524
17246TIP3    H173153   1.921   0.992   0.472 -0.1099  1.7987 -1.9363
17246TIP3    H273154   1.965   1.137   0.477  3.8341  0.7094  2.0212
17247TIP3   OH273155   1.556   4.091  13.091 -0.1117 -0.4473 -0.0302
17247TIP3    H173156   1.465   4.096  13.120 -0.3066 -2.0590 -0.2714
17247TIP3    H273157   1.605   4.063  13.169  0.2192  0.6284  0.1563
17248TIP3   OH273158   5.567   0.743   0.313  0.0819  0.2316  0.5481
17248TIP3    H173159   5.512   0.821   0.304  0.4276  0.6820  1.9920
17248TIP3    H273160   5.505   0.670   0.318 -0.2926  0.5267  0.2641
17249TIP3   OH273161   2.738   0.594   5.891 -0.1535 -0.1829  0.2567
17249TIP3    H173162   2.803   0.632   5.950 -0.5092 -0.9288  1.1633
17249TIP3    H273163   2.654   0.622   5.926 -0.3483  0.1611 -0.4707
17250TIP3   OH273164   1.259   3.327  15.693  0.5019  0.2588 -0.0461
17250TIP3    H173165   1.287   3.338  15.602  0.1837  1.1087 -0.0451
17250TIP3    H273166   1.277   3.411  15.734  0.9286 -0.2136  0.7644
17251TIP3   OH273167   6.192   2.658   0.783 -0.3089 -0.4352 -0.4180
17251TIP3    H173168   6.196   2.565   0.804 -0.5654 -0.1603  0.9953
17251TIP3    H273169   6.098   2.678   0.780 -0.2590 -0.2925 -1.0665
17252TIP3   OH273170   6.495   3.289   4.727  0.0465  0.5221  0.1431
17252TIP3    H173171   6.403   3.310   4.736 -0.3428 -1.3709  1.0319
17252TIP3    H273172   6.506   3.268   4.635 -0.7276 -0.5586  0.2869
17253TIP3   OH273173   0.735   4.136  11.427 -0.1900  0.1258  0.6649
17253TIP3    H173174   0.758   4.162  11.338  0.7791  3.4885  1.7544
17253TIP3    H273175   0.647   4.099  11.418  0.9752 -2.3714 -2.0023
17254TIP3   OH273176   3.602   1.251   5.836 -0.0846  0.4131  0.1468
17254TIP3    H173177   3.553   1.224   5.914  0.6915 -1.0162  0.1847
17254TIP3    H273178   3.689   1.213   5.849 -0.2073 -0.7188 -1.8535
17255TIP3   OH273179   2.033   5.226   2.573  0.3606 -0.0194 -0.2489
17255TIP3    H173180   2.020   5.134   2.551 -1.3011  0.2543 -0.5684
17255TIP3    H273181   1.963   5.272   2.526  1.1319  1.4014 -0.0614
17256TIP3   OH273182   1.601   3.774  14.476  0.6756 -0.4186  0.0235
17256TIP3    H173183   1.590   3.684  14.508 -0.1980 -0.8219 -1.3409
17256TIP3    H273184   1.605   3.765  14.381 -0.0152  1.0379 -0.1655
17257TIP3   OH273185   4.132   4.640   3.819  0.0416 -0.2463 -0.3210
17257TIP3    H173186   4.202   4.632   3.884  1.8422  0.4338 -2.0582
17257TIP3    H273187   4.072   4.705   3.856  0.8279 -0.1414  0.8298
17258TIP3   OH273188   3.147   5.689  14.026  0.6563  0.2105 -0.2442
17258TIP3    H173189   3.182   5.709  14.113  0.0462 -1.2082  0.3629
17258TIP3    H273190   3.157   5.594  14.017  1.9643  0.4715 -2.3069
17259TIP3   OH273191   0.260   6.017  11.650 -0.6075  0.7670 -0.0063
17259TIP3    H173192   0.245   6.104  11.614  0.1133  1.0571  0.3753
17259TIP3    H273193   0.328   6.030  11.716 -0.8535 -0.0011  0.4111
17260TIP3   OH273194   4.799   3.278   4.546 -0.0498  0.2892 -0.7618
17260TIP3    H173195   4.778   3.251   4.635 -2.5380 -0.2634 -1.4398
17260TIP3    H273196   4.885   3.241   4.529 -0.9003 -2.3851  0.3250
17261TIP3   OH273197   5.500   1.443   3.321  0.5295  0.7129 -0.1376
17261TIP3    H173198   5.573   1.502   3.301  0.7994  0.5220  0.2957
17261TIP3    H273199   5.463   1.477   3.403  0.2327  0.7066 -0.2652
17262TIP3   OH273200   5.762   4.468  11.801 -0.0733  0.4172 -0.3682
17262TIP3    H173201   5.855   4.488  11.812  0.4115 -1.6659 -0.2110
17262TIP3    H273202   5.752   4.448  11.708 -0.2491  0.1820 -0.3011
17263TIP3   OH273203   5.782   6.442   1.691 -0.3570  0.4419 -0.5560
17263TIP3    H173204   5.730   6.502   1.638  1.2038  1.0919 -1.4136
17263TIP3    H273205   5.870   6.450   1.657  0.3742 -0.4594  1.0088
17264TIP3   OH273206   3.006   6.080  13.167 -0.1738  0.5526 -0.0951
17264TIP3    H173207   3.083   6.095  13.222 -0.7509  1.4409  0.4884
17264TIP3    H273208   3.015   5.989  13.138 -0.0838 -0.0837  1.8277
17265TIP3   OH273209   3.018   0.170  13.411  0.7251  0.5447 -0.2131
17265TIP3    H173210   2.935   0.194  13.454  0.2645  0.9984 -1.3083
17265TIP3    H273211   3.072   0.249  13.417  0.6513  0.6172 -0.4669
17266TIP3   OH273212   3.738   3.944  16.154 -0.4094  0.2863 -0.4093
17266TIP3    H173213   3.731   3.994  16.073 -1.1180 -0.6906 -0.9761
17266TIP3    H273214   3.799   3.873  16.132 -0.9240 -0.2166 -0.2150
17267TIP3   OH273215   3.214   4.249   2.414 -0.2556 -0.3390  0.2462
17267TIP3    H173216   3.126   4.211   2.419 -0.5255  0.0727 -0.9301
17267TIP3    H273217   3.233   4.278   2.503 -1.5413  0.0785  0.4067
17268TIP3   OH273218   6.170   1.759   5.387  0.4767  0.0546 -0.2275
17268TIP3    H173219   6.134   1.774   5.475  0.7398 -0.4699 -0.0289
17268TIP3    H273220   6.259   1.794   5.391  0.2742  0.5962 -0.4709
17269TIP3   OH273221   5.208   4.171  16.524  0.0720  0.5401 -0.3627
17269TIP3    H173222   5.258   4.252  16.522 -0.4049  0.8299 -0.5171
17269TIP3    H273223   5.201   4.145  16.432 -1.1468  1.1702 -0.4565
17270TIP3   OH273224   4.734   3.126   0.500  0.1442  0.0142 -0.2104
17270TIP3    H173225   4.750   3.219   0.512  0.0446  0.3010 -2.0537
17270TIP3    H273226   4.650   3.121   0.454  1.0225 -0.8629 -1.8112
17271TIP3   OH273227   2.613   1.979   2.652 -0.0933  0.1997 -0.2864
17271TIP3    H173228   2.595   2.006   2.562  0.6504  0.5781 -0.3256
17271TIP3    H273229   2.590   1.886   2.654  0.0225  0.1529 -0.9034
17272TIP3   OH273230   3.117   3.008   2.984  0.3975 -0.2542  0.2127
17272TIP3    H173231   3.183   3.017   3.053 -0.6926 -2.0727  1.6006
17272TIP3    H273232   3.059   3.082   2.996  0.8435  0.0544  0.5117
17273TIP3   OH273233   2.900   5.516   0.308 -0.3526  0.5495 -0.2613
17273TIP3    H173234   2.876   5.475   0.225 -1.7657 -0.9968  0.8590
17273TIP3    H273235   2.838   5.588   0.318  0.8889  1.8311 -1.2892
17274TIP3   OH273236   1.502   2.740  11.499  0.4043  0.3826 -0.3099
17274TIP3    H173237   1.453   2.689  11.563 -1.6198  0.3571 -1.7999
17274TIP3    H273238   1.495   2.691  11.418  0.6513  1.7103 -1.1671
17275TIP3   OH273239   2.839   1.782  11.070  0.0363  0.6195 -0.4581
17275TIP3    H173240   2.866   1.749  11.156  1.2520  0.5632 -0.8511
17275TIP3    H273241   2.913   1.834  11.040 -0.6980  1.3052 -1.1369
17276TIP3   OH273242   1.047   1.911  11.458  0.2139 -0.1586 -0.0766
17276TIP3    H173243   1.006   1.898  11.543  0.0313 -1.0272 -0.2888
17276TIP3    H273244   1.128   1.859  11.462  0.3186 -0.0225 -0.3551
17277TIP3   OH273245   5.751   4.154   5.776  0.4159 -0.2321  0.2515
17277TIP3    H173246   5.672   4.119   5.736 -0.3725  2.1671 -0.5060
17277TIP3    H273247   5.776   4.227   5.720  2.4833 -0.1778  1.1578
17278TIP3   OH273248   0.199   4.890  17.094  0.6894 -0.0964  0.8725
17278TIP3    H173249   0.267   4.845  17.144  0.8812 -0.6805  0.1078
17278TIP3    H273250   0.121   4.835  17.104  0.5349  0.1640  1.1128
17279TIP3   OH273251   3.691   0.939   3.410  0.1574  0.5181  0.2639
17279TIP3    H173252   3.650   0.879   3.471  0.8487 -0.6679 -0.4064
17279TIP3    H273253   3.784   0.920   3.416  0.4257  1.7440  0.2587
17280TIP3   OH273254   5.802   5.006  11.002 -0.1529  0.4876  0.0949
17280TIP3    H173255   5.854   5.084  11.020 -0.3824  0.5966  0.2971
17280TIP3    H273256   5.721   5.019  11.052 -0.0825  0.0020  0.3390
17281TIP3   OH273257   2.817   0.695  12.105 -0.1210  0.5041  0.1445
17281TIP3    H173258   2.741   0.749  12.083 -0.0417  0.1106 -1.1837
17281TIP3    H273259   2.892   0.753  12.094 -0.1841  0.7807  1.0723
17282TIP3   OH273260   1.525   6.711   2.745 -0.4500  0.1226  0.8103
17282TIP3    H173261   1.455   6.701   2.680 -0.6260  1.0704  0.8456
17282TIP3    H273262   1.513   6.799   2.781  1.3197  0.6599  0.1807
17283TIP3   OH273263   5.420   3.502   5.625  0.1670 -0.1354  0.7889
17283TIP3    H173264   5.493   3.548   5.584 -0.8870 -0.0971 -1.1560
17283TIP3    H273265   5.354   3.570   5.640  0.4849 -0.1697  2.5122
17284TIP3   OH273266   6.411   4.005  14.090 -0.3326 -0.3116  0.3138
17284TIP3    H173267   6.416   3.916  14.125  0.2261 -0.2510  0.4076
17284TIP3    H273268   6.335   4.044  14.132 -0.1390 -0.5002  0.8539
17285TIP3   OH273269   4.855   3.030  12.699  0.0978 -0.3720  0.0496
17285TIP3    H173270   4.814   3.110  12.666 -0.7355 -0.4329  0.9072
17285TIP3    H273271   4.906   3.059  12.775  1.0195 -0.4319 -0.5208
17286TIP3   OH273272   2.615   6.170  11.269  0.1837 -0.2516  0.4560
17286TIP3    H173273   2.661   6.094  11.305 -1.9903 -2.4831 -1.1214
17286TIP3    H273274   2.549   6.132  11.211 -2.9037  2.7521  1.6953
17287TIP3   OH273275   1.759   0.488   0.585 -0.8108  0.0262  0.0194
17287TIP3    H173276   1.802   0.414   0.542 -0.5804  0.2080 -0.0659
17287TIP3    H273277   1.666   0.479   0.562 -1.3038 -1.8502  2.3170
17288TIP3   OH273278   2.369   3.617   0.770  0.3089 -0.1751 -0.2438
17288TIP3    H173279   2.367   3.699   0.722 -2.1138  0.0197  0.0278
17288TIP3    H273280   2.426   3.560   0.719  0.7958  1.1811 -1.2643
17289TIP3   OH273281   6.553   4.199  14.596  0.3090 -0.2514 -0.7039
17289TIP3    H173282   6.467   4.174  14.629  0.6419 -1.2417 -0.5447
17289TIP3    H273283   6.536   4.272  14.537 -0.3726  1.2101  1.1782
17290TIP3   OH273284   1.295   0.626  12.324 -0.1148  0.3656  0.4454
17290TIP3    H173285   1.388   0.606  12.328 -0.2372 -0.4412 -0.4479
17290TIP3    H273286   1.252   0.541  12.315 -0.8553  0.8192 -0.4275
17291TIP3   OH273287   6.350   5.299  15.526 -0.0320  0.1642  0.1839
17291TIP3    H173288   6.308   5.302  15.440  0.8954  0.1057 -0.2820
17291TIP3    H273289   6.296   5.238  15.577 -0.0638 -0.5178 -0.6473
17292TIP3   OH273290   1.030   0.529   2.565  0.7554 -0.4897  0.4460
17292TIP3    H173291   0.943   0.500   2.589  0.2696  1.0603  0.6781
17292TIP3    H273292   1.016   0.595   2.497  1.6543  0.4701  1.1519
17293TIP3   OH273293   0.928   0.305  14.519 -0.2352  0.3923  0.0987
17293TIP3    H173294   0.946   0.297  14.426  0.5284  1.5736  0.1264
17293TIP3    H273295   0.935   0.215  14.553  1.9737  0.2467 -0.5594
17294TIP3   OH273296   3.527   0.244  13.021 -0.0515 -0.0404  0.0344
17294TIP3    H173297   3.595   0.177  13.016 -0.6843 -0.6617 -0.2458
17294TIP3    H273298   3.487   0.244  12.934  0.5606  1.3642 -0.2865
17295TIP3   OH273299   2.758   2.582   4.972  0.3057  0.3102  0.1464
17295TIP3    H173300   2.753   2.501   4.922 -0.8442  0.5121 -0.1029
17295TIP3    H273301   2.829   2.632   4.933  0.6386 -0.3341 -0.0668
17296TIP3   OH273302   5.689   3.051   5.187  0.0674 -0.1301  0.2534
17296TIP3    H173303   5.754   3.002   5.137 -1.1399 -0.0272 -1.4791
17296TIP3    H273304   5.688   3.008   5.273  2.3067 -0.1987  0.3159
17297TIP3   OH273305   0.650   3.902   4.102  0.5417 -0.4665  0.1847
17297TIP3    H173306   0.609   3.976   4.145 -1.6217  0.5836 -3.2660
17297TIP3    H273307   0.741   3.905   4.130 -0.0088  2.0451  1.9875
17298TIP3   OH273308   5.045   6.300  13.433  0.3346 -0.2726  0.4220
17298TIP3    H173309   5.068   6.230  13.372 -0.3685 -1.3309  1.3143
17298TIP3    H273310   5.097   6.375  13.405  2.5717 -1.6815  0.5614
17299TIP3   OH273311   1.258   4.096  16.692  0.4860 -0.3862  0.1691
17299TIP3    H173312   1.202   4.039  16.744  0.6292  0.1509  0.9450
17299TIP3    H273313   1.336   4.108  16.746  0.2648  0.8982  0.2321
17300TIP3   OH273314   2.794   1.004   2.461  0.5639 -0.6223 -0.5812
17300TIP3    H173315   2.856   0.986   2.391  2.2299 -0.5582  0.7949
17300TIP3    H273316   2.805   0.931   2.522 -2.3660 -1.8027 -1.2908
17301TIP3   OH273317   1.496   2.862   2.389 -0.3699 -0.2047 -0.5606
17301TIP3    H173318   1.444   2.815   2.324 -1.7237  2.0944 -1.2556
17301TIP3    H273319   1.460   2.833   2.473 -0.5908 -1.0096 -0.9136
17302TIP3   OH273320   3.620   6.282  15.713  0.2035 -0.0066 -0.2937
17302TIP3    H173321   3.611   6.374  15.740 -0.1121  0.1402 -0.8896
17302TIP3    H273322   3.574   6.233  15.781  0.9027  0.2180  0.3656
17303TIP3   OH273323   0.483   4.586   3.427  0.2338  0.0934  0.9208
17303TIP3    H173324   0.482   4.516   3.361 -1.0569  0.8471  0.1016
17303TIP3    H273325   0.523   4.545   3.504  1.1564 -1.0135 -0.0979
17304TIP3   OH273326   3.234   4.640   4.546  0.4748 -0.0227 -0.1957
17304TIP3    H173327   3.147   4.662   4.580  0.9741 -1.0182  1.8969
17304TIP3    H273328   3.220   4.627   4.452 -1.1632  2.0590 -0.3209
17305TIP3   OH273329   5.234   4.614  12.723  0.1863 -0.1229  0.4217
17305TIP3    H173330   5.183   4.626  12.643  1.0063 -1.4511 -0.3290
17305TIP3    H273331   5.215   4.692  12.775 -0.9313  0.4209 -0.7469
17306TIP3   OH273332   0.050   1.203  12.697 -0.2684  0.0087  0.3332
17306TIP3    H173333  -0.018   1.142  12.725  0.5779 -1.1294  0.0265
17306TIP3    H273334   0.009   1.289  12.701 -1.7582 -0.6549  0.0119
17307TIP3   OH273335   1.374   6.092   0.146  0.2079 -0.5790 -0.1563
17307TIP3    H173336   1.416   6.008   0.130  1.5170  0.2739 -1.4728
17307TIP3    H273337   1.304   6.073   0.208 -0.4092 -2.8617 -1.4476
17308TIP3   OH273338   1.292   0.585   6.261 -0.0367 -0.2610 -0.7406
17308TIP3    H173339   1.255   0.504   6.296  0.8646 -1.2861 -2.0829
17308TIP3    H273340   1.349   0.617   6.331 -0.5203 -0.7043 -0.1341
17309TIP3   OH273341   0.708   3.226  12.950 -0.7715  0.1885  0.7741
17309TIP3    H173342   0.724   3.310  12.994 -0.8656  0.6110  0.0320
17309TIP3    H273343   0.705   3.162  13.021  0.3792  0.6494  1.2627
17310TIP3   OH273344   3.485   2.830  13.104 -0.1939 -0.6777 -0.6168
17310TIP3    H173345   3.478   2.749  13.155  0.9338  0.0060  0.7069
17310TIP3    H273346   3.395   2.853  13.083 -0.5928 -1.7494 -0.1434
17311TIP3   OH273347   6.716   1.084   0.068 -0.4281 -0.1090  0.0353
17311TIP3    H173348   6.796   1.131   0.092 -0.6102 -0.2159  0.9063
17311TIP3    H273349   6.746   1.005   0.024 -0.1192  0.8797 -1.6054
17312TIP3   OH273350   2.733   5.925  11.308 -0.1439 -0.2298 -0.0782
17312TIP3    H173351   2.703   5.871  11.380  0.8865 -1.0302 -0.2299
17312TIP3    H273352   2.725   5.869  11.230 -0.2046  0.2482 -0.4250
17313TIP3   OH273353   4.421   2.518   0.813 -0.6660 -0.1628  0.3526
17313TIP3    H173354   4.356   2.589   0.809 -0.7051 -0.1073  1.7230
17313TIP3    H273355   4.387   2.452   0.752 -2.2813 -0.3414  1.3808
17314TIP3   OH273356   2.519   6.464  15.494 -0.5196  0.4691 -0.3375
17314TIP3    H173357   2.473   6.381  15.507 -0.4300  0.0023 -2.5704
17314TIP3    H273358   2.566   6.479  15.576 -0.4222 -1.7648  0.0747
17315TIP3   OH273359   6.742   0.875   1.980 -0.0054 -0.4393 -0.7212
17315TIP3    H173360   6.820   0.834   2.017  0.0779  0.2921 -0.0786
17315TIP3    H273361   6.721   0.821   1.904  1.6885 -0.0810 -1.4893
17316TIP3   OH273362   5.868   1.202  12.213  0.1220  0.7478  0.5073
17316TIP3    H173363   5.830   1.164  12.134  2.1441 -0.8009  0.1985
17316TIP3    H273364   5.911   1.282  12.184 -2.6661  2.4850  0.8523
17317TIP3   OH273365   4.679   1.996  12.259  0.0738 -0.8593  0.0295
17317TIP3    H173366   4.734   2.002  12.181 -0.5144  0.2505 -0.3169
17317TIP3    H273367   4.648   2.085  12.274  0.2133 -1.0449  1.5719
17318TIP3   OH273368   3.735   4.607   4.769  0.1848  0.3636 -0.0900
17318TIP3    H173369   3.717   4.700   4.785  0.2697  0.8083 -2.3421
17318TIP3    H273370   3.830   4.601   4.763  0.2403 -0.0639  0.9284
17319TIP3   OH273371   5.053   2.382  12.966 -0.2798  0.2567 -0.4487
17319TIP3    H173372   5.134   2.332  12.974 -0.7390 -0.5611 -0.7421
17319TIP3    H273373   5.019   2.386  13.055 -0.1605  0.1745 -0.3983
17320TIP3   OH273374   0.054   0.195   5.224  0.7886  0.0420  0.3983
17320TIP3    H173375  -0.037   0.187   5.253  0.6959 -0.8675 -0.0906
17320TIP3    H273376   0.048   0.235   5.137  0.6671 -1.8572 -0.5334
17321TIP3   OH273377   4.385   5.517  10.980  0.8377 -0.2517 -0.3345
17321TIP3    H173378   4.343   5.588  11.028  0.3540  0.5159 -1.8029
17321TIP3    H273379   4.478   5.538  10.982  1.0534 -1.2178  1.7644
17322TIP3   OH273380   0.026   2.945  11.606  0.5018 -0.5367  0.1447
17322TIP3    H173381   0.069   2.972  11.524  0.4731 -0.1381  0.2615
17322TIP3    H273382   0.041   2.850  11.610  3.7895 -0.1181  1.5315
17323TIP3   OH273383   0.900   0.105   4.145  0.8529  0.3571  0.6650
17323TIP3    H173384   0.958   0.076   4.075 -1.1582 -0.2775 -0.7929
17323TIP3    H273385   0.831   0.039   4.149 -1.3933  2.5509  0.3141
17324TIP3   OH273386   2.445   3.413   4.592 -0.0264 -0.0026  0.0046
17324TIP3    H173387   2.381   3.437   4.525  1.1412  0.4591 -0.9801
17324TIP3    H273388   2.519   3.379   4.542  1.2788  1.2984  1.0049
17325TIP3   OH273389   1.767   2.833  13.671  0.7862  0.0889  0.0805
17325TIP3    H173390   1.816   2.766  13.624  1.5903  2.3968 -2.6359
17325TIP3    H273391   1.823   2.857  13.745  1.7851 -0.2790 -0.5437
17326TIP3   OH273392   0.990   5.329  11.225 -0.3681 -0.4919  0.5290
17326TIP3    H173393   0.949   5.242  11.225  1.2414 -1.3028 -0.7360
17326TIP3    H273394   1.082   5.312  11.245  0.0778  0.8527 -0.2855
17327TIP3   OH273395   4.511   0.815  16.611 -0.0960 -0.2755  0.6858
17327TIP3    H173396   4.514   0.771  16.526 -0.2545  0.7222  0.1522
17327TIP3    H273397   4.418   0.823  16.631 -0.1189  0.8362  0.2191
17328TIP3   OH273398   0.355   1.253  12.865  0.7887  0.1760  0.7223
17328TIP3    H173399   0.301   1.223  12.939  3.4477 -1.8005  2.0336
17328TIP3    H273400   0.360   1.348  12.876 -0.1665  0.0945  2.1310
17329TIP3   OH273401   1.237   0.576   5.261  0.0330 -0.1627  0.8428
17329TIP3    H173402   1.224   0.546   5.171 -0.3679  0.1967  0.7730
17329TIP3    H273403   1.323   0.617   5.261 -0.1385  0.2112  0.5103
17330TIP3   OH273404   1.575   6.404  11.769 -0.0202 -0.1865  0.5376
17330TIP3    H173405   1.479   6.408  11.772 -0.1858 -2.1144 -0.5034
17330TIP3    H273406   1.594   6.363  11.685  1.7011 -0.4226  1.0180
17331TIP3   OH273407   2.098   0.730  15.275 -0.0666 -0.5579 -0.0298
17331TIP3    H173408   2.042   0.719  15.352 -3.0688  0.1066 -1.9366
17331TIP3    H273409   2.107   0.825  15.267 -0.7922 -0.5594 -1.0925
17332TIP3   OH273410   3.030   1.285  15.944  0.2673  0.5523 -0.6335
17332TIP3    H173411   3.068   1.198  15.932  0.7164  0.8163 -1.2248
17332TIP3    H273412   2.970   1.276  16.017  0.4818 -0.2014 -0.5449
17333TIP3   OH273413   4.571   5.666   6.282 -0.0349  0.0804  0.7328
17333TIP3    H173414   4.522   5.729   6.230 -0.2833  0.9055  1.9344
17333TIP3    H273415   4.542   5.581   6.250 -1.6149  0.5506  0.8246
17334TIP3   OH273416   1.333   4.679  12.009 -0.3381 -0.1599 -0.2927
17334TIP3    H173417   1.330   4.769  11.977  1.3557  0.6079  1.4683
17334TIP3    H273418   1.268   4.677  12.080 -0.9423 -0.5840 -0.8446
17335TIP3   OH273419   5.139   3.670   4.424 -0.0465  0.7503  0.4415
17335TIP3    H173420   5.053   3.660   4.466 -0.6062  1.5544 -0.4651
17335TIP3    H273421   5.121   3.654   4.331  0.5217  2.2387  0.0614
17336TIP3   OH273422   3.636   4.328   4.582 -0.3141  0.2049 -0.1198
17336TIP3    H173423   3.572   4.378   4.532 -0.2661  0.5561  0.1669
17336TIP3    H273424   3.633   4.365   4.670 -1.0448 -0.9856  0.3890
17337TIP3   OH273425   0.423   0.308   4.613 -0.0735 -0.1660  0.3983
17337TIP3    H173426   0.412   0.328   4.706  2.0315 -0.1841  0.7080
17337TIP3    H273427   0.502   0.254   4.610  0.4896  0.6955 -1.4986
17338TIP3   OH273428   4.483   0.167  16.699  0.4589  0.1079 -0.2474
17338TIP3    H173429   4.507   0.252  16.660 -1.3762 -0.5040 -2.9768
17338TIP3    H273430   4.513   0.102  16.635 -2.3355 -0.9778 -0.6246
17339TIP3   OH273431   1.081   2.794   2.083  0.0441 -0.0829  0.4549
17339TIP3    H173432   1.087   2.792   1.987 -1.3552  0.4273  0.3263
17339TIP3    H273433   1.078   2.887   2.105  0.5990 -0.1952  1.0186
17340TIP3   OH273434   4.061   6.449  12.998  0.8136  0.0949 -0.1185
17340TIP3    H173435   4.094   6.371  12.954 -0.4516 -0.9727  0.7701
17340TIP3    H273436   3.987   6.477  12.944 -0.4888 -0.9815  1.0664
17341TIP3   OH273437   0.578   3.099   0.846  0.0391 -0.3419  0.1082
17341TIP3    H173438   0.579   3.040   0.770  2.7195 -1.7787  1.1004
17341TIP3    H273439   0.661   3.147   0.839 -0.9365  1.5055  0.7107
17342TIP3   OH273440   0.338   3.100   0.658 -0.0751 -0.1236 -0.2291
17342TIP3    H173441   0.311   3.136   0.573  3.0270  0.4695 -1.0848
17342TIP3    H273442   0.407   3.038   0.637 -0.9815 -1.9458  1.7607
17343TIP3   OH273443   2.696   0.074   0.038 -0.1617  0.5509 -0.1339
17343TIP3    H173444   2.669   0.133  -0.033  0.4393  0.7406 -0.2112
17343TIP3    H273445   2.662   0.115   0.117 -1.4775 -0.0394 -0.3653
17344TIP3   OH273446   1.528   1.423   0.885  0.2283 -0.1950  0.2664
17344TIP3    H173447   1.620   1.432   0.912  0.0818 -0.1014  0.7427
17344TIP3    H273448   1.478   1.438   0.965 -0.1571 -1.7883  0.3488
17345TIP3   OH273449   2.880   0.366  15.932  0.1821  0.0728 -0.3177
17345TIP3    H173450   2.813   0.305  15.901  0.6340  0.1771 -1.5239
17345TIP3    H273451   2.893   0.428  15.860 -0.7686  2.0661  1.1290
17346TIP3   OH273452   4.639   4.590  11.825  0.5080  0.1298  0.1753
17346TIP3    H173453   4.571   4.654  11.801 -0.3988 -1.7392 -2.7816
17346TIP3    H273454   4.593   4.525  11.878  0.2937 -0.4151 -0.6646
17347TIP3   OH273455   1.157   6.753   4.379  0.5207  0.1030  0.7402
17347TIP3    H173456   1.242   6.711   4.394  0.1176 -0.3749  1.7757
17347TIP3    H273457   1.093   6.682   4.389  0.0284  0.3040 -0.7444
17348TIP3   OH273458   0.298   3.761  11.260 -0.8144  0.1046 -0.1551
17348TIP3    H173459   0.312   3.745  11.166  1.2029 -2.1582  0.4318
17348TIP3    H273460   0.386   3.759  11.298 -1.7871 -3.1585  2.3020
17349TIP3   OH273461   6.066   3.079  10.252  0.2205  0.3885  0.1441
17349TIP3    H173462   6.088   3.157  10.303 -0.0787  1.3982 -1.2108
17349TIP3    H273463   5.976   3.095  10.222  0.1803 -0.4548 -0.2174
17350TIP3   OH273464   4.426   0.680   3.291  0.2705  0.2676  0.1148
17350TIP3    H173465   4.514   0.645   3.308  0.6277  1.3874  0.6564
17350TIP3    H273466   4.408   0.657   3.200  1.4487  0.6861 -0.2439
17351TIP3   OH273467   5.563   3.762   6.252  0.0568  0.7215  0.6585
17351TIP3    H173468   5.631   3.822   6.219  0.3310 -0.9850 -2.2137
17351TIP3    H273469   5.481   3.803   6.226  0.2434 -0.0549 -1.2886
17352TIP3   OH273470   0.468   4.181   0.820  0.1568  0.1986 -0.5592
17352TIP3    H173471   0.382   4.179   0.862  1.6885  0.0377  2.9341
17352TIP3    H273472   0.501   4.092   0.830  1.2851  0.6089 -0.5581
17353TIP3   OH273473   1.141   6.225   2.663 -0.1898 -0.1247 -0.4788
17353TIP3    H173474   1.184   6.154   2.710  1.4577  0.9130 -0.3361
17353TIP3    H273475   1.140   6.298   2.724 -0.5336  0.4144 -1.1125
17354TIP3   OH273476   2.255   2.224   3.992 -0.4943 -0.1269 -0.1240
17354TIP3    H173477   2.207   2.144   3.971 -0.2738 -0.6323  1.2290
17354TIP3    H273478   2.347   2.200   3.981 -0.4416  0.0954 -0.1874
17355TIP3   OH273479   5.953   3.705  12.094 -0.2373  0.4447  0.3563
17355TIP3    H173480   5.959   3.752  12.011 -0.0593 -1.2487 -0.6572
17355TIP3    H273481   5.862   3.675  12.098 -0.0771 -0.0524  0.4144
17356TIP3   OH273482   5.054   3.500   3.760  0.1102  0.4806  0.4961
17356TIP3    H173483   5.134   3.452   3.783 -0.1771  0.3032  1.1461
17356TIP3    H273484   5.077   3.592   3.774  0.9816  0.6473 -1.7177
17357TIP3   OH273485   3.103   6.434   3.961 -1.1394 -0.4671 -0.4730
17357TIP3    H173486   3.080   6.421   3.869 -1.2356  0.1935 -0.5426
17357TIP3    H273487   3.028   6.399   4.010 -1.0003 -1.0045 -0.6312
17358TIP3   OH273488   2.940   6.414   1.136  0.3620  0.9001 -0.1014
17358TIP3    H173489   3.007   6.367   1.184 -1.6804 -1.1783  0.9003
17358TIP3    H273490   2.880   6.446   1.203 -0.9420  0.5871 -1.0782
17359TIP3   OH273491   0.469   6.687   2.995  0.3992  0.4289  0.2745
17359TIP3    H173492   0.385   6.693   3.040  0.7916 -2.4070  1.6694
17359TIP3    H273493   0.447   6.661   2.906 -0.2620 -0.8759  0.7841
17360TIP3   OH273494   2.991   0.434   1.842 -0.1988 -0.4864  0.3675
17360TIP3    H173495   2.966   0.416   1.752 -1.9452 -1.0220  0.9126
17360TIP3    H273496   2.953   0.361   1.892  0.2393  0.1005  1.5994
17361TIP3   OH273497   0.827   3.955  10.556 -0.0949  0.4815 -1.1797
17361TIP3    H173498   0.850   3.886  10.618 -0.1601  0.0677 -1.6198
17361TIP3    H273499   0.812   3.910  10.473 -0.9236  0.9172 -1.2833
17362TIP3   OH273500   2.331   6.586  11.528  0.0421  0.7305  0.2035
17362TIP3    H173501   2.292   6.632  11.454  1.3604  2.3021  0.4313
17362TIP3    H273502   2.345   6.496  11.496  0.7851  1.4216 -1.5330
17363TIP3   OH273503   2.072   2.989  16.252  0.0558  0.4855  0.1683
17363TIP3    H173504   2.044   3.077  16.276  0.9660  0.8487 -0.0642
17363TIP3    H273505   2.040   2.978  16.162  1.7903  1.4403 -0.6200
17364TIP3   OH273506   5.149   2.079   0.456  0.2400  0.2079  0.2596
17364TIP3    H173507   5.054   2.069   0.466  0.1218  0.5443 -0.4696
17364TIP3    H273508   5.178   2.114   0.540 -0.3702  0.6666  0.2901
17365TIP3   OH273509   3.297   0.889  16.198  0.3195  0.2684  0.0827
17365TIP3    H173510   3.276   0.831  16.271 -1.3097 -2.5178 -2.3679
17365TIP3    H273511   3.382   0.858  16.166  0.4726  0.6928  0.0738
17366TIP3   OH273512   2.721   0.500   4.016  0.5123  0.0968  0.2312
17366TIP3    H173513   2.698   0.460   4.100 -0.2409 -0.6296 -0.3007
17366TIP3    H273514   2.813   0.479   4.004  0.9732  1.3077  1.4622
17367TIP3   OH273515   0.541   1.960  15.960  0.0173  0.8439 -0.0364
17367TIP3    H173516   0.504   1.878  15.929 -0.7694  1.0977  0.2026
17367TIP3    H273517   0.620   1.934  16.007  1.9203  0.5308 -3.1533
17368TIP3   OH273518   6.652   1.417   6.142 -0.0724 -0.0543 -0.2504
17368TIP3    H173519   6.603   1.434   6.223 -1.7425 -1.3570 -0.9247
17368TIP3    H273520   6.673   1.504   6.109 -1.0294  0.5453  0.6280
17369TIP3   OH273521   6.595   6.212  16.557 -0.3862 -0.0976 -0.3179
17369TIP3    H173522   6.611   6.164  16.475 -1.1632 -0.5319 -0.2319
17369TIP3    H273523   6.641   6.295  16.546 -0.4050 -0.1870 -1.1638
17370TIP3   OH273524   3.543   6.055  11.636  0.1234  0.4943  0.0318
17370TIP3    H173525   3.583   6.028  11.719 -2.2359 -1.3845  0.6739
17370TIP3    H273526   3.573   5.990  11.573 -1.0909 -0.4214  0.3375
17371TIP3   OH273527   1.495   4.170  15.759 -0.9165  0.4329  0.1766
17371TIP3    H173528   1.532   4.130  15.680  0.2824  0.4363  0.7108
17371TIP3    H273529   1.572   4.191  15.813 -1.6606  1.2414  0.9562
17372TIP3   OH273530   6.061   3.955  11.043 -0.4496  0.0703 -0.1801
17372TIP3    H173531   5.970   3.925  11.050 -0.5555  0.2721 -0.6569
17372TIP3    H273532   6.102   3.923  11.123 -0.3095 -2.1301 -1.0608
17373TIP3   OH273533   5.513   4.993   2.996  0.4054  0.0994 -0.3696
17373TIP3    H173534   5.473   5.004   2.909 -3.3705  0.9205  1.2551
17373TIP3    H273535   5.538   5.081   3.022  0.0683  0.0956 -0.0257
17374TIP3   OH273536   5.915   5.467   4.876  0.1334 -0.9703 -0.2883
17374TIP3    H173537   5.892   5.380   4.909 -5.1508  0.2870  0.2441
17374TIP3    H273538   5.891   5.464   4.783 -1.6406  0.2360  0.0831
17375TIP3   OH273539   2.355   2.260  12.421 -0.4085  0.2504 -0.3363
17375TIP3    H173540   2.330   2.348  12.450 -1.1385  0.0315 -0.3021
17375TIP3    H273541   2.281   2.204  12.445  0.2792 -0.4778  0.1410
17376TIP3   OH273542   2.140   4.412   2.926  0.2409 -0.3027 -0.4703
17376TIP3    H173543   2.123   4.370   3.011  1.6474  0.3491  0.1518
17376TIP3    H273544   2.174   4.341   2.871  1.7666 -0.2231  0.3113
17377TIP3   OH273545   4.574   1.590  16.760  0.2015  0.0156  0.7895
17377TIP3    H173546   4.568   1.538  16.679 -1.0667  1.3099  0.0236
17377TIP3    H273547   4.668   1.592  16.779  0.4022 -1.4827  0.1524
17378TIP3   OH273548   1.494   3.732  12.973  0.1536  0.5137 -0.1498
17378TIP3    H173549   1.440   3.662  13.008  3.0099 -1.8553 -0.0446
17378TIP3    H273550   1.472   3.808  13.027 -1.7429 -0.7633  1.0009
17379TIP3   OH273551   3.078   5.672   1.019  1.0369  0.1401 -0.1037
17379TIP3    H173552   3.019   5.617   0.967 -0.5473 -0.1892  1.9197
17379TIP3    H273553   3.052   5.762   0.999 -0.0451  0.0027  0.5744
17380TIP3   OH273554   6.155   2.551   2.340  0.1317 -0.2022  0.0771
17380TIP3    H173555   6.083   2.489   2.350 -1.5600  1.0175 -3.1609
17380TIP3    H273556   6.213   2.510   2.274 -0.2154  0.9163 -0.9628
17381TIP3   OH273557   5.368   5.654  16.130  0.1247  0.0322  0.1601
17381TIP3    H173558   5.346   5.597  16.056  0.4419 -0.4329  0.4134
17381TIP3    H273559   5.327   5.738  16.109 -1.2859 -0.5939  0.2971
17382TIP3   OH273560   5.999   3.662  14.471  0.0893 -0.3327 -0.3238
17382TIP3    H173561   5.928   3.678  14.409  0.7570 -0.4861 -1.1359
17382TIP3    H273562   6.030   3.750  14.494  0.2657 -0.2982 -0.6968
17383TIP3   OH273563   2.729   2.519   1.130  0.5407 -1.0341  0.4112
17383TIP3    H173564   2.755   2.584   1.195 -1.1342 -0.7161  0.8142
17383TIP3    H273565   2.806   2.509   1.074  0.8534  1.3861  0.2822
17384TIP3   OH273566   4.453   2.225  16.052  0.5542  0.1662  0.2201
17384TIP3    H173567   4.549   2.230  16.057  0.6461  0.3137 -1.2483
17384TIP3    H273568   4.423   2.303  16.098  1.1959  0.8332 -0.4612
17385TIP3   OH273569   2.548   1.381  15.982 -0.8100  0.2485 -0.3219
17385TIP3    H173570   2.552   1.316  16.053 -2.4857  0.5496  0.0894
17385TIP3    H273571   2.489   1.342  15.918  0.5084  0.0838 -1.4824
17386TIP3   OH273572   4.028   4.318   0.756 -0.5976 -0.2857  0.1127
17386TIP3    H173573   3.948   4.275   0.787  0.0700 -1.0811  0.7761
17386TIP3    H273574   4.088   4.315   0.830  0.2563 -0.2141 -0.5550
17387TIP3   OH273575   6.349   3.934  12.907 -0.0989 -0.6024  0.3262
17387TIP3    H173576   6.373   4.007  12.850 -2.0440  0.6427  1.0089
17387TIP3    H273577   6.430   3.913  12.954  1.2536 -0.8916 -1.9510
17388TIP3   OH273578   3.955   2.956   0.285  0.1006  0.2164  0.2721
17388TIP3    H173579   4.047   2.935   0.267  0.7058  2.1216  0.8718
17388TIP3    H273580   3.922   2.988   0.201 -0.4316 -1.7040 -0.2874
17389TIP3   OH273581   3.786   0.712   4.652 -0.1157  0.4487 -0.7152
17389TIP3    H173582   3.716   0.649   4.673  0.4657  0.0962  0.2361
17389TIP3    H273583   3.854   0.659   4.611 -0.0432  0.6444 -0.8481
17390TIP3   OH273584   5.513   6.009  14.626  0.4852  0.1107 -0.0176
17390TIP3    H173585   5.587   6.054  14.666  0.2866  1.3398 -0.9636
17390TIP3    H273586   5.521   5.918  14.654  0.3813  0.8692  2.7469
17391TIP3   OH273587   2.003   5.638  16.173 -0.0852 -0.3404 -0.1450
17391TIP3    H173588   1.950   5.689  16.234 -0.0588 -0.5233  0.0317
17391TIP3    H273589   2.031   5.701  16.106 -0.2022 -0.1634 -0.0273
17392TIP3   OH273590   1.309   2.850  16.218  0.1946  0.2780  0.2793
17392TIP3    H173591   1.288   2.759  16.239  1.6027  0.3677  2.3339
17392TIP3    H273592   1.362   2.844  16.139  1.6753 -0.8754  1.3076
17393TIP3   OH273593   0.398   5.631   3.176  0.2370  0.4846 -0.0276
17393TIP3    H173594   0.457   5.698   3.141 -0.0890  0.7245 -0.1316
17393TIP3    H273595   0.344   5.678   3.241 -1.2083  0.7761 -1.3659
17394TIP3   OH273596   0.063   4.573   5.828  0.3082  0.6918  0.9565
17394TIP3    H173597   0.101   4.641   5.883  0.5247  0.5510  0.9831
17394TIP3    H273598   0.138   4.519   5.801  0.4083  1.5288 -0.5779
17395TIP3   OH273599   6.341   5.406  14.174  0.8074  0.7327  0.0886
17395TIP3    H173600   6.288   5.479  14.141 -1.3947 -0.4213  0.8579
17395TIP3    H273601   6.320   5.401  14.267  1.6794 -0.2682  0.2566
17396TIP3   OH273602   3.111   4.488   0.066  0.6874  0.3298  0.3100
17396TIP3    H173603   3.109   4.540   0.146 -1.1532  2.2786 -0.8907
17396TIP3    H273604   3.078   4.547  -0.002 -0.1867 -1.9937 -1.4313
17397TIP3   OH273605   0.544   3.854   3.848  0.2130  0.2981  0.5787
17397TIP3    H173606   0.569   3.853   3.940  1.6829 -1.8064  0.2087
17397TIP3    H273607   0.615   3.902   3.805 -0.6662  1.6231  0.5507
17398TIP3   OH273608   6.226   3.724  14.073 -0.7098 -0.3012 -0.1894
17398TIP3    H173609   6.195   3.764  13.992 -0.0806 -1.3969 -0.9934
17398TIP3    H273610   6.163   3.653  14.090 -0.4097 -0.5553 -0.1324
17399TIP3   OH273611   1.691   3.878  14.121  0.4229  0.8438  0.2504
17399TIP3    H173612   1.676   3.796  14.167  0.2284  1.5275  1.4359
17399TIP3    H273613   1.617   3.885  14.060 -0.8040  1.2012  1.7199
17400TIP3   OH273614   4.904   0.783   3.750  0.3293  0.5863  0.1399
17400TIP3    H173615   4.825   0.811   3.797  0.6471 -0.1645  1.1509
17400TIP3    H273616   4.878   0.785   3.658 -1.1908 -0.5402  0.4928
17401TIP3   OH273617   5.813   0.654  13.963  0.2376  0.0716 -0.4595
17401TIP3    H173618   5.778   0.583  13.909  2.4470 -0.9250 -0.6920
17401TIP3    H273619   5.742   0.717  13.968 -1.1160 -1.2333 -1.9413
17402TIP3   OH273620   3.753   5.984   2.088 -0.6337 -0.2286  0.3235
17402TIP3    H173621   3.691   5.992   2.161  0.7279  0.4116  1.4548
17402TIP3    H273622   3.736   6.061   2.034 -2.6139 -1.4166 -0.8770
17403TIP3   OH273623   4.318   2.638  15.309 -0.6947 -0.0102  0.3081
17403TIP3    H173624   4.383   2.637  15.378 -1.0056 -1.6642  0.6249
17403TIP3    H273625   4.238   2.669  15.352 -0.6554 -0.1333  0.4713
17404TIP3   OH273626   0.597   1.142  13.158 -0.4181  0.2618  0.3981
17404TIP3    H173627   0.661   1.131  13.228  0.5229  1.9346 -0.1524
17404TIP3    H273628   0.577   1.235  13.158  0.1902  0.4563 -2.0138
17405TIP3   OH273629   5.313   5.393  11.866 -0.1979 -0.7721  0.0321
17405TIP3    H173630   5.276   5.419  11.950  0.3335  2.1067 -0.4991
17405TIP3    H273631   5.275   5.455  11.803  0.4808 -1.9515 -1.6179
17406TIP3   OH273632   6.195   6.629   0.493  0.3776 -0.0880  0.5129
17406TIP3    H173633   6.132   6.622   0.422  1.4605  0.2607 -0.5039
17406TIP3    H273634   6.156   6.693   0.553 -0.7025 -0.6504  0.4314
17407TIP3   OH273635   6.375   0.209   3.508  0.5088 -0.7573  0.7226
17407TIP3    H173636   6.342   0.292   3.475 -0.6816 -1.3808  0.2930
17407TIP3    H273637   6.328   0.143   3.457  1.7489 -1.6964  0.7504
17408TIP3   OH273638   1.463   1.717   0.903 -1.2566 -0.4894  0.0916
17408TIP3    H173639   1.508   1.643   0.861 -1.0013 -1.1695  1.5110
17408TIP3    H273640   1.404   1.750   0.835  0.9362  0.0999 -1.6726
17409TIP3   OH273641   1.705   1.767  15.048 -0.2734 -0.3101 -0.1940
17409TIP3    H173642   1.703   1.847  14.996 -0.0381 -0.7339 -0.8719
17409TIP3    H273643   1.752   1.791  15.128 -0.9362  0.4347 -0.0216
17410TIP3   OH273644   4.008   2.743   2.550  0.9863  0.1325 -0.2607
17410TIP3    H173645   3.997   2.792   2.631 -2.0720 -3.4366  1.8428
17410TIP3    H273646   4.100   2.718   2.548  2.2873  4.3162 -0.6699
17411TIP3   OH273647   1.438   4.005   4.004  0.4214 -0.3861  0.1985
17411TIP3    H173648   1.428   4.070   4.074  0.5236  0.0047 -0.1469
17411TIP3    H273649   1.350   3.997   3.967  0.7272  0.8106 -0.8583
17412TIP3   OH273650   2.781   0.546  14.650 -0.0936 -0.7142  0.6825
17412TIP3    H173651   2.712   0.482  14.673  2.9215 -3.7570  2.1856
17412TIP3    H273652   2.759   0.624  14.701 -2.1676 -1.7328  1.4791
17413TIP3   OH273653   4.761   2.494   0.072 -0.9066  0.4363  0.5473
17413TIP3    H173654   4.699   2.422   0.082 -1.3531  0.6162 -0.7447
17413TIP3    H273655   4.723   2.565   0.124  0.0136 -0.4986  2.6123
17414TIP3   OH273656   5.615   2.180   2.329  0.5510 -0.3558 -0.2445
17414TIP3    H173657   5.673   2.105   2.333  0.5770 -0.4456 -1.8202
17414TIP3    H273658   5.594   2.199   2.421  0.5674 -2.2421  0.1834
17415TIP3   OH273659   1.730   2.758  14.464  0.4049 -0.4186 -0.1290
17415TIP3    H173660   1.753   2.745  14.372  0.8551 -3.2415  0.3040
17415TIP3    H273661   1.799   2.814  14.499  1.5705 -1.3230 -0.9455
17416TIP3   OH273662   3.218   2.951   3.917  0.3621  0.4286  0.1295
17416TIP3    H173663   3.268   2.973   3.839  1.9853  0.1179  1.0437
17416TIP3    H273664   3.255   2.868   3.948 -0.8473  0.0924  0.7406
17417TIP3   OH273665   2.547   0.409  14.629 -0.2867  0.1191  0.4745
17417TIP3    H173666   2.459   0.404  14.668 -0.9059  1.1931 -0.7243
17417TIP3    H273667   2.532   0.411  14.535  0.9801  0.8998  0.2584
17418TIP3   OH273668   0.666   2.016   3.128 -0.4003 -0.1573 -0.1687
17418TIP3    H173669   0.639   1.996   3.218  0.0980 -0.6177 -0.1214
17418TIP3    H273670   0.650   2.110   3.119 -1.0544 -0.2289  0.1926
17419TIP3   OH273671   1.746   6.563   2.578 -0.7736 -0.4728  0.2546
17419TIP3    H173672   1.743   6.547   2.672 -0.4669  0.1395  0.3721
17419TIP3    H273673   1.761   6.657   2.570  0.7358 -0.7441 -0.3909
17420TIP3   OH273674   2.093   3.770   1.027 -0.0765  0.3557 -0.2635
17420TIP3    H173675   2.103   3.675   1.018 -0.6161  0.3548 -0.9060
17420TIP3    H273676   2.132   3.790   1.113 -1.7277 -0.7299  0.7920
17421TIP3   OH273677   4.286   2.192  16.620  0.5260  0.1385 -0.0407
17421TIP3    H173678   4.263   2.119  16.677 -0.2626  0.8892  0.6237
17421TIP3    H273679   4.351   2.242  16.669 -0.7511  1.2386  0.5757
17422TIP3   OH273680   3.963   0.112  11.250  0.5344  0.4058 -0.4464
17422TIP3    H173681   4.045   0.094  11.202  0.1476 -1.4611 -0.4703
17422TIP3    H273682   3.898   0.126  11.181  0.5790  0.6670 -0.4368
17423TIP3   OH273683   4.841   6.170  17.028  0.0527 -0.2058 -0.0370
17423TIP3    H173684   4.926   6.211  17.013  0.8976 -1.0013  2.1089
17423TIP3    H273685   4.777   6.240  17.015  1.3154  1.3966  1.8868
17424TIP3   OH273686   2.333   1.121   2.441  0.1915 -0.4775 -0.2840
17424TIP3    H173687   2.240   1.103   2.425 -0.4371  0.7648  1.5773
17424TIP3    H273688   2.360   1.175   2.367 -1.1881  0.9246  0.1734
17425TIP3   OH273689   4.455   2.554   3.885  0.5802  0.0390  0.1887
17425TIP3    H173690   4.517   2.493   3.924 -0.1092 -0.9819 -0.2518
17425TIP3    H273691   4.476   2.639   3.924  0.7255 -0.7081  1.8120
17426TIP3   OH273692   6.091   0.360   3.895  0.0738 -0.2565 -0.3205
17426TIP3    H173693   6.088   0.441   3.946  1.1060 -0.7362  0.5401
17426TIP3    H273694   6.009   0.359   3.846 -0.7249  0.4725  0.9585
17427TIP3   OH273695   2.982   6.754   1.993  0.4613 -0.2942 -0.1678
17427TIP3    H173696   3.054   6.703   2.030 -1.3407 -1.8304  1.4735
17427TIP3    H273697   2.913   6.748   2.059 -1.2742  0.8544 -1.7904
17428TIP3   OH273698   6.018   4.413   3.973  0.6869  1.2101  0.2965
17428TIP3    H173699   6.011   4.360   3.893  0.3805  1.1261  0.3784
17428TIP3    H273700   5.952   4.377   4.032 -0.7046  2.7292 -0.2472
17429TIP3   OH273701   1.818   3.612  15.228  0.1654 -0.2799 -0.1152
17429TIP3    H173702   1.856   3.692  15.264 -1.5286  1.4982 -2.0597
17429TIP3    H273703   1.868   3.596  15.148 -1.2492  0.4625 -1.1888
17430TIP3   OH273704   2.306   6.723  11.899 -0.0804 -0.7754 -0.2786
17430TIP3    H173705   2.226   6.676  11.923 -0.0897 -1.3134 -1.3399
17430TIP3    H273706   2.288   6.814  11.923 -1.8173 -0.5094 -2.3343
17431TIP3   OH273707   4.030   3.185   3.954 -0.0082 -0.4137 -0.1914
17431TIP3    H173708   3.957   3.122   3.952 -0.8013  0.2369  3.0505
17431TIP3    H273709   3.993   3.265   3.916 -0.4442 -0.5748 -0.1166
17432TIP3   OH273710   5.908   1.595   0.651  0.5874 -0.1852 -0.3843
17432TIP3    H173711   5.894   1.634   0.737  0.5110  0.3965 -0.6555
17432TIP3    H273712   5.832   1.538   0.637  0.3459  0.1128 -0.2837
17433TIP3   OH273713   4.260   2.639  11.335 -0.0470 -0.2856 -0.1000
17433TIP3    H173714   4.231   2.592  11.257  0.8040  1.7804 -1.7388
17433TIP3    H273715   4.355   2.631  11.334  0.0707  0.9742 -0.0852
17434TIP3   OH273716   3.973   5.971  11.842  0.0629 -0.5073  0.3854
17434TIP3    H173717   4.061   5.966  11.880 -0.2201  0.1736  1.1582
17434TIP3    H273718   3.958   5.883  11.807  1.4756 -0.3249 -0.7727
17435TIP3   OH273719   2.402   5.300  13.075  0.1718  0.2126  0.3044
17435TIP3    H173720   2.465   5.235  13.104  1.2134  0.8813 -0.3942
17435TIP3    H273721   2.414   5.374  13.134 -0.6705 -0.0262  0.7926
17436TIP3   OH273722   4.309   0.961  14.402  0.2286 -0.5921 -0.6646
17436TIP3    H173723   4.323   0.957  14.307  0.4953 -0.3551 -0.6365
17436TIP3    H273724   4.248   1.034  14.413 -0.0547 -0.8273 -0.6822
17437TIP3   OH273725   1.387   4.251   1.634 -0.0527  0.3096  0.3601
17437TIP3    H173726   1.334   4.325   1.663 -1.4861 -0.1262 -1.0112
17437TIP3    H273727   1.418   4.211   1.715 -1.6875  0.6888  1.2247
17438TIP3   OH273728   6.416   4.545   3.329 -0.6069 -0.0043 -0.1673
17438TIP3    H173729   6.391   4.636   3.345 -0.4579 -0.2438  1.6543
17438TIP3    H273730   6.342   4.494   3.362 -1.8131 -0.5750 -3.3859
17439TIP3   OH273731   6.591   6.669  14.901  0.4504 -0.1712 -0.2081
17439TIP3    H173732   6.671   6.669  14.954  0.0094 -1.6052  0.4998
17439TIP3    H273733   6.618   6.629  14.818  0.4909 -0.6112  0.0127
17440TIP3   OH273734   4.546   3.572   0.208 -0.1373  0.0407  0.0797
17440TIP3    H173735   4.476   3.601   0.267 -0.3210 -0.5930  0.1745
17440TIP3    H273736   4.581   3.654   0.171 -1.2958  0.3373 -0.4038
17441TIP3   OH273737   2.294   2.813   2.397  0.1157 -0.1851  0.6423
17441TIP3    H173738   2.240   2.808   2.318 -1.8966  0.0320  1.9464
17441TIP3    H273739   2.254   2.751   2.457  1.4710 -0.1606  1.6140
17442TIP3   OH273740   4.310   1.335  15.655 -0.1007  0.3092  0.0768
17442TIP3    H173741   4.374   1.391  15.611  0.7754  1.0734  2.1663
17442TIP3    H273742   4.266   1.288  15.585  1.7952  0.8073 -1.5189
17443TIP3   OH273743   3.641   1.697  17.186  0.3842 -0.1608 -0.0244
17443TIP3    H173744   3.595   1.751  17.250  2.0240  3.3239 -1.5438
17443TIP3    H273745   3.581   1.692  17.111  1.0304  1.4517 -0.6857
17444TIP3   OH273746   2.297   6.213   2.264  0.0079  0.1198  0.3553
17444TIP3    H173747   2.260   6.201   2.352  0.0961 -0.8369  0.2753
17444TIP3    H273748   2.221   6.215   2.207 -0.0684  1.0938  0.4857
17445TIP3   OH273749   3.742   5.747  11.162 -1.3942 -0.0636 -1.1431
17445TIP3    H173750   3.711   5.795  11.238 -1.3334  1.3689 -1.9949
17445TIP3    H273751   3.663   5.714  11.119 -1.3891 -1.6989  0.0239
17446TIP3   OH273752   5.511   0.807  11.155  0.2498  0.7566  0.4360
17446TIP3    H173753   5.541   0.751  11.083  0.0221  0.4647  0.5661
17446TIP3    H273754   5.536   0.760  11.234 -0.4085  0.5871  0.5458
17447TIP3   OH273755   2.570   6.545  12.852 -0.1410 -0.2851  1.0529
17447TIP3    H173756   2.484   6.522  12.886 -0.3822 -2.3405 -0.7140
17447TIP3    H273757   2.577   6.497  12.769  2.4122  0.3977  0.7791
17448TIP3   OH273758   2.540   4.887   2.680 -0.2306  0.7122  0.3634
17448TIP3    H173759   2.489   4.967   2.689  0.0925  1.0084 -0.3477
17448TIP3    H273760   2.516   4.834   2.756 -2.1743  0.5171 -0.3107
17449TIP3   OH273761   2.726   0.952  17.110 -0.4889  0.5610  0.1422
17449TIP3    H173762   2.688   0.964  17.197 -1.5829  0.9531 -0.3702
17449TIP3    H273763   2.662   0.901  17.062 -0.6643  1.7239 -0.9207
17450TIP3   OH273764   6.479   6.511  13.344  0.1159  0.3891  0.5482
17450TIP3    H173765   6.520   6.427  13.324 -1.1072 -0.0611 -0.1893
17450TIP3    H273766   6.385   6.493  13.340 -0.1654  1.5700  1.3674
17451TIP3   OH273767   6.173   5.717   2.548  0.1071 -0.5204 -0.1749
17451TIP3    H173768   6.097   5.685   2.596 -0.6113  1.5001  0.1084
17451TIP3    H273769   6.141   5.792   2.498  1.7705 -0.0092 -0.5341
17452TIP3   OH273770   4.996   2.549  14.395  0.2420 -0.2024 -0.5873
17452TIP3    H173771   4.978   2.456  14.407  1.4005 -0.3654  0.0412
17452TIP3    H273772   5.060   2.552  14.324  0.9313  0.0364  0.0314
17453TIP3   OH273773   2.233   3.854   1.453  0.2800  0.2883 -0.1835
17453TIP3    H173774   2.294   3.821   1.388 -0.6042 -1.1558 -0.3023
17453TIP3    H273775   2.156   3.879   1.403  0.1628  0.6077  0.1524
17454TIP3   OH273776   3.593   0.777  13.156 -0.1293 -0.1934 -0.2258
17454TIP3    H173777   3.586   0.695  13.107 -1.7453  0.6868 -1.5750
17454TIP3    H273778   3.628   0.751  13.241 -0.9063 -2.3470 -0.4898
17455TIP3   OH273779   4.661   2.034  13.113  0.0873  0.0204  0.1498
17455TIP3    H173780   4.716   2.028  13.035  0.3025  1.3136  0.1850
17455TIP3    H273781   4.687   1.960  13.167  2.6997  1.2793  0.7306
17456TIP3   OH273782   3.855   1.579  12.865 -0.1196  0.2545 -0.0496
17456TIP3    H173783   3.852   1.600  12.772  1.4847 -0.8017 -0.3843
17456TIP3    H273784   3.827   1.488  12.871  0.9582 -0.0669  0.3348
17457TIP3   OH273785   1.720   2.195  13.232 -0.1722 -0.2242  0.3136
17457TIP3    H173786   1.807   2.156  13.225 -0.2954 -0.4064 -0.2780
17457TIP3    H273787   1.732   2.284  13.201  0.2045  0.3813  2.0924
17458TIP3   OH273788   4.433   0.743  13.618  0.3417  0.0812  0.5852
17458TIP3    H173789   4.371   0.795  13.567  0.8047  0.4114  0.3480
17458TIP3    H273790   4.509   0.801  13.629  1.2495 -0.8635 -0.4673
17459TIP3   OH273791   5.977   2.079   3.085  0.1535  0.1701  0.6271
17459TIP3    H173792   5.905   2.017   3.081 -0.0970  0.4993 -0.2565
17459TIP3    H273793   5.953   2.140   3.154 -1.1030  1.0882 -0.5757
17460TIP3   OH273794   5.740   3.404  12.948 -0.1938 -0.5434 -0.0571
17460TIP3    H173795   5.741   3.395  13.043  0.8253 -1.2370 -0.1099
17460TIP3    H273796   5.828   3.434  12.926 -0.8841  1.1225 -0.6776
17461TIP3   OH273797   1.162   2.453   3.628 -0.1687 -0.3113 -0.5228
17461TIP3    H173798   1.077   2.495   3.636  0.2395  0.5825 -0.7509
17461TIP3    H273799   1.165   2.422   3.537 -0.5525 -1.0539 -0.2971
17462TIP3   OH273800   2.024   5.871  14.443 -0.0088  0.0582  0.3357
17462TIP3    H173801   2.014   5.823  14.525 -2.6176 -0.0634  0.0366
17462TIP3    H273802   2.028   5.963  14.469 -1.3437  0.0547  0.5951
17463TIP3   OH273803   3.986   0.456   0.780  0.0142 -0.0008 -0.4555
17463TIP3    H173804   3.892   0.473   0.778  0.4263  2.7595 -0.6698
17463TIP3    H273805   4.003   0.403   0.702 -0.9446  2.3808 -2.3924
17464TIP3   OH273806   4.535   2.488   2.148 -0.2456 -0.3902 -0.2086
17464TIP3    H173807   4.575   2.427   2.210 -1.7511 -0.0664  1.1332
17464TIP3    H273808   4.498   2.433   2.080  0.3770 -0.8177 -0.2128
17465TIP3   OH273809   6.108   1.295   4.900 -0.4417  0.2074  0.1587
17465TIP3    H173810   6.170   1.267   4.967  0.8867 -0.1534 -1.1591
17465TIP3    H273811   6.163   1.327   4.828 -1.6961 -1.4828 -1.6693
17466TIP3   OH273812   4.844   1.299  10.565 -0.4439  0.0158 -0.2069
17466TIP3    H173813   4.938   1.310  10.556 -0.4672 -0.0549 -0.5505
17466TIP3    H273814   4.808   1.327  10.481 -0.5619 -1.9310 -0.8581
17467TIP3   OH273815   3.803   2.130   3.998 -0.7586 -0.1224 -0.1103
17467TIP3    H173816   3.837   2.215   4.026 -0.8153 -0.0158 -0.3614
17467TIP3    H273817   3.807   2.075   4.077  0.5593 -0.2931 -0.2761
17468TIP3   OH273818   5.720   6.414  14.433  0.1223  0.2627 -0.4374
17468TIP3    H173819   5.631   6.432  14.465  0.6536  2.2033  0.0926
17468TIP3    H273820   5.717   6.438  14.340  0.0680  0.2512 -0.4385
17469TIP3   OH273821   5.246   2.176   1.898  0.0307 -0.2595  0.1475
17469TIP3    H173822   5.241   2.116   1.973 -1.7364 -0.4049 -0.0431
17469TIP3    H273823   5.272   2.120   1.825  0.7733 -0.3092  0.4402
17470TIP3   OH273824   3.239   0.079   0.785 -0.0733 -0.5383  0.6301
17470TIP3    H173825   3.180   0.120   0.849  0.0551  0.0524  0.3795
17470TIP3    H273826   3.197   0.097   0.700  0.0382 -0.8437  0.5103
17471TIP3   OH273827   1.450   2.803   1.215 -0.2824 -0.2282 -0.5940
17471TIP3    H173828   1.360   2.784   1.239 -0.8507  2.4027 -0.3521
17471TIP3    H273829   1.499   2.801   1.298 -0.4262 -0.0628 -0.5070
17472TIP3   OH273830   5.659   3.868  14.814 -0.5298 -0.4161  0.0247
17472TIP3    H173831   5.611   3.836  14.738 -0.7063 -1.2771  0.4852
17472TIP3    H273832   5.644   3.802  14.882  0.5412 -0.2353  0.4613
17473TIP3   OH273833   3.594   6.440   5.510  0.2262  1.0586 -0.0210
17473TIP3    H173834   3.534   6.461   5.582  0.6162  3.7613 -0.3838
17473TIP3    H273835   3.604   6.345   5.515 -0.8879  0.9764  2.5806
17474TIP3   OH273836   3.442   1.192  12.208 -0.1448  0.7979 -0.8031
17474TIP3    H173837   3.479   1.105  12.194  1.2095  1.3262 -0.6580
17474TIP3    H273838   3.397   1.186  12.292 -0.8287  0.0072 -1.2111
17475TIP3   OH273839   0.624   2.854  16.640 -0.2327 -0.2640 -0.4780
17475TIP3    H173840   0.665   2.784  16.690  0.0317 -0.6347 -1.2002
17475TIP3    H273841   0.532   2.831  16.636 -0.6823  0.8840  1.6784
17476TIP3   OH273842   1.926   5.854  11.194 -0.0470 -0.5690 -0.5151
17476TIP3    H173843   2.002   5.889  11.147 -0.4645  1.4414  0.1698
17476TIP3    H273844   1.925   5.904  11.276 -2.1581 -0.4381 -0.5731
17477TIP3   OH273845   2.670   5.610   5.589 -0.1911  0.5536 -0.4560
17477TIP3    H173846   2.589   5.589   5.636 -0.0362 -0.5471 -0.6367
17477TIP3    H273847   2.738   5.609   5.656 -0.2623  1.0348 -0.3758
17478TIP3   OH273848   4.430   4.882   4.541 -0.0094 -0.0052 -0.0868
17478TIP3    H173849   4.460   4.925   4.461  1.1300  1.4811  1.0774
17478TIP3    H273850   4.484   4.920   4.610 -2.1511  0.0501  1.6467
17479TIP3   OH273851   2.949   1.393   2.211  0.4689  0.1844 -0.0135
17479TIP3    H173852   2.872   1.437   2.173  1.1309  0.7418 -0.7427
17479TIP3    H273853   2.952   1.308   2.167  0.5733  0.3760 -0.3857
17480TIP3   OH273854   3.689   6.453  13.885  0.1259  0.1656  0.6788
17480TIP3    H173855   3.626   6.383  13.902 -0.5219  0.1214 -1.6001
17480TIP3    H273856   3.767   6.408  13.853 -0.1772  0.4386 -0.4794
17481TIP3   OH273857   2.947   4.758   0.549  0.1443  0.0722 -0.1969
17481TIP3    H173858   2.979   4.694   0.614 -0.9871 -0.0721  0.2443
17481TIP3    H273859   2.907   4.704   0.481 -0.2450  0.2847 -0.1374
17482TIP3   OH273860   0.706   4.754  16.862 -0.9216 -0.4199 -0.3511
17482TIP3    H173861   0.717   4.703  16.942 -0.9231 -1.7517 -1.1595
17482TIP3    H273862   0.709   4.689  16.792  0.9474  0.9018 -1.5833
17483TIP3   OH273863   4.360   1.658  13.169 -0.4540 -0.1873 -0.1266
17483TIP3    H173864   4.291   1.631  13.230 -0.9205  0.6997 -0.2379
17483TIP3    H273865   4.361   1.591  13.102  0.0612 -1.1837  0.8409
17484TIP3   OH273866   1.842   4.601   3.259  0.0265  0.3498 -0.2604
17484TIP3    H173867   1.781   4.530   3.281  0.9618 -0.8254 -1.2534
17484TIP3    H273868   1.929   4.561   3.268  0.6131  1.6031 -0.1261
17485TIP3   OH273869   1.284   0.865   3.022  0.0226 -0.1420  0.0559
17485TIP3    H173870   1.351   0.799   3.043  0.1536 -0.0313 -0.0171
17485TIP3    H273871   1.244   0.886   3.106 -0.6025 -0.9433 -0.0244
17486TIP3   OH273872   6.351   3.866  10.495 -0.3744  0.0420 -0.5549
17486TIP3    H173873   6.408   3.799  10.532 -2.2353 -2.1168 -1.3165
17486TIP3    H273874   6.262   3.835  10.514 -1.4026  3.3439  0.7553
17487TIP3   OH273875   2.965   5.876   5.385 -0.0441 -0.0193 -0.4015
17487TIP3    H173876   3.010   5.804   5.429  0.5261 -0.2203 -1.2947
17487TIP3    H273877   2.883   5.886   5.433  0.8711  0.2591  1.1600
17488TIP3   OH273878   1.029   4.094  10.657  0.0688  0.5105 -0.2639
17488TIP3    H173879   1.091   4.059  10.593 -0.0906  2.0818 -1.3444
17488TIP3    H273880   0.943   4.066  10.625  0.0870 -0.1929  0.2701
17489TIP3   OH273881   4.112   5.869   3.513 -0.1237 -0.0272  0.5804
17489TIP3    H173882   4.178   5.905   3.455  0.6599  1.5604  2.3704
17489TIP3    H273883   4.139   5.778   3.528 -0.8494 -0.7686 -2.1598
17490TIP3   OH273884   2.571   1.784   3.375 -0.5368 -0.2847  0.3214
17490TIP3    H173885   2.655   1.738   3.366  0.2197  1.2426 -0.7659
17490TIP3    H273886   2.505   1.717   3.356  0.5751 -0.5969 -3.0636
17491TIP3   OH273887   0.974   3.114  12.623  0.2790  0.0355 -0.0329
17491TIP3    H173888   1.017   3.142  12.704  2.3850  1.6181 -1.5955
17491TIP3    H273889   0.924   3.190  12.595 -1.6371 -0.9764  0.4395
17492TIP3   OH273890   3.481   2.510  11.943 -0.2929  0.3277 -0.0079
17492TIP3    H173891   3.480   2.496  11.848 -1.2800  0.1510  0.0182
17492TIP3    H273892   3.475   2.422  11.981 -0.0439  0.4062  0.2166
17493TIP3   OH273893   3.510   4.233   1.293  0.1940 -0.0660  0.4890
17493TIP3    H173894   3.500   4.195   1.206  2.5184 -0.3849  0.2953
17493TIP3    H273895   3.547   4.319   1.277  2.3538 -0.8094  1.1584
17494TIP3   OH273896   1.659   0.825  15.834  0.7187 -0.0553 -0.0173
17494TIP3    H173897   1.657   0.757  15.901  0.6652 -0.0860 -0.0495
17494TIP3    H273898   1.654   0.776  15.751  2.0185 -0.0886 -0.0903
17495TIP3   OH273899   1.626   5.381   5.093  0.2213  0.1606 -0.4394
17495TIP3    H173900   1.661   5.466   5.066 -1.5054  0.3535 -2.3213
17495TIP3    H273901   1.693   5.318   5.066  0.3037  0.7187 -1.5967
17496TIP3   OH273902   4.964   2.490  11.399 -0.7032 -0.2401 -0.2402
17496TIP3    H173903   5.012   2.410  11.418 -1.3323 -0.4516  0.4939
17496TIP3    H273904   5.004   2.557  11.454 -0.1005 -0.0169 -0.9406
17497TIP3   OH273905   4.076   5.566   3.600 -0.7440 -0.4430 -0.3759
17497TIP3    H173906   4.118   5.514   3.532  0.4184  0.0316 -0.0426
17497TIP3    H273907   4.124   5.546   3.680 -1.9136 -0.7752  0.2751
17498TIP3   OH273908   0.627   1.614  13.935 -0.1711 -0.3721  0.1293
17498TIP3    H173909   0.543   1.660  13.925 -0.1431 -0.5167 -0.9348
17498TIP3    H273910   0.612   1.528  13.896  0.0215 -0.9864  1.3694
17499TIP3   OH273911   0.398   5.431  13.590  0.0705 -0.1851  0.3760
17499TIP3    H173912   0.381   5.425  13.496 -0.9467  1.5160  0.4158
17499TIP3    H273913   0.340   5.365  13.629  0.3060 -0.7186 -0.1565
17500TIP3   OH273914   6.769   1.625   1.446  0.1114 -0.0371 -1.2733
17500TIP3    H173915   6.851   1.656   1.407  0.4463  1.5574  0.5569
17500TIP3    H273916   6.735   1.701   1.493 -0.8550 -1.5053  0.5262
17501TIP3   OH273917   4.195   2.613   0.698  0.0210  0.1948  0.3272
17501TIP3    H173918   4.110   2.619   0.742  0.8874 -0.4332  2.2238
17501TIP3    H273919   4.183   2.546   0.631 -1.5914  1.7744 -1.0462
17502TIP3   OH273920   4.062   3.153  14.616 -0.2255 -0.4187  0.4800
17502TIP3    H173921   4.012   3.090  14.565 -0.5862  0.2306  0.0091
17502TIP3    H273922   3.999   3.221  14.639  0.3300  0.1684  0.3015
17503TIP3   OH273923   3.668   1.922  13.164 -0.2981  0.4654  0.2525
17503TIP3    H173924   3.673   1.833  13.197 -0.5491  0.7112  0.9659
17503TIP3    H273925   3.755   1.939  13.127 -0.3072 -0.1285 -0.0411
17504TIP3   OH273926   4.072   5.513   4.350 -0.2529 -0.5559 -0.2461
17504TIP3    H173927   4.032   5.540   4.267  0.2970 -0.8143 -0.5983
17504TIP3    H273928   4.133   5.443   4.327 -0.9528 -1.4515  0.5347
17505TIP3   OH273929   2.184   2.218   5.058  0.3605 -0.0749 -0.0621
17505TIP3    H173930   2.219   2.260   5.136  1.3837 -1.9514  0.5474
17505TIP3    H273931   2.142   2.138   5.091  0.2116 -0.5486 -1.3590
17506TIP3   OH273932   6.342   6.733  14.800 -0.0688 -0.1514 -0.3936
17506TIP3    H173933   6.357   6.687  14.717 -0.6514  0.5020 -0.8725
17506TIP3    H273934   6.422   6.718  14.850 -0.5220 -2.3122 -0.2316
17507TIP3   OH273935   6.054   1.353  11.993 -0.4975  0.3068 -0.1232
17507TIP3    H173936   6.119   1.382  11.929 -1.7291  2.4271 -0.5116
17507TIP3    H273937   6.101   1.291  12.048  1.6511  1.2035 -0.8297
17508TIP3   OH273938   3.701   3.243  15.323  0.5922 -0.2189  0.2489
17508TIP3    H173939   3.657   3.324  15.351  2.3645  1.6207 -1.9276
17508TIP3    H273940   3.659   3.221  15.240  2.0155  0.1591 -0.6030
17509TIP3   OH273941   1.797   4.348  12.537  0.2306 -0.2601  0.3881
17509TIP3    H173942   1.865   4.336  12.604  1.3238 -1.3018 -0.8706
17509TIP3    H273943   1.794   4.443  12.523 -0.2929  0.0251  2.1534
17510TIP3   OH273944   0.564   6.362   3.766  0.0801  0.5472 -0.0243
17510TIP3    H173945   0.630   6.293   3.769  0.1749  0.6526  0.2999
17510TIP3    H273946   0.480   6.315   3.772  0.1330  0.4376 -0.1323
17511TIP3   OH273947   1.616   5.609   6.478  0.5909 -0.2469 -0.1768
17511TIP3    H173948   1.547   5.671   6.457 -0.0794 -1.0997 -0.5496
17511TIP3    H273949   1.581   5.557   6.549  0.6488 -0.9958 -0.6841
17512TIP3   OH273950   3.895   3.065   3.537  0.3534 -0.8111 -0.2295
17512TIP3    H173951   3.923   2.978   3.567 -0.4068 -0.8014  0.5492
17512TIP3    H273952   3.800   3.066   3.552  0.5967  0.8414  1.5941
17513TIP3   OH273953   0.792   0.463  11.875 -0.5098 -0.4370 -0.1216
17513TIP3    H173954   0.839   0.546  11.879  0.8804 -1.2200  0.7762
17513TIP3    H273955   0.736   0.471  11.798 -1.1108  1.6652  0.4649
17514TIP3   OH273956   5.557   0.958  16.816  0.7762 -0.0671  0.2885
17514TIP3    H173957   5.651   0.949  16.831  0.8044 -0.3878 -0.0687
17514TIP3    H273958   5.549   1.027  16.750  0.6359  1.5682  1.9441
17515TIP3   OH273959   0.524   0.943  16.697  0.2225 -0.4555  0.0467
17515TIP3    H173960   0.552   1.035  16.700  2.7821 -1.1740  1.3898
17515TIP3    H273961   0.502   0.927  16.605 -0.1113  1.4329 -0.2401
17516TIP3   OH273962   0.553   1.427  15.665 -0.0198 -0.3648  0.8740
17516TIP3    H173963   0.517   1.406  15.580  0.1211 -0.5152  0.8512
17516TIP3    H273964   0.605   1.506  15.650 -1.7845  0.9378  1.2578
17517TIP3   OH273965   4.527   6.101  16.852  0.5750  0.0457 -0.0236
17517TIP3    H173966   4.485   6.186  16.863 -0.8540 -0.8755  2.8218
17517TIP3    H273967   4.524   6.062  16.940  3.0322 -2.1290 -0.7709
17518TIP3   OH273968   0.969   2.222  13.128 -0.5772  0.1668 -0.1010
17518TIP3    H173969   1.043   2.272  13.094 -1.0796  0.6481 -0.5071
17518TIP3    H273970   1.007   2.163  13.193  0.0285  1.0855  0.3987
17519TIP3   OH273971   6.513   0.567  10.663  0.7916 -0.1987  0.2690
17519TIP3    H173972   6.472   0.597  10.744 -0.1924  0.7148 -0.5279
17519TIP3    H273973   6.441   0.567  10.599  1.8323  0.5401 -0.9462
17520TIP3   OH273974   1.130   3.169  16.995  0.8384  0.0901  0.2758
17520TIP3    H173975   1.101   3.133  16.911 -0.7353 -1.0170  1.2483
17520TIP3    H273976   1.157   3.258  16.974 -0.4659  0.1851 -1.2363
17521TIP3   OH273977   6.106   0.101  16.174 -0.0145 -0.3301 -0.2535
17521TIP3    H173978   6.187   0.050  16.166  0.0614 -1.0013  3.2465
17521TIP3    H273979   6.036   0.035  16.178 -0.6433  0.1900 -1.8410
17522TIP3   OH273980   0.367   0.250   3.072  0.5197 -0.1726  0.1873
17522TIP3    H173981   0.438   0.312   3.060 -0.2681  1.2405  2.2765
17522TIP3    H273982   0.367   0.232   3.166 -2.0742  0.1481  0.3109
17523TIP3   OH273983   2.040   5.579  10.709  0.0724  0.0924 -0.5926
17523TIP3    H173984   1.948   5.568  10.684  0.3259  1.9101 -2.6499
17523TIP3    H273985   2.080   5.494  10.691 -0.8895 -0.2393 -1.2582
17524TIP3   OH273986   0.029   4.393   2.723 -0.0172  0.2073  0.2132
17524TIP3    H173987  -0.028   4.325   2.760 -0.4108 -0.2916 -1.2446
17524TIP3    H273988   0.116   4.353   2.724 -0.2592 -0.3789 -0.7110
17525TIP3   OH273989   5.496   1.937   0.050 -0.0893  0.1433 -0.2074
17525TIP3    H173990   5.420   1.925   0.108  0.4162 -1.7017  0.1276
17525TIP3    H273991   5.539   2.015   0.083 -1.2278  0.5859  0.2862
17526TIP3   OH273992   3.231   1.719   4.578  0.3495 -0.4554  0.3284
17526TIP3    H173993   3.270   1.757   4.657  0.0251  0.2483  0.1512
17526TIP3    H273994   3.139   1.745   4.581  0.0756 -1.3760  0.2887
17527TIP3   OH273995   2.599   2.446  16.269 -0.3590  0.3255  0.0506
17527TIP3    H173996   2.610   2.352  16.284 -0.8121  0.1933 -0.4301
17527TIP3    H273997   2.553   2.478  16.347 -1.9259 -0.2043 -0.6263
17528TIP3   OH273998   6.107   4.045  15.342  0.3208  0.3782  0.0979
17528TIP3    H173999   6.179   4.098  15.377  0.0432 -0.1469  1.5307
17528TIP3    H274000   6.150   3.967  15.308  0.6022  0.9064 -0.7717
17529TIP3   OH274001   6.432   1.293  15.727 -0.0204 -0.3151 -0.4966
17529TIP3    H174002   6.397   1.282  15.816 -0.0555 -0.2180 -0.4980
17529TIP3    H274003   6.505   1.232  15.722  0.1522 -0.1219 -0.3090
17530TIP3   OH274004   0.653   1.660  14.734 -0.1247  0.1296  0.5888
17530TIP3    H174005   0.601   1.703  14.666 -0.8755 -0.6575  0.6454
17530TIP3    H274006   0.603   1.671  14.814 -0.0008 -0.2655  0.7267
17531TIP3   OH274007   5.245   4.778  11.899  0.2803  0.1849 -0.1662
17531TIP3    H174008   5.231   4.745  11.811 -1.6863  1.5258 -0.4208
17531TIP3    H274009   5.219   4.870  11.895  0.6316  0.4141  1.6938
17532TIP3   OH274010   0.820   5.755  11.439 -0.1611 -0.5569 -0.0224
17532TIP3    H174011   0.807   5.669  11.400  2.7782 -1.2043  0.1672
17532TIP3    H274012   0.895   5.792  11.392  0.4411  0.6716  1.7719
17533TIP3   OH274013   0.983   5.617  13.495  0.4242 -0.0387  0.5659
17533TIP3    H174014   0.936   5.533  13.498 -1.3278  0.5702 -3.2829
17533TIP3    H274015   1.074   5.593  13.484  0.1110 -1.4091  0.7848
17534TIP3   OH274016   5.890   4.592  16.186  0.1597  0.1820 -0.1966
17534TIP3    H174017   5.835   4.545  16.122 -1.1868  1.4999 -0.0525
17534TIP3    H274018   5.884   4.539  16.265  1.2211 -1.0597 -0.8962
17535TIP3   OH274019   6.624   1.223  16.803 -0.0575 -0.3079 -0.1430
17535TIP3    H174020   6.589   1.262  16.723 -1.4493 -0.0868  0.5481
17535TIP3    H274021   6.580   1.139  16.811 -0.0319 -0.2714  0.4616
17536TIP3   OH274022   3.689   5.230   5.766 -0.4054  0.1892 -0.3439
17536TIP3    H174023   3.691   5.170   5.841  1.6416  0.4392 -0.1392
17536TIP3    H274024   3.644   5.308   5.798 -0.3403 -0.0537  0.3543
17537TIP3   OH274025   6.362   3.066   1.241  0.4459 -0.3620 -0.1093
17537TIP3    H174026   6.420   3.000   1.203  0.6607  0.7593 -1.8190
17537TIP3    H274027   6.274   3.035   1.221  0.5232 -0.6135 -0.0612
17538TIP3   OH274028   5.629   3.451  16.049 -0.2946 -0.5020  0.0677
17538TIP3    H174029   5.679   3.461  15.968 -0.6466 -1.6529 -0.3157
17538TIP3    H274030   5.587   3.536  16.062 -0.3048 -0.3274 -1.0053
17539TIP3   OH274031   3.094   4.397   1.889 -0.1931  0.3465  0.2611
17539TIP3    H174032   3.130   4.309   1.902  0.2300  0.6540  1.2203
17539TIP3    H274033   3.053   4.419   1.973 -1.5263  0.5216 -0.4008
17540TIP3   OH274034   2.390   0.353  12.414  0.3957 -0.1385  0.1063
17540TIP3    H174035   2.416   0.279  12.359  1.6319 -0.3253  0.9012
17540TIP3    H274036   2.319   0.395  12.365  0.8883 -0.7787 -1.2251
17541TIP3   OH274037   3.223   2.501   3.192  0.3236  0.5681 -0.2497
17541TIP3    H174038   3.213   2.576   3.134  0.5057 -0.3656 -1.5374
17541TIP3    H274039   3.312   2.469   3.175 -0.2068 -0.7349 -0.7636
17542TIP3   OH274040   1.155   3.889   1.446 -0.2004 -0.0650  0.5999
17542TIP3    H174041   1.125   3.798   1.452  1.5949 -0.9123 -1.6073
17542TIP3    H274042   1.172   3.916   1.536  2.3921 -3.0807  1.1497
17543TIP3   OH274043   5.458   3.936   0.610 -0.5967  0.0936  0.1718
17543TIP3    H174044   5.392   3.992   0.567 -0.8718 -0.6357 -0.3849
17543TIP3    H274045   5.430   3.932   0.701 -0.5701  0.8655  0.2214
17544TIP3   OH274046   4.128   5.743  16.081 -0.4000  0.1774  0.3268
17544TIP3    H174047   4.095   5.785  16.161 -1.3539 -0.1710  0.1275
17544TIP3    H274048   4.145   5.816  16.021  0.1825  0.4306  0.7833
17545TIP3   OH274049   4.656   4.573   2.487 -0.0775  0.1049  0.7621
17545TIP3    H174050   4.583   4.534   2.437 -1.0383  0.0662  2.1451
17545TIP3    H274051   4.664   4.661   2.450  0.2197 -0.3984 -0.4468
17546TIP3   OH274052   0.170   3.788   5.636 -0.0993 -0.2434  0.4409
17546TIP3    H174053   0.175   3.715   5.574  1.5177 -1.3028  1.7597
17546TIP3    H274054   0.261   3.812   5.652 -0.5769  1.6183  0.5958
17547TIP3   OH274055   0.412   5.704  12.287  0.2923  0.2510  0.3480
17547TIP3    H174056   0.357   5.650  12.230  0.9865  1.9710 -2.1635
17547TIP3    H274057   0.350   5.757  12.338 -0.3863 -2.5315  2.6588
17548TIP3   OH274058   3.321   3.560   6.185  0.7046 -0.2877 -0.0610
17548TIP3    H174059   3.328   3.468   6.208 -1.2530 -0.7720 -1.2118
17548TIP3    H274060   3.270   3.599   6.256 -0.3166 -0.5692 -0.6188
17549TIP3   OH274061   6.114   4.929   0.016 -0.1591  0.3092  0.5126
17549TIP3    H174062   6.096   4.864   0.084 -1.0182  0.0046  0.0123
17549TIP3    H274063   6.193   4.974   0.046 -0.2839 -0.1026  1.4959
17550TIP3   OH274064   4.926   5.408   4.164 -0.2130  0.2159 -0.2144
17550TIP3    H174065   4.921   5.431   4.071  0.0160  1.6053  0.1024
17550TIP3    H274066   5.011   5.365   4.174 -0.7350 -1.0118 -0.8574
17551TIP3   OH274067   5.426   5.819   3.532  0.2730 -0.2591  0.1626
17551TIP3    H174068   5.411   5.900   3.581 -0.1811  1.4247 -2.5474
17551TIP3    H274069   5.390   5.836   3.445  0.8467 -3.1379 -0.7560
17552TIP3   OH274070   1.884   2.402  13.944 -0.4640  0.5183  0.0320
17552TIP3    H174071   1.870   2.320  13.896  0.3246  0.4271 -0.0480
17552TIP3    H274072   1.805   2.454  13.925 -0.3087  0.3663 -1.1206
17553TIP3   OH274073   0.637   3.728   2.468  0.5171  0.4748 -0.0045
17553TIP3    H174074   0.589   3.790   2.413  0.5066 -1.0276 -1.7648
17553TIP3    H274075   0.569   3.683   2.518  0.2646 -0.0240 -0.7782
17554TIP3   OH274076   3.093   5.385   5.609  0.1360  0.2554 -0.5477
17554TIP3    H174077   3.074   5.335   5.529  0.5072  0.6734 -0.9046
17554TIP3    H274078   3.123   5.319   5.672 -1.4914 -0.2773 -0.2877
17555TIP3   OH274079   3.577   4.484  14.205  0.5330 -0.1402 -0.4479
17555TIP3    H174080   3.605   4.557  14.151  3.0939 -0.7027  0.0022
17555TIP3    H274081   3.496   4.514  14.246  1.3525  2.3433 -0.4919
17556TIP3   OH274082   3.630   0.126   1.820 -0.0268 -0.3475 -0.5110
17556TIP3    H174083   3.692   0.152   1.753 -0.1483  0.5977 -0.2779
17556TIP3    H274084   3.680   0.128   1.902 -0.4434  0.8817 -0.2544
17557TIP3   OH274085   6.414   3.128   6.392 -0.1451  0.8166  0.8718
17557TIP3    H174086   6.454   3.120   6.478  0.8419 -0.8672  0.2940
17557TIP3    H274087   6.482   3.098   6.331 -1.2114  0.9062 -0.3972
17558TIP3   OH274088   5.974   5.544  11.788 -0.5840  0.8685  0.0951
17558TIP3    H174089   6.058   5.505  11.813 -1.8705 -0.7645  2.2228
17558TIP3    H274090   5.998   5.626  11.744  2.1365 -0.3181 -0.8542
17559TIP3   OH274091   0.754   1.385   1.826 -0.8112 -0.1554  0.3611
17559TIP3    H174092   0.736   1.298   1.861 -3.1529  0.2663  0.3704
17559TIP3    H274093   0.702   1.390   1.745  1.5379  0.2459 -1.2281
17560TIP3   OH274094   0.655   2.901   1.053 -0.3392 -0.4078 -0.3117
17560TIP3    H174095   0.682   2.992   1.035 -0.7450 -0.2128  0.0517
17560TIP3    H274096   0.726   2.848   1.018 -0.5967  0.0072 -1.5021
17561TIP3   OH274097   2.732   4.480   1.448  0.1377  0.5907  0.0817
17561TIP3    H174098   2.647   4.519   1.428  1.1243  3.4248  0.8407
17561TIP3    H274099   2.761   4.526   1.528  0.9215 -2.7169  1.8757
17562TIP3   OH274100   5.629   0.719  16.508  0.6925  0.4122 -0.1491
17562TIP3    H174101   5.592   0.788  16.564  0.7535  0.9940 -0.8182
17562TIP3    H274102   5.633   0.758  16.421  0.8351 -0.4015 -0.5175
17563TIP3   OH274103   2.879   4.947   1.193  0.2912  0.1474  0.0169
17563TIP3    H174104   2.883   5.015   1.126 -0.0504 -0.3543 -0.5242
17563TIP3    H274105   2.786   4.926   1.199  0.4996 -0.9960 -0.5654
17564TIP3   OH274106   6.027   2.260  14.373 -0.2655  0.0827 -0.1163
17564TIP3    H174107   6.034   2.290  14.282  0.6435  0.5589  0.1040
17564TIP3    H274108   6.102   2.201  14.385  0.7673  1.5350  0.8825
17565TIP3   OH274109   5.613   4.793  12.244  0.3851  0.2684 -0.1030
17565TIP3    H174110   5.539   4.761  12.194 -0.5476  3.4415 -0.9705
17565TIP3    H274111   5.681   4.811  12.178  1.1943 -0.6735  0.4482
17566TIP3   OH274112   4.832   1.040  10.633  0.0518 -0.8432  0.4764
17566TIP3    H174113   4.750   1.027  10.680  0.6709  0.5080  2.0374
17566TIP3    H274114   4.838   1.134  10.620  2.0241 -0.7298  1.7588
17567TIP3   OH274115   4.738   0.014  11.760 -0.5057 -0.3889  0.0592
17567TIP3    H174116   4.750   0.020  11.854  1.1608  0.1836 -0.1631
17567TIP3    H274117   4.646   0.036  11.746 -0.4545  0.7940  1.4269
17568TIP3   OH274118   3.146   1.043  13.105 -0.1824  0.5241 -0.2326
17568TIP3    H174119   3.218   1.078  13.052  1.1058  1.3468  1.9290
17568TIP3    H274120   3.141   0.951  13.079  1.6062  0.4644 -0.5299
17569TIP3   OH274121   4.665   2.602   2.568 -0.1338 -0.5777  0.3890
17569TIP3    H174122   4.741   2.616   2.625 -0.6905 -1.0256  1.2465
17569TIP3    H274123   4.622   2.687   2.565  0.4494 -0.2903 -0.1920
17570TIP3   OH274124   1.789   2.051   1.880 -0.4614 -0.1906 -0.2528
17570TIP3    H174125   1.820   2.128   1.928 -1.0285 -0.3599  0.3950
17570TIP3    H274126   1.700   2.038   1.911 -1.7068  1.0402 -3.0013
17571TIP3   OH274127   6.427   4.278  13.434  0.0870  0.1748 -0.1395
17571TIP3    H174128   6.439   4.187  13.408 -2.2544 -0.9040  2.1760
17571TIP3    H274129   6.344   4.304  13.393 -0.1470  0.6756  0.6304
17572TIP3   OH274130   0.629   6.387  10.851  0.7366  0.2562 -0.7257
17572TIP3    H174131   0.590   6.445  10.785  0.2488  0.6693 -0.0878
17572TIP3    H274132   0.711   6.357  10.811 -0.5642 -1.2377 -2.4121
17573TIP3   OH274133   5.491   3.815  15.514  0.9871 -0.3512 -0.0447
17573TIP3    H174134   5.403   3.815  15.476 -0.7510 -0.4270  3.5724
17573TIP3    H274135   5.511   3.722  15.528  1.6327 -0.3268 -0.7276
17574TIP3   OH274136   3.494   0.541  11.162 -0.6754  0.8600  0.4386
17574TIP3    H174137   3.489   0.580  11.075 -1.9008 -2.5307 -1.1600
17574TIP3    H274138   3.403   0.537  11.192 -0.6394 -0.9660  0.3936
17575TIP3   OH274139   3.055   1.224   4.598  0.5072  0.2190  0.4736
17575TIP3    H174140   3.014   1.141   4.574 -0.0269  0.8416 -0.8528
17575TIP3    H274141   2.981   1.282   4.615  0.8813  0.4203  1.4602
17576TIP3   OH274142   2.503   1.943   3.616  0.1380  0.0558  0.7706
17576TIP3    H174143   2.420   1.928   3.661 -0.0865  0.1639  0.4014
17576TIP3    H274144   2.515   1.865   3.561 -0.9689  1.0882 -1.0601
17577TIP3   OH274145   6.153   4.302  13.301  0.0049  0.3409 -0.3889
17577TIP3    H174146   6.166   4.326  13.210  0.5256 -1.7369 -0.9265
17577TIP3    H274147   6.097   4.371  13.337  0.7497  1.8230 -1.9355
17578TIP3   OH274148   0.069   0.034  14.811  0.3227  0.4761 -0.1727
17578TIP3    H174149  -0.018  -0.004  14.820 -0.0708  1.5531  0.7638
17578TIP3    H274150   0.080   0.046  14.716 -0.7146  0.7216 -0.2688
17579TIP3   OH274151   6.794   4.010  11.737  0.3415  0.9524  0.0736
17579TIP3    H174152   6.887   3.998  11.718 -0.2046 -0.5991 -2.0602
17579TIP3    H274153   6.764   3.925  11.769 -0.5606  1.0876 -0.3599
17580TIP3   OH274154   5.488   0.636   4.541  0.1802  0.0669  0.2866
17580TIP3    H174155   5.512   0.543   4.540  1.2534  0.3301  0.2394
17580TIP3    H274156   5.514   0.668   4.454 -3.7086 -0.3926 -1.2457
17581TIP3   OH274157   2.017   4.393   3.922 -0.1693  0.3963  0.0332
17581TIP3    H174158   2.103   4.417   3.956 -0.2465  0.5544  0.1181
17581TIP3    H274159   1.955   4.425   3.988 -0.2515 -0.4086  0.3591
17582TIP3   OH274160   3.443   6.063   6.292 -0.5890  0.2503 -0.6423
17582TIP3    H174161   3.380   6.019   6.350 -2.0842  1.0853 -1.5687
17582TIP3    H274162   3.518   6.004   6.289 -1.1717 -0.6138  0.7861
17583TIP3   OH274163   2.518   1.398   5.021 -0.1372 -0.6107  0.5422
17583TIP3    H174164   2.500   1.413   5.114  0.2337 -0.4097  0.5850
17583TIP3    H274165   2.489   1.308   5.005 -0.3283 -0.6000  0.8204
17584TIP3   OH274166   5.734   4.656  17.120 -0.4134 -0.1693  0.2386
17584TIP3    H174167   5.812   4.615  17.158  0.1040  0.1326 -0.4907
17584TIP3    H274168   5.665   4.591  17.134  0.3901 -1.3051 -0.8595
17585TIP3   OH274169   3.591   1.006  17.177  0.0267  0.3742  0.0760
17585TIP3    H174170   3.659   0.942  17.158  0.3752  0.5276  0.7786
17585TIP3    H274171   3.579   1.054  17.094  1.5979  1.1107  0.2325
17586TIP3   OH274172   2.369   5.561  12.677 -0.5039  0.0452 -0.0863
17586TIP3    H174173   2.384   5.654  12.696 -0.7111 -0.0979  0.8138
17586TIP3    H274174   2.448   5.533  12.630  0.2399  0.3189  0.9639
17587TIP3   OH274175   4.876   3.453  15.560 -0.1885 -0.3214 -0.2083
17587TIP3    H174176   4.875   3.543  15.593 -2.1382 -1.6076  3.9295
17587TIP3    H274177   4.834   3.459  15.474 -2.9626  2.4559  1.1426
17588TIP3   OH274178   3.595   4.127  12.571 -0.5248  0.6609 -0.1155
17588TIP3    H174179   3.539   4.088  12.639 -0.4264  0.8882  0.0974
17588TIP3    H274180   3.548   4.111  12.489 -1.0974  1.1891  0.0996
17589TIP3   OH274181   3.767   2.799  12.326  0.0138 -0.5681 -0.3392
17589TIP3    H174182   3.848   2.751  12.311 -0.0228 -0.8880  0.4139
17589TIP3    H274183   3.708   2.770  12.256 -0.2514 -2.2025  0.5101
17590TIP3   OH274184   2.304   0.417   0.109  0.0085  0.3990 -0.2564
17590TIP3    H174185   2.281   0.323   0.109  2.1856 -0.2092  1.6848
17590TIP3    H274186   2.269   0.450   0.192  3.0503  0.1722  1.2393
17591TIP3   OH274187   1.061   4.495   1.990  0.3009  0.1626  0.5853
17591TIP3    H174188   1.108   4.438   2.050  0.3255  0.2429  0.6424
17591TIP3    H274189   0.971   4.494   2.021  0.7116  1.9979  2.0155
17592TIP3   OH274190   4.023   2.245   0.736 -0.4353 -0.4123 -0.2079
17592TIP3    H174191   4.066   2.313   0.684  0.1809  0.4810  1.3765
17592TIP3    H274192   4.095   2.195   0.774 -0.6033  1.3614  2.8231
17593TIP3   OH274193   6.702   1.152   1.956 -0.0263 -0.1613 -0.1367
17593TIP3    H174194   6.731   1.154   1.864 -2.2189 -1.3884 -0.9056
17593TIP3    H274195   6.698   1.059   1.978 -3.2524 -0.1140 -0.1168
17594TIP3   OH274196   6.283   5.198  11.814 -0.0339 -0.1678 -0.0949
17594TIP3    H174197   6.196   5.157  11.814  0.4065 -1.1419 -0.0818
17594TIP3    H274198   6.316   5.181  11.726 -0.2655  1.1186 -0.4385
17595TIP3   OH274199   5.382   3.582  14.331  0.5177  0.0358 -0.2589
17595TIP3    H174200   5.324   3.510  14.355  0.0741  0.7510  0.8758
17595TIP3    H274201   5.348   3.658  14.378  2.4260  0.4710  0.5475
17596TIP3   OH274202   2.478   2.757   3.137  0.3019  0.4223  0.3413
17596TIP3    H174203   2.504   2.666   3.154 -1.8781  0.0143  1.8943
17596TIP3    H274204   2.496   2.802   3.220 -0.5523  0.9171  0.2666
17597TIP3   OH274205   0.181   0.530  15.713 -0.0219  0.3895  0.4557
17597TIP3    H174206   0.155   0.555  15.624  0.1829 -0.9693 -0.0065
17597TIP3    H274207   0.211   0.612  15.753  1.3475  0.7933 -1.2451
17598TIP3   OH274208   0.908   3.837  15.785  0.5142 -0.4572 -0.6363
17598TIP3    H174209   0.882   3.786  15.862 -0.2075  1.7475  0.6649
17598TIP3    H274210   1.004   3.839  15.790  0.4890 -0.5624  0.0698
17599TIP3   OH274211   4.056   0.251   5.133 -0.1190  0.1296  0.0368
17599TIP3    H174212   3.990   0.286   5.073 -0.3612  0.0044  0.2298
17599TIP3    H274213   4.104   0.328   5.164  1.4616  0.0373 -1.9886
17600TIP3   OH274214   1.827   4.487   3.761 -0.1827 -0.2329  0.2541
17600TIP3    H174215   1.744   4.442   3.750  0.2980 -0.9669 -0.5485
17600TIP3    H274216   1.876   4.432   3.822 -0.4950  0.5058  1.1830
17601TIP3   OH274217   5.857   5.384   3.819  0.5171 -0.4287 -0.1332
17601TIP3    H174218   5.802   5.305   3.821  0.0576 -0.1427  2.2885
17601TIP3    H274219   5.945   5.353   3.841  0.3038 -0.2862  0.9888
17602TIP3   OH274220   1.891   2.891   0.286 -0.1843 -0.3749  0.1649
17602TIP3    H174221   1.962   2.946   0.253 -0.8374 -0.1735 -0.9333
17602TIP3    H274222   1.837   2.951   0.339 -1.3856  0.2972 -1.7436
17603TIP3   OH274223   0.913   3.517   5.573  0.2776  0.4236  0.1766
17603TIP3    H174224   1.006   3.541   5.564 -0.2188  2.3050 -0.4635
17603TIP3    H274225   0.874   3.541   5.489 -0.8490 -0.0519  0.5479
17604TIP3   OH274226   1.867   2.087   3.230 -0.2373 -0.1873  0.3927
17604TIP3    H174227   1.910   2.039   3.159  0.9133 -0.0770  1.0102
17604TIP3    H274228   1.825   2.161   3.185 -1.5753 -1.4246 -0.4889
17605TIP3   OH274229   0.255   4.708  15.543  0.1003  0.3733 -0.0718
17605TIP3    H174230   0.259   4.720  15.448  1.8646 -0.2526 -0.1024
17605TIP3    H274231   0.316   4.772  15.578 -0.3227  0.4032  0.6234
17606TIP3   OH274232   0.762   3.901   4.969  0.1103  0.5570  0.1919
17606TIP3    H174233   0.819   3.841   4.922 -0.2440 -0.2803  0.8113
17606TIP3    H274234   0.759   3.867   5.059  0.3039  1.7847  0.6830
17607TIP3   OH274235   3.216   2.021  13.976 -0.2009  0.4526 -0.3582
17607TIP3    H174236   3.237   2.084  13.907  1.7852  0.2296 -0.0070
17607TIP3    H274237   3.232   2.069  14.057 -0.9253  0.1964 -0.0567
17608TIP3   OH274238   2.818   4.717   6.449  0.0496  0.6379 -0.1433
17608TIP3    H174239   2.879   4.790   6.461 -0.5185  1.0189  0.4570
17608TIP3    H274240   2.824   4.667   6.530  1.4704 -0.8002 -1.0645
17609TIP3   OH274241   4.901   5.335   0.012 -0.5397 -0.2653 -0.2322
17609TIP3    H174242   4.836   5.342   0.081 -0.7605 -1.3252 -0.3079
17609TIP3    H274243   4.868   5.264  -0.045 -0.2797  0.4549 -1.3189
17610TIP3   OH274244   5.901   0.273   4.599 -0.2891  0.4327  0.0260
17610TIP3    H174245   5.904   0.185   4.636 -0.0659 -0.2845 -1.6086
17610TIP3    H274246   5.900   0.331   4.675  1.1043 -0.9212  1.1478
17611TIP3   OH274247   0.624   5.178   1.941  0.2009  0.3139 -0.4932
17611TIP3    H174248   0.708   5.133   1.947  0.2456  0.5151  0.4996
17611TIP3    H274249   0.611   5.191   1.847  0.8109 -0.5874 -0.7174
17612TIP3   OH274250   2.348   0.554   5.811  0.4331 -0.2652 -0.3517
17612TIP3    H174251   2.273   0.504   5.842  0.5267  0.1102  0.5384
17612TIP3    H274252   2.330   0.572   5.719 -1.4636  1.3548  0.2535
17613TIP3   OH274253   6.315   3.529   2.033 -0.1496  0.3838 -0.1623
17613TIP3    H174254   6.246   3.591   2.010  0.1907  0.3477 -1.3438
17613TIP3    H274255   6.269   3.446   2.045 -0.4042  0.5134 -0.2204
17614TIP3   OH274256   4.340   1.181  17.165 -0.0984  0.5145  0.1416
17614TIP3    H174257   4.360   1.243  17.095 -0.0693  1.2772  0.8222
17614TIP3    H274258   4.293   1.232  17.230  0.4619 -0.0317  0.9931
17615TIP3   OH274259   5.584   1.007   4.963  0.2829 -0.4057 -0.0165
17615TIP3    H174260   5.602   0.968   5.048  1.4403  1.2347  0.5265
17615TIP3    H274261   5.500   0.969   4.936  0.6201 -2.0663  1.1501
17616TIP3   OH274262   2.045   5.988   1.916 -0.2067 -0.3890 -0.1613
17616TIP3    H174263   2.123   5.975   1.970 -0.2650  0.2628  0.0917
17616TIP3    H274264   2.024   5.901   1.882 -0.7002 -1.0059  1.6124
17617TIP3   OH274265   0.149   6.532  11.892 -0.1276 -0.2187  0.1144
17617TIP3    H174266   0.122   6.445  11.865 -1.4008  0.1093  0.2688
17617TIP3    H274267   0.074   6.588  11.874 -0.6011  0.2667  3.0069
17618TIP3   OH274268   3.166   3.927  11.635 -0.1740 -0.5302  0.0531
17618TIP3    H174269   3.153   4.013  11.675  1.3812 -0.0719 -0.3426
17618TIP3    H274270   3.237   3.888  11.687 -0.5563 -1.3890 -0.0628
17619TIP3   OH274271   3.212   2.302  13.914  0.2134  1.3801 -0.3532
17619TIP3    H174272   3.231   2.300  14.008 -1.3004  0.8700 -0.0197
17619TIP3    H274273   3.127   2.345  13.909  0.5749  1.9653 -1.5574
17620TIP3   OH274274   2.850   6.458  16.396  0.3385 -0.0768 -0.0500
17620TIP3    H174275   2.793   6.536  16.391 -0.4175 -0.6342 -0.2982
17620TIP3    H274276   2.920   6.484  16.456 -2.6455 -0.8808  4.2595
17621TIP3   OH274277   1.671   6.191  13.578 -1.0518 -0.2809  0.3033
17621TIP3    H174278   1.616   6.238  13.641  0.9722  1.9543  0.5418
17621TIP3    H274279   1.671   6.246  13.500  0.8111 -0.2100  0.3190
17622TIP3   OH274280   1.284   5.382   0.693 -0.4270  0.0567  0.4551
17622TIP3    H174281   1.200   5.396   0.649 -0.4580 -1.0918  0.1094
17622TIP3    H274282   1.261   5.371   0.785 -0.3165  2.9627  0.9148
17623TIP3   OH274283   2.247   4.884  16.483  0.1308  0.2400  0.1366
17623TIP3    H174284   2.205   4.809  16.525  1.4451  0.8189  2.6496
17623TIP3    H274285   2.200   4.895  16.400 -0.9166 -2.5414  0.2841
17624TIP3   OH274286   6.257   5.407  13.773  0.0250  0.4812  0.2193
17624TIP3    H174287   6.217   5.327  13.807  1.4993 -1.2626 -1.8073
17624TIP3    H274288   6.208   5.425  13.693  0.1605  1.2042  0.2954
17625TIP3   OH274289   4.413   2.301   5.013 -0.4880 -0.0423 -0.3557
17625TIP3    H174290   4.350   2.339   5.075  1.0362  3.0551 -0.5223
17625TIP3    H274291   4.371   2.308   4.928 -0.5091  0.6381 -0.2909
17626TIP3   OH274292   5.388   4.072  12.853  0.0943  0.3852 -0.0664
17626TIP3    H174293   5.373   4.157  12.811 -0.6035 -0.6620 -2.0414
17626TIP3    H274294   5.473   4.044  12.819  0.2855  0.2370  0.5251
17627TIP3   OH274295   6.605   0.712  16.751 -0.0954  0.2217 -0.1243
17627TIP3    H174296   6.663   0.662  16.808  0.4728 -0.6415 -1.3924
17627TIP3    H274297   6.542   0.753  16.810 -0.2938 -1.6043  1.0395
17628TIP3   OH274298   1.636   4.408   4.521  0.0905 -0.5222 -0.3100
17628TIP3    H174299   1.679   4.488   4.489 -0.8100 -0.4133 -1.2772
17628TIP3    H274300   1.696   4.337   4.496  1.8384 -0.0740  2.1825
17629TIP3   OH274301   5.329   4.261  12.498 -0.0201  0.1370 -0.4307
17629TIP3    H174302   5.319   4.321  12.424  3.3441  0.2907 -0.8968
17629TIP3    H274303   5.423   4.250  12.508 -0.4255 -2.3369  1.9011
17630TIP3   OH274304   0.186   0.746   2.072  0.9636 -0.5301  0.1911
17630TIP3    H174305   0.178   0.671   2.013  2.1210 -0.6300  0.1425
17630TIP3    H274306   0.276   0.743   2.103  0.9495  0.6759  0.4047
17631TIP3   OH274307   5.255   2.235   0.101 -0.3986  0.0813  0.1804
17631TIP3    H174308   5.178   2.267   0.054  0.3267 -0.9076 -1.8218
17631TIP3    H274309   5.328   2.249   0.040  0.2410 -3.4819 -0.1456
17632TIP3   OH274310   4.005   1.748   2.191 -0.1223  0.2106  0.0673
17632TIP3    H174311   3.925   1.786   2.227  0.1123  0.3661  0.4364
17632TIP3    H274312   3.995   1.755   2.096 -0.2601  0.8232  0.1252
17633TIP3   OH274313   2.881   2.618   3.767 -0.2758  0.4187 -0.6017
17633TIP3    H174314   2.799   2.590   3.808  1.0151 -1.9206  0.5998
17633TIP3    H274315   2.927   2.667   3.836 -0.3198  1.0116 -0.9929
17634TIP3   OH274316   1.329   4.637   3.576 -0.2846  0.7026  0.1414
17634TIP3    H174317   1.261   4.571   3.592 -0.6346  0.4606 -2.1069
17634TIP3    H274318   1.402   4.588   3.539 -0.2267  1.4547 -0.7601
17635TIP3   OH274319   1.528   2.040   3.480 -0.1328  0.3876 -0.5762
17635TIP3    H174320   1.556   2.122   3.440 -0.1960  0.4566 -0.4808
17635TIP3    H274321   1.601   2.014   3.536  0.0834  0.1286 -0.9742
17636TIP3   OH274322   6.791   0.000   4.146  0.0687  0.4747 -0.0731
17636TIP3    H174323   6.739  -0.024   4.069 -0.1226  0.0485  0.1891
17636TIP3    H274324   6.880   0.014   4.111  0.2313 -0.8069 -0.2033
17637TIP3   OH274325   0.740   4.660   3.236 -0.0834  0.1608  0.4746
17637TIP3    H174326   0.766   4.573   3.264 -0.2350 -0.5512 -1.4569
17637TIP3    H274327   0.670   4.645   3.172 -1.1987  1.7755  1.2222
17638TIP3   OH274328   2.020   3.044   0.583  0.2021 -0.4611 -0.1615
17638TIP3    H174329   1.997   2.977   0.648 -2.4058 -0.9569 -1.4535
17638TIP3    H274330   1.937   3.087   0.564  1.0057  0.0971 -2.6767
17639TIP3   OH274331   3.846   5.996   3.850 -0.0310  0.2355 -0.0775
17639TIP3    H174332   3.923   6.052   3.846  0.8249 -0.4796  3.3418
17639TIP3    H274333   3.878   5.909   3.826 -0.2221  0.2752 -0.4868
17640TIP3   OH274334   0.491   0.073  13.219 -0.1345 -0.4320  0.2296
17640TIP3    H174335   0.568   0.106  13.265 -1.4698  1.2026  1.4479
17640TIP3    H274336   0.510  -0.019  13.202  1.5778 -0.3679  1.5468
17641TIP3   OH274337   1.290   6.299   5.125 -0.1261  0.0886  0.2737
17641TIP3    H174338   1.243   6.254   5.195 -1.7095 -1.6392 -1.7478
17641TIP3    H274339   1.360   6.346   5.169 -2.0803  0.5527  3.1913
17642TIP3   OH274340   2.407   1.989  13.614 -0.3376  0.1834  0.3002
17642TIP3    H174341   2.420   1.972  13.520  1.8598 -0.0027  0.5775
17642TIP3    H274342   2.320   1.955  13.633 -0.3717 -0.8315 -1.4365
17643TIP3   OH274343   0.863   3.467  11.932 -0.8225 -0.1269  0.6356
17643TIP3    H174344   0.884   3.515  12.012 -2.2027  1.6383  0.0125
17643TIP3    H274345   0.862   3.535  11.864 -1.2257 -1.3336 -0.5970
17644TIP3   OH274346   2.196   4.992  15.917 -0.3404  0.0112  0.5022
17644TIP3    H174347   2.246   5.006  15.998  0.3761 -0.2770  0.1243
17644TIP3    H274348   2.109   4.967  15.947 -0.3510  0.7982  1.1840
17645TIP3   OH274349   0.443   5.346   0.759  0.0771 -0.2616  0.0930
17645TIP3    H174350   0.517   5.286   0.773 -1.1631 -1.5108  1.6712
17645TIP3    H274351   0.481   5.433   0.766  1.7458 -0.8271 -1.1856
17646TIP3   OH274352   0.007   5.569   4.701  0.1939 -0.1840  0.6153
17646TIP3    H174353  -0.068   5.532   4.747 -0.3216  0.8568  0.6439
17646TIP3    H274354   0.061   5.608   4.770  0.1088  0.1796  0.4804
17647TIP3   OH274355   5.794   2.713  11.578  0.6298  0.1147 -0.0652
17647TIP3    H174356   5.704   2.706  11.607  0.3084  1.2994 -0.7037
17647TIP3    H274357   5.845   2.669  11.646 -0.2815  0.9460  1.2030
17648TIP3   OH274358   6.501   3.980  15.503 -0.4119  0.2778  0.2901
17648TIP3    H174359   6.406   3.980  15.490 -0.2162  0.6855 -1.4880
17648TIP3    H274360   6.522   4.071  15.525 -0.3414  0.4219 -0.3416
17649TIP3   OH274361   4.871   2.677   0.425  0.3969 -0.2227  0.1365
17649TIP3    H174362   4.781   2.645   0.425  0.6422 -1.0520 -1.5070
17649TIP3    H274363   4.865   2.767   0.456 -1.1829  0.1526 -1.1246
17650TIP3   OH274364   3.597   1.519  11.576 -0.2273  0.3605 -0.1770
17650TIP3    H174365   3.654   1.573  11.632  1.3454 -0.8772 -0.4986
17650TIP3    H274366   3.622   1.544  11.487 -0.9044  0.4966 -0.3312
17651TIP3   OH274367   5.230   3.246  15.403 -0.4717  0.2234  0.2194
17651TIP3    H174368   5.149   3.227  15.451  0.6225 -1.4481  1.5473
17651TIP3    H274369   5.299   3.203  15.455  1.1685  0.8955 -1.2984
17652TIP3   OH274370   0.199   1.055   2.254 -0.0254 -0.0253 -0.5581
17652TIP3    H174371   0.191   1.077   2.161  0.5765  1.4647 -0.2820
17652TIP3    H274372   0.250   0.974   2.255  0.8135  0.4745 -1.5040
17653TIP3   OH274373   4.770   3.482   1.084 -0.1062  0.2912  0.2832
17653TIP3    H174374   4.746   3.574   1.096 -1.7453 -0.1952  1.0854
17653TIP3    H274375   4.711   3.451   1.015  1.6289  0.2437 -1.2475
17654TIP3   OH274376   4.624   2.548   3.481 -1.0337  0.5454  0.2837
17654TIP3    H174377   4.697   2.524   3.423 -0.8857  2.5210 -0.4438
17654TIP3    H274378   4.586   2.465   3.507  0.7387 -0.5103 -0.2867
17655TIP3   OH274379   4.562   6.555  10.980  0.2989 -0.1304  0.1083
17655TIP3    H174380   4.637   6.606  10.950  0.0058  0.7726  0.8579
17655TIP3    H274381   4.488   6.616  10.976  0.3561  0.2949  3.2108
17656TIP3   OH274382   1.985   4.003   3.434  0.4912 -0.1903  0.6957
17656TIP3    H174383   2.035   3.938   3.385  1.0260  0.7063  0.0166
17656TIP3    H274384   1.911   4.025   3.377  1.4512  1.3132 -0.0432
17657TIP3   OH274385   5.746   4.790   2.179  0.7091 -0.0020 -0.3030
17657TIP3    H174386   5.747   4.858   2.113 -0.6348 -0.7521 -1.1396
17657TIP3    H274387   5.664   4.804   2.227  0.6760 -0.6823 -0.1405
17658TIP3   OH274388   5.721   3.108  15.735  0.0259 -0.1770  0.0834
17658TIP3    H174389   5.653   3.099  15.802 -1.0470  1.5158 -0.7171
17658TIP3    H274390   5.751   3.019  15.719 -1.9360 -0.9629  0.5271
17659TIP3   OH274391   6.693   6.562   1.312 -0.5037  0.0848  0.3020
17659TIP3    H174392   6.735   6.494   1.365  0.3768  0.1632 -0.2788
17659TIP3    H274393   6.694   6.528   1.223  1.2370  1.4069 -0.2503
17660TIP3   OH274394   3.374   5.386   5.059  0.2909  0.0693  0.3826
17660TIP3    H174395   3.468   5.377   5.043  0.0015 -0.5216 -1.1784
17660TIP3    H274396   3.333   5.325   4.997 -1.1183  0.0190  1.3037
17661TIP3   OH274397   6.422   3.952   0.920 -0.1799  0.3161 -0.3882
17661TIP3    H174398   6.453   4.016   0.856  0.5629 -0.4413 -0.8042
17661TIP3    H274399   6.500   3.926   0.968 -0.6221  0.3679  0.3764
17662TIP3   OH274400   3.201   5.048   6.248 -0.0991  0.0297 -0.0175
17662TIP3    H174401   3.268   5.113   6.269 -0.7991  0.2018  1.9405
17662TIP3    H274402   3.250   4.968   6.230  0.7252  0.8316 -1.4446
17663TIP3   OH274403   6.734   3.716  11.718 -0.0170 -0.8879 -0.4665
17663TIP3    H174404   6.689   3.643  11.759 -1.5271  0.1033 -0.2601
17663TIP3    H274405   6.664   3.767  11.677  1.0980 -0.0869 -1.4499
17664TIP3   OH274406   6.186   5.774  12.266 -0.0757 -0.7513 -0.6104
17664TIP3    H174407   6.224   5.843  12.212 -2.5128  1.8738  0.7320
17664TIP3    H274408   6.118   5.735  12.211 -2.1951  1.5636  0.1508
17665TIP3   OH274409   5.900   6.541   3.613 -0.5528  0.8825  0.3845
17665TIP3    H174410   5.947   6.591   3.681 -0.2164 -0.1360  0.9240
17665TIP3    H274411   5.887   6.455   3.652 -0.5723  0.3532 -0.7664
17666TIP3   OH274412   2.920   3.990  16.091  0.3601 -0.1822  0.3991
17666TIP3    H174413   3.014   3.984  16.074 -0.0081 -0.5780 -1.7521
17666TIP3    H274414   2.914   4.013  16.184  2.6039  0.9834  0.3264
17667TIP3   OH274415   1.530   1.272  15.601  0.0916 -0.5458 -0.3973
17667TIP3    H174416   1.505   1.362  15.622  1.3501 -0.2566 -0.0241
17667TIP3    H274417   1.526   1.225  15.685  0.9123 -0.4520 -0.2949
17668TIP3   OH274418   5.938   6.739   0.994  0.1157  0.3063  0.6780
17668TIP3    H174419   6.025   6.714   1.023 -0.2351 -1.1187  0.5442
17668TIP3    H274420   5.932   6.708   0.903  0.0142  1.7789  0.1444
17669TIP3   OH274421   3.109   1.148  14.630  0.3615 -0.2554  0.3274
17669TIP3    H174422   3.089   1.238  14.605  0.4915 -0.3211 -0.0204
17669TIP3    H274423   3.123   1.152  14.725 -1.3290 -0.2209  0.6093
17670TIP3   OH274424   5.537   6.404   4.031  0.7295  0.5430  0.2395
17670TIP3    H174425   5.563   6.444   4.115 -0.2864 -0.4648  1.0579
17670TIP3    H274426   5.616   6.411   3.977  2.0065 -0.3832  1.8756
17671TIP3   OH274427   2.109   4.980  16.865 -0.1375  0.2691  0.3300
17671TIP3    H174428   2.170   4.985  16.792 -1.2396 -0.0849 -0.6648
17671TIP3    H274429   2.126   4.894  16.905  2.0685  1.4180  2.0143
17672TIP3   OH274430   6.776   0.332  10.460 -0.2476 -0.8491  0.0815
17672TIP3    H174431   6.733   0.365  10.381  0.1461  0.0711  0.2369
17672TIP3    H274432   6.868   0.354  10.448 -0.4702  1.3677  1.7589
17673TIP3   OH274433   4.046   0.274  16.493 -0.4310  0.2226 -0.5372
17673TIP3    H174434   4.121   0.239  16.443 -1.1285  0.3293 -1.6926
17673TIP3    H274435   4.086   0.321  16.566  0.5782 -1.7183  0.2498
17674TIP3   OH274436   4.376   3.253  14.243 -0.3898 -0.1037 -0.4251
17674TIP3    H174437   4.327   3.246  14.325 -1.1064  0.0506 -0.8355
17674TIP3    H274438   4.404   3.344  14.239  1.7404 -0.6297  0.8155
17675TIP3   OH274439   6.698   0.172  16.042  0.1475  0.9714 -0.4622
17675TIP3    H174440   6.639   0.242  16.068  0.4411  0.6201  1.2736
17675TIP3    H274441   6.771   0.216  15.999 -0.8035  1.4976 -1.5914
17676TIP3   OH274442   4.372   6.019   3.653  0.0382 -0.4001  0.1888
17676TIP3    H174443   4.365   6.025   3.558 -0.7254 -0.0319  0.2678
17676TIP3    H274444   4.308   5.953   3.678  1.3662 -1.7041  0.3091
17677TIP3   OH274445   2.548   6.062   3.744 -0.6448  0.2492 -0.3467
17677TIP3    H174446   2.534   6.151   3.712 -0.8046  0.3373 -0.0432
17677TIP3    H274447   2.643   6.050   3.742 -0.7117 -0.1809 -1.9785
17678TIP3   OH274448   1.740   6.177  14.224 -0.1429 -0.2629 -0.3271
17678TIP3    H174449   1.770   6.088  14.240 -0.0604 -0.2155 -0.2079
17678TIP3    H274450   1.676   6.170  14.154  0.4814 -0.3148 -0.9017
17679TIP3   OH274451   4.370   3.315  15.502 -0.3013 -0.6651 -0.2342
17679TIP3    H174452   4.417   3.259  15.564  0.1606  1.0075  0.9983
17679TIP3    H274453   4.282   3.279  15.498  0.3884 -2.3891 -0.6802
17680TIP3   OH274454   0.585   1.702   3.377 -0.1668 -0.4909 -0.0292
17680TIP3    H174455   0.663   1.646   3.376 -1.0724 -1.8045 -0.2496
17680TIP3    H274456   0.519   1.651   3.331 -1.0642  0.7526 -0.1593
17681TIP3   OH274457   5.864   5.473  11.275 -0.3115 -0.2249  0.3955
17681TIP3    H174458   5.904   5.556  11.301  1.0304 -1.0516  1.0779
17681TIP3    H274459   5.937   5.417  11.250 -1.3271 -0.4168 -2.6222
17682TIP3   OH274460   1.259   6.749   0.884 -0.2201  0.1672  0.2150
17682TIP3    H174461   1.269   6.688   0.957  3.2097  1.1919  0.7809
17682TIP3    H274462   1.194   6.813   0.914 -0.7165 -0.8253  1.3224
17683TIP3   OH274463   3.229   2.006  17.008 -0.5352 -0.0755 -0.3860
17683TIP3    H174464   3.140   2.041  17.004 -0.1051  0.9222 -2.4312
17683TIP3    H274465   3.269   2.032  16.925  1.6619 -0.5434  0.4610
17684TIP3   OH274466   0.589   2.992   2.798  0.1623 -0.5720  0.4428
17684TIP3    H174467   0.615   3.056   2.865  0.2550  0.1020 -0.2183
17684TIP3    H274468   0.671   2.969   2.755 -0.1333  0.6586 -0.8658
17685TIP3   OH274469   5.925   1.329  14.122  0.1407 -0.2295  0.6559
17685TIP3    H174470   6.000   1.365  14.075 -0.9442  1.3861  0.0728
17685TIP3    H274471   5.878   1.278  14.057  1.1546 -2.0154  1.2438
17686TIP3   OH274472   5.123   5.016  16.504 -0.5200  0.0257 -0.2020
17686TIP3    H174473   5.028   5.007  16.492 -0.9763  3.6888 -0.7528
17686TIP3    H274474   5.154   5.054  16.422  0.6502  2.5907  1.2720
17687TIP3   OH274475   0.084   4.736  13.326 -0.0373  0.3453  0.1092
17687TIP3    H174476   0.075   4.706  13.236 -2.0327 -1.4677  0.8340
17687TIP3    H274477   0.167   4.698  13.355 -0.0889 -0.2936 -0.5382
17688TIP3   OH274478   2.161   6.270   4.323 -0.2877 -0.5722 -0.0521
17688TIP3    H174479   2.212   6.301   4.247 -0.8107 -0.1838 -0.2490
17688TIP3    H274480   2.133   6.182   4.298 -0.2763 -0.5299 -0.2189
17689TIP3   OH274481   5.008   0.957   5.224 -0.0518 -0.0097 -0.2142
17689TIP3    H174482   5.026   0.917   5.139 -0.3480 -2.2785  0.7209
17689TIP3    H274483   5.088   1.005   5.245 -0.0845  0.8569 -1.8733
17690TIP3   OH274484   5.729   6.005  12.709  0.1343  0.3401  0.0384
17690TIP3    H174485   5.788   6.079  12.693  0.8236  0.0340  1.0857
17690TIP3    H274486   5.709   5.972  12.622 -0.3125  1.8444 -0.4688
17691TIP3   OH274487   5.724   6.764   5.652  0.0491  0.9225 -0.3468
17691TIP3    H174488   5.749   6.845   5.607  0.9684 -0.3208 -2.2235
17691TIP3    H274489   5.766   6.695   5.601  0.6286 -0.6728  2.1209
17692TIP3   OH274490   3.623   4.924   2.798 -0.3984 -0.2112  0.0089
17692TIP3    H174491   3.581   4.907   2.883 -3.2464 -1.3871 -1.5007
17692TIP3    H274492   3.571   4.994   2.759 -0.9527 -1.5791 -1.8610
17693TIP3   OH274493   3.034   5.269  16.519  0.1795 -0.0596 -0.5093
17693TIP3    H174494   3.031   5.348  16.465 -0.8884 -2.3198 -4.0961
17693TIP3    H274495   2.943   5.241  16.526  0.5853 -1.3281  0.1051
17694TIP3   OH274496   0.952   1.311   6.044 -0.2085  0.2636  0.3552
17694TIP3    H174497   0.955   1.215   6.038  0.3403  0.3774 -1.7661
17694TIP3    H274498   1.030   1.333   6.095 -1.0744 -0.4504  2.0760
17695TIP3   OH274499   4.617   5.906  11.442 -0.5649  0.0392  0.1591
17695TIP3    H174500   4.555   5.859  11.497  0.2674  1.4747  2.4764
17695TIP3    H274501   4.570   5.986  11.418 -0.2105  0.3679  0.5444
17696TIP3   OH274502   5.502   2.466   1.303  0.2983 -0.3036  0.5180
17696TIP3    H174503   5.422   2.475   1.355  1.2345  2.4394  1.6629
17696TIP3    H274504   5.488   2.522   1.227  0.1399 -1.9312 -0.7148
17697TIP3   OH274505   0.793   0.238  15.896  0.3230 -0.6614  0.3530
17697TIP3    H174506   0.718   0.284  15.859  2.2585  1.8601 -0.6995
17697TIP3    H274507   0.818   0.174  15.829 -0.2781 -0.8411  0.2964
17698TIP3   OH274508   5.736   1.295  13.193 -0.3122 -0.4039 -0.4400
17698TIP3    H174509   5.731   1.382  13.153  0.0245  0.1398  0.6529
17698TIP3    H274510   5.727   1.234  13.120  2.2185  0.5205 -1.6359
17699TIP3   OH274511   4.660   2.768   3.184  0.4058 -0.0002  0.3084
17699TIP3    H174512   4.614   2.784   3.101  1.8764 -0.7267 -0.7000
17699TIP3    H274513   4.602   2.804   3.251 -0.9860  0.3141 -1.0031
17700TIP3   OH274514   1.507   4.118   2.072  0.2537 -0.0775 -0.2294
17700TIP3    H174515   1.547   4.203   2.089 -1.1332  0.6723 -0.5482
17700TIP3    H274516   1.571   4.054   2.103  1.1742  1.0864  0.3229
17701TIP3   OH274517   6.500   2.727   5.556 -0.0496 -0.0733  0.1976
17701TIP3    H174518   6.581   2.712   5.506 -0.8770  0.7044 -1.4755
17701TIP3    H274519   6.452   2.644   5.550 -0.5837  0.3087 -1.2166
17702TIP3   OH274520   4.544   5.919   3.975  0.6715 -0.9407  0.2639
17702TIP3    H174521   4.562   5.846   4.034  1.8537 -1.8347 -1.1163
17702TIP3    H274522   4.583   5.892   3.891  0.0599  0.7561 -0.6189
17703TIP3   OH274523   0.304   0.555  14.713  0.6408 -0.0787 -0.4621
17703TIP3    H174524   0.377   0.607  14.678  1.2026  0.3854  1.3080
17703TIP3    H274525   0.310   0.565  14.808 -0.3043 -1.9954 -0.1475
17704TIP3   OH274526   0.170   3.028   2.397 -0.3421  0.1878  0.0907
17704TIP3    H174527   0.160   3.118   2.426  0.0738  0.5449 -0.8246
17704TIP3    H274528   0.080   2.994   2.394 -0.6499  1.0148 -0.8724
17705TIP3   OH274529   5.503   2.371   4.161  0.0645 -0.6867 -0.1425
17705TIP3    H174530   5.557   2.449   4.151  0.6017 -1.1172 -0.7144
17705TIP3    H274531   5.414   2.401   4.141  0.2383 -0.1782 -0.1665
17706TIP3   OH274532   1.810   1.877  15.660  0.2755  0.3915  0.2025
17706TIP3    H174533   1.887   1.828  15.634  0.2000  0.6581 -0.5501
17706TIP3    H274534   1.799   1.943  15.592 -0.5477  0.4295  0.3551
17707TIP3   OH274535   6.600   6.752  16.147 -0.4480 -0.3888  0.5547
17707TIP3    H174536   6.647   6.671  16.126 -0.4490 -0.2406 -0.0512
17707TIP3    H274537   6.658   6.822  16.115 -1.3976 -0.2258 -0.8900
17708TIP3   OH274538   4.096   3.069  12.000  0.2645 -0.0376 -0.1189
17708TIP3    H174539   4.148   2.998  11.962 -0.0999 -0.4311  0.1156
17708TIP3    H274540   4.049   3.028  12.073 -0.1447  0.3893 -0.1418
17709TIP3   OH274541   4.362   5.431   1.388  0.2647  0.0827 -0.2261
17709TIP3    H174542   4.442   5.427   1.440  0.2529  0.0935 -0.2072
17709TIP3    H274543   4.308   5.497   1.432  0.5536  0.6198 -0.6704
17710TIP3   OH274544   5.834   0.739  11.120 -0.2283  0.9356  0.1336
17710TIP3    H174545   5.807   0.831  11.127 -2.0457  0.4235  0.4572
17710TIP3    H274546   5.919   0.736  11.165 -0.1199  2.4526  0.1017
17711TIP3   OH274547   6.796   6.059  12.403 -0.1003 -0.0271 -0.1145
17711TIP3    H174548   6.779   5.977  12.357  1.9829  0.7145 -2.4404
17711TIP3    H274549   6.756   6.126  12.348 -1.9229  0.5806  1.8426
17712TIP3   OH274550   0.461   2.780   4.772 -0.5854  0.6429 -0.2693
17712TIP3    H174551   0.465   2.727   4.852 -1.4751  0.6802 -0.1858
17712TIP3    H274552   0.511   2.858   4.792  2.4422 -0.9548 -1.0419
17713TIP3   OH274553   1.316   6.751  15.183  0.0491  0.6151  0.5654
17713TIP3    H174554   1.352   6.708  15.106 -0.3021  0.0802  0.6969
17713TIP3    H274555   1.362   6.835  15.188 -1.3058  1.5299 -1.3291
17714TIP3   OH274556   0.064   0.892   0.847  0.0615 -0.1473  0.5039
17714TIP3    H174557   0.142   0.840   0.832  1.3803  1.2932  1.9843
17714TIP3    H274558   0.082   0.976   0.806 -0.1342  0.6389  1.9484
17715TIP3   OH274559   4.306   1.750  11.845  0.3489 -0.1647 -0.3481
17715TIP3    H174560   4.290   1.827  11.899 -0.2749  0.5361 -1.4959
17715TIP3    H274561   4.278   1.676  11.899  0.7389  0.4266  0.6739
17716TIP3   OH274562   1.688   5.748  15.308 -0.1079 -0.2116  0.5046
17716TIP3    H174563   1.659   5.661  15.280  0.6222  0.0187 -1.0901
17716TIP3    H274564   1.765   5.766  15.255 -1.0926  2.0292 -0.2937
17717TIP3   OH274565   1.190   2.132   2.187 -0.3078  0.3731 -0.8150
17717TIP3    H174566   1.124   2.091   2.132  0.4707 -1.9524 -0.1344
17717TIP3    H274567   1.249   2.060   2.212  1.5703  2.0504 -0.1050
17718TIP3   OH274568   1.164   4.004   4.424  0.3956  0.7842  0.3272
17718TIP3    H174569   1.157   4.100   4.421 -1.1467  0.7287  1.2308
17718TIP3    H274570   1.082   3.973   4.385  0.7046 -0.1792  0.4167
17719TIP3   OH274571   5.122   4.382   2.219  0.3068 -0.2222 -0.5446
17719TIP3    H174572   5.132   4.399   2.312 -2.2251 -2.7354  0.3145
17719TIP3    H274573   5.105   4.467   2.180  0.5242  0.7603  1.4181
17720TIP3   OH274574   4.506   0.177  16.964  0.0575  0.0939 -0.5134
17720TIP3    H174575   4.577   0.241  16.970 -0.0238  0.1070  0.5012
17720TIP3    H274576   4.501   0.155  16.871  2.1488 -0.7625 -0.4777
17721TIP3   OH274577   0.182   4.392   0.289 -0.1108 -0.1860  0.2349
17721TIP3    H174578   0.161   4.331   0.218 -1.3569 -0.3250  0.7074
17721TIP3    H274579   0.254   4.445   0.254 -1.2075  0.2742 -1.4517
17722TIP3   OH274580   5.589   1.493  12.310 -0.3412 -0.0058  0.1294
17722TIP3    H174581   5.528   1.421  12.288  1.2614 -0.8958 -1.6965
17722TIP3    H274582   5.643   1.502  12.232  3.2836 -0.6967  2.3455
17723TIP3   OH274583   1.803   0.016   3.957  0.0991  0.0948 -0.3132
17723TIP3    H174584   1.822  -0.024   3.873 -1.8901  0.5018 -1.0091
17723TIP3    H274585   1.809   0.110   3.941 -0.7109  0.1879 -0.1496
17724TIP3   OH274586   3.349   5.587   1.509  0.0067  0.3718  0.3757
17724TIP3    H174587   3.265   5.626   1.532 -0.1863 -0.8646  1.9567
17724TIP3    H274588   3.361   5.516   1.573  0.0884 -2.5216 -2.5630
17725TIP3   OH274589   6.372   0.367  16.966  0.5130  0.1812  0.0263
17725TIP3    H174590   6.374   0.387  16.872  0.8101 -1.5595 -0.3659
17725TIP3    H274591   6.366   0.453  17.008  1.1619  1.0493 -1.5491
17726TIP3   OH274592   6.181   0.748   5.265  0.3755  0.4171 -0.3557
17726TIP3    H174593   6.240   0.764   5.339  2.9190 -1.9738 -1.6387
17726TIP3    H274594   6.213   0.805   5.195  1.2428 -0.8536 -1.0441
17727TIP3   OH274595   1.571   6.063   1.646  0.1419  0.2711 -0.5147
17727TIP3    H174596   1.491   6.076   1.597 -1.3022 -0.7080  1.4335
17727TIP3    H274597   1.595   6.150   1.677 -0.6565  0.4619 -0.4166
17728TIP3   OH274598   0.838   6.477  16.085  0.2587  0.8139 -0.1965
17728TIP3    H174599   0.766   6.533  16.114  0.8578  1.4103  0.1366
17728TIP3    H274600   0.798   6.420  16.019 -0.6565  0.7479  0.3979
17729TIP3   OH274601   5.435   5.795  11.382 -0.1267 -0.8064  0.1318
17729TIP3    H174602   5.421   5.822  11.291 -0.6766  1.5367  0.8515
17729TIP3    H274603   5.519   5.750  11.381  1.5107  2.0640 -1.0256
17730TIP3   OH274604   3.650   6.532  12.579 -0.0625  0.7141 -0.0476
17730TIP3    H174605   3.633   6.483  12.659  0.9430  0.9331  0.3104
17730TIP3    H274606   3.608   6.617  12.593  0.6196  0.9672  0.5012
17731TIP3   OH274607   5.278   6.152  15.609  0.6949  0.3228 -0.5332
17731TIP3    H174608   5.354   6.097  15.625  0.5113  0.1667 -0.1710
17731TIP3    H274609   5.313   6.231  15.567  0.7312 -0.8848 -2.9090
17732TIP3   OH274610   0.641   1.777  12.763  0.0911  0.1572 -0.4608
17732TIP3    H174611   0.670   1.868  12.775  0.5410  0.2356 -1.9336
17732TIP3    H274612   0.715   1.734  12.719  0.0405 -1.0419  0.5685
17733TIP3   OH274613   5.842   1.208   4.547  0.3184  0.0072  0.3797
17733TIP3    H174614   5.820   1.129   4.498 -2.4149 -0.0582  1.5082
17733TIP3    H274615   5.844   1.179   4.639  0.3734  1.0367  0.7162
17734TIP3   OH274616   0.240   3.659  16.249  0.0820 -0.3397  0.1840
17734TIP3    H174617   0.196   3.653  16.334 -0.2885  0.6317  0.0702
17734TIP3    H274618   0.303   3.730  16.259  3.1143 -2.8817  0.9651
17735TIP3   OH274619   0.729   5.584  13.298  0.3716  0.2027  0.3096
17735TIP3    H174620   0.663   5.524  13.263  0.2184  0.4180  0.2225
17735TIP3    H274621   0.813   5.547  13.271  0.2427  0.7284 -0.9030
17736TIP3   OH274622   6.578   5.077  15.880  0.3520 -0.0517  0.2227
17736TIP3    H174623   6.559   5.041  15.794  0.0658 -0.2783  0.3789
17736TIP3    H274624   6.662   5.038  15.905  1.7423  1.9120 -1.0112
17737TIP3   OH274625   4.723   2.509  14.790 -0.0051 -0.1086 -0.2938
17737TIP3    H174626   4.788   2.528  14.723 -0.2425  1.0016 -0.2358
17737TIP3    H274627   4.640   2.537  14.751 -0.2670 -0.3053  0.1149
17738TIP3   OH274628   5.960   0.423  11.742  0.1419 -0.3800  0.0536
17738TIP3    H174629   5.871   0.432  11.708 -0.0308 -0.7792  0.3982
17738TIP3    H274630   5.993   0.513  11.746 -0.2325 -0.2341 -0.1064
17739TIP3   OH274631   2.707   6.211  15.440 -0.4092  0.2490  0.0978
17739TIP3    H174632   2.689   6.185  15.531  0.4306  0.8570  0.4594
17739TIP3    H274633   2.802   6.204  15.433 -0.2378  2.2304 -0.0823
17740TIP3   OH274634   3.317   2.555   5.957  0.0595 -0.1773  0.1010
17740TIP3    H174635   3.237   2.601   5.930  0.9640  0.9037 -0.8397
17740TIP3    H274636   3.353   2.610   6.027  1.5388  1.0278 -1.5329
17741TIP3   OH274637   5.455   6.444  14.514  0.2630  0.5652  0.1339
17741TIP3    H174638   5.386   6.401  14.564  0.0421  0.6214 -0.1121
17741TIP3    H274639   5.411   6.521  14.476  1.2467  2.4989  2.6295
17742TIP3   OH274640   5.196   4.284   5.288 -0.2644 -0.1899 -0.3269
17742TIP3    H174641   5.184   4.372   5.324 -1.0626 -0.6236  0.5208
17742TIP3    H274642   5.276   4.252   5.330 -0.3246 -0.0942 -0.1358
17743TIP3   OH274643   5.464   2.865   6.389 -0.2198 -0.5393 -0.0999
17743TIP3    H174644   5.390   2.893   6.441 -0.7991  2.1752 -2.1623
17743TIP3    H274645   5.426   2.828   6.309  0.5951  0.3213 -0.9217
17744TIP3   OH274646   2.766   1.486  13.910  0.5585  0.3212  0.5587
17744TIP3    H174647   2.707   1.463  13.838  1.8250 -2.4721  0.2747
17744TIP3    H274648   2.840   1.530  13.868 -0.5463  2.4432  0.7323
17745TIP3   OH274649   5.580   6.579   2.883  0.5245  0.8115 -0.1005
17745TIP3    H174650   5.527   6.528   2.821  0.9641  0.1093  0.0878
17745TIP3    H274651   5.564   6.537   2.968 -1.2399  2.6691  0.5628
17746TIP3   OH274652   5.196   5.128   1.426  0.4262 -0.7794 -0.2673
17746TIP3    H174653   5.172   5.053   1.479  0.6073 -0.3290  0.4700
17746TIP3    H274654   5.290   5.117   1.408  0.3564 -0.9514 -0.5334
17747TIP3   OH274655   5.418   1.307  16.017 -0.1711 -0.0452  0.4180
17747TIP3    H174656   5.344   1.359  16.047  0.1917  0.9454 -0.3362
17747TIP3    H274657   5.385   1.261  15.940  0.8718  3.2469 -2.2851
17748TIP3   OH274658   6.567   0.126   2.085  0.7920 -0.0437  0.1184
17748TIP3    H174659   6.486   0.176   2.072  0.6290 -0.7235 -1.8958
17748TIP3    H274660   6.605   0.119   1.997  2.6008 -0.4907  0.8870
17749TIP3   OH274661   2.246   5.236  11.238 -0.3009 -0.3972 -0.4613
17749TIP3    H174662   2.291   5.229  11.154  1.4370  0.1137  0.3741
17749TIP3    H274663   2.246   5.147  11.273  0.1720 -0.3782 -0.4121
17750TIP3   OH274664   2.886   1.887   3.423 -0.0426 -0.0132 -0.0014
17750TIP3    H174665   2.925   1.975   3.423  1.4239 -0.5997 -2.0352
17750TIP3    H274666   2.868   1.869   3.331 -2.7117 -0.8806  0.6203
17751TIP3   OH274667   5.863   2.406  16.487  0.9246 -0.3248 -0.2094
17751TIP3    H174668   5.805   2.331  16.499 -0.3645  0.9097  2.0285
17751TIP3    H274669   5.825   2.453  16.412  1.3351 -1.4705 -1.1808
17752TIP3   OH274670   2.061   1.282  16.438  0.4660 -0.0939  0.3744
17752TIP3    H174671   2.017   1.325  16.364  0.6487  0.2945  0.4878
17752TIP3    H274672   1.999   1.291  16.511  0.4314 -0.1761  0.3543
17753TIP3   OH274673   4.005   1.369   4.692  0.0092  0.0718  0.7408
17753TIP3    H174674   4.072   1.318   4.738  0.0610  0.2605  0.8779
17753TIP3    H274675   3.925   1.316   4.700 -0.3058  0.7295  2.2344
17754TIP3   OH274676   2.064   3.086  13.337  0.1603 -0.7994 -0.4893
17754TIP3    H174677   1.989   3.144  13.350  1.3717  1.0389 -1.2611
17754TIP3    H274678   2.035   3.025  13.269 -0.7341 -0.3165 -0.5602
17755TIP3   OH274679   3.633   0.767   3.770  0.3440 -0.5664  0.2117
17755TIP3    H174680   3.614   0.731   3.856  0.3254 -0.7571  0.1291
17755TIP3    H274681   3.641   0.862   3.784  0.8626 -0.6532  0.5100
17756TIP3   OH274682   1.386   6.599   4.391  0.1699  0.0862 -0.2212
17756TIP3    H174683   1.395   6.504   4.397  1.6683  0.1086 -1.5046
17756TIP3    H274684   1.464   6.634   4.432 -0.3918  0.7816  0.2873
17757TIP3   OH274685   0.109   1.856   1.244 -0.5758 -0.4414 -0.1077
17757TIP3    H174686   0.174   1.897   1.301  0.1354 -0.8548 -0.6129
17757TIP3    H274687   0.156   1.834   1.164 -1.5804  0.1906 -0.9088
17758TIP3   OH274688   1.019   5.675  11.679  0.1519 -0.0906  0.2837
17758TIP3    H174689   1.072   5.595  11.687 -0.0403 -0.5399 -2.3616
17758TIP3    H274690   1.068   5.729  11.617 -0.4309  1.2904  0.9992
17759TIP3   OH274691   6.319   6.152  17.107  0.4746 -0.3749 -0.8744
17759TIP3    H174692   6.360   6.173  17.024 -1.0906 -0.3333 -1.6820
17759TIP3    H274693   6.248   6.216  17.115 -1.5671 -2.4471 -1.2073
17760TIP3   OH274694   5.653   3.015   1.340  0.4025 -0.2999  0.8150
17760TIP3    H174695   5.715   2.952   1.378  0.1943  0.7202  3.0540
17760TIP3    H274696   5.577   2.963   1.315  1.3679 -1.3049 -0.1188
17761TIP3   OH274697   3.848   3.927  16.452  0.0628  0.2454 -0.2467
17761TIP3    H174698   3.834   3.894  16.363  0.2834  0.4372 -0.3539
17761TIP3    H274699   3.943   3.932  16.461  0.1166 -1.6042  0.6788
17762TIP3   OH274700   0.859   1.132   3.165  0.0190 -0.0896  0.2449
17762TIP3    H174701   0.828   1.108   3.077 -1.2427 -0.8237  0.8593
17762TIP3    H274702   0.823   1.219   3.180 -0.3819 -0.2641  0.3107
17763TIP3   OH274703   4.310   1.726  10.603  0.2525 -0.4917  0.0089
17763TIP3    H174704   4.267   1.757  10.683  0.7501  1.9626 -0.5748
17763TIP3    H274705   4.251   1.753  10.533  2.1996  2.2828 -0.7515
17764TIP3   OH274706   5.218   3.543   6.175 -0.1746  0.3491  0.3437
17764TIP3    H174707   5.251   3.575   6.091 -0.1109 -1.0126 -0.1814
17764TIP3    H274708   5.268   3.592   6.241  1.0712  0.1598 -0.4301
17765TIP3   OH274709   1.898   2.216   4.702 -0.2269  0.2216 -0.0729
17765TIP3    H174710   1.840   2.292   4.701  0.1197  0.5876  2.1731
17765TIP3    H274711   1.887   2.179   4.790  1.1163 -1.1414 -0.4400
17766TIP3   OH274712   6.748   5.824  13.596 -0.1327  0.4767 -0.2872
17766TIP3    H174713   6.735   5.896  13.658 -0.2773 -1.4711  2.0860
17766TIP3    H274714   6.840   5.830  13.572  0.1434  0.8175  0.7789
17767TIP3   OH274715   3.120   0.776   0.966  0.0226  0.3359 -0.1990
17767TIP3    H174716   3.192   0.718   0.991  0.6649  0.7654 -1.0143
17767TIP3    H274717   3.146   0.862   1.000  1.0117  0.9792 -2.3955
17768TIP3   OH274718   0.668   0.062   5.890 -0.4320  0.2719 -0.6123
17768TIP3    H174719   0.609   0.096   5.957 -3.1957 -1.7855 -1.7863
17768TIP3    H274720   0.677  -0.031   5.911  2.2124  0.4273 -0.7166
17769TIP3   OH274721   3.676   0.571  14.676 -0.3741  0.5930  0.5097
17769TIP3    H174722   3.749   0.566  14.615  1.5633  2.9221  2.4422
17769TIP3    H274723   3.633   0.654  14.656 -0.2317  0.9731  1.7150
17770TIP3   OH274724   6.027   2.576   3.014 -0.1245  0.0387  0.0808
17770TIP3    H174725   5.932   2.585   3.021 -0.2452 -1.3921  0.7703
17770TIP3    H274726   6.054   2.537   3.097  1.2692  1.6796  0.4496
17771TIP3   OH274727   3.030   4.784   3.150  0.3195  0.6985 -0.2756
17771TIP3    H174728   2.981   4.832   3.084  2.1163  1.5412 -1.0674
17771TIP3    H274729   3.052   4.701   3.108 -1.0982 -0.0739  0.3994
17772TIP3   OH274730   3.384   2.313  12.654 -0.2938 -0.1448  0.0210
17772TIP3    H174731   3.370   2.219  12.660 -0.4415 -0.1051  0.3385
17772TIP3    H274732   3.478   2.322  12.638 -0.3303 -0.3539 -0.3108
17773TIP3   OH274733   0.106   4.257   1.100 -0.6286  0.3527 -0.4025
17773TIP3    H174734   0.120   4.221   1.012 -1.3564 -2.3597  0.4840
17773TIP3    H274735   0.011   4.254   1.112 -0.7215  2.6026 -0.2066
17774TIP3   OH274736   4.533   1.254  12.728  0.6948 -0.0114  0.3115
17774TIP3    H174737   4.456   1.261  12.672  1.9866 -0.3984 -1.6335
17774TIP3    H274738   4.531   1.164  12.760  1.3684 -0.6879 -1.4174
17775TIP3   OH274739   2.832   0.526   1.198 -0.1522 -0.0421 -0.2015
17775TIP3    H174740   2.864   0.603   1.246 -1.7469  0.2319  0.4612
17775TIP3    H274741   2.811   0.560   1.111 -0.0780  0.0955 -0.1661
17776TIP3   OH274742   0.429   3.896   5.591  0.1440 -0.4544 -0.5448
17776TIP3    H174743   0.502   3.954   5.612 -0.4831  0.0340  0.3760
17776TIP3    H274744   0.413   3.910   5.498  0.4026  0.3911 -0.4681
17777TIP3   OH274745   4.585   0.364  11.009  0.2364 -0.3045 -0.1929
17777TIP3    H174746   4.673   0.345  10.976  0.8186  0.1285  1.0422
17777TIP3    H274747   4.552   0.279  11.039  0.3970 -0.4096 -0.3113
17778TIP3   OH274748   5.668   2.036  10.978 -0.9155 -0.5682 -0.5117
17778TIP3    H174749   5.584   2.079  10.960 -1.4040 -1.2946 -0.0124
17778TIP3    H274750   5.693   2.068  11.065 -0.5032 -0.0961 -0.7991
17779TIP3   OH274751   5.293   0.090  13.858 -0.4987 -0.1733 -0.4037
17779TIP3    H174752   5.296   0.087  13.762 -1.9173 -4.1763 -0.5223
17779TIP3    H274753   5.381   0.118  13.884 -0.2625  1.6151 -2.8064
17780TIP3   OH274754   3.399   2.068  11.884  0.4427 -0.3101 -0.3803
17780TIP3    H174755   3.305   2.068  11.903  0.1750 -0.2046 -1.5710
17780TIP3    H274756   3.409   2.002  11.815  1.2789 -0.4604 -0.1290
17781TIP3   OH274757   5.596   3.602   5.057  0.3296  0.1719 -0.4880
17781TIP3    H174758   5.555   3.515   5.053 -1.6215  0.9801  0.5057
17781TIP3    H274759   5.578   3.640   4.971  0.3747 -0.0563 -0.6007
17782TIP3   OH274760   2.209   3.832   1.977  0.4451 -0.5453  0.5969
17782TIP3    H174761   2.148   3.856   1.907  2.1361 -0.5966 -0.9835
17782TIP3    H274762   2.167   3.759   2.022 -0.7295 -0.4597 -0.3259
17783TIP3   OH274763   4.296   5.456  14.582  0.3789 -0.0490  0.1463
17783TIP3    H174764   4.372   5.417  14.623  0.3999 -2.6681 -2.0815
17783TIP3    H274765   4.221   5.421  14.630  0.4829 -0.1180  0.2563
17784TIP3   OH274766   0.359   0.816   0.287  0.0608  0.7544 -0.4387
17784TIP3    H174767   0.432   0.781   0.338  0.2888  2.8094  0.7459
17784TIP3    H274768   0.400   0.852   0.208  0.2124  1.1135 -0.1963
17785TIP3   OH274769   1.840   2.806   4.400  0.1623  0.0130  0.0546
17785TIP3    H174770   1.872   2.865   4.332 -0.5442 -0.8188 -1.0438
17785TIP3    H274771   1.778   2.748   4.354 -0.4426 -0.4816  1.4360
17786TIP3   OH274772   1.047   1.506  15.569  0.3985 -0.6145  0.1746
17786TIP3    H174773   0.953   1.511  15.551  0.3214  1.2527  0.8530
17786TIP3    H274774   1.054   1.498  15.664  0.9399 -1.3913  0.0861
17787TIP3   OH274775   4.704   2.117  11.570  0.2254  0.0266 -0.0452
17787TIP3    H174776   4.639   2.064  11.525 -0.9795 -1.2521  2.9262
17787TIP3    H274777   4.659   2.198  11.592 -0.7033 -1.0723  2.4893
17788TIP3   OH274778   3.051   5.456  16.829  1.0701 -0.3628  0.2933
17788TIP3    H174779   3.032   5.368  16.863  1.1060 -0.0051  1.2700
17788TIP3    H274780   2.992   5.466  16.754 -2.1388  0.3799  2.6656
17789TIP3   OH274781   0.607   5.872   5.024  0.3424  0.4077 -0.1660
17789TIP3    H174782   0.525   5.901   4.983  0.5587  0.0428 -0.8663
17789TIP3    H274783   0.582   5.794   5.074  0.4702 -0.3753 -1.2988
17790TIP3   OH274784   2.010   0.328   3.150  0.6791  0.4790  0.4435
17790TIP3    H174785   2.072   0.332   3.077  0.6197 -0.8755  0.2880
17790TIP3    H274786   2.064   0.319   3.228  0.7068 -0.4882  0.3271
17791TIP3   OH274787   0.338   5.373   3.366 -0.5797  0.3954  0.4449
17791TIP3    H174788   0.381   5.304   3.417 -1.2576  0.6193  1.3347
17791TIP3    H274789   0.375   5.454   3.400 -2.1548  0.6295  1.6916
17792TIP3   OH274790   5.153   1.761  14.485  0.3035 -0.5597  0.3336
17792TIP3    H174791   5.191   1.713  14.559  2.0705  0.1698 -0.0643
17792TIP3    H274792   5.159   1.853  14.509  3.4762 -0.0579 -1.7295
17793TIP3   OH274793   1.695   1.060  17.132  0.1534  0.3496 -0.1050
17793TIP3    H174794   1.699   1.141  17.184  1.0785 -0.0608  0.4932
17793TIP3    H274795   1.774   1.063  17.078  1.7449 -1.4284  1.9234
17794TIP3   OH274796   2.238   0.833  13.832  0.1354 -0.5391 -0.0829
17794TIP3    H174797   2.228   0.908  13.890  2.4411 -2.0349  2.4542
17794TIP3    H274798   2.165   0.840  13.771 -0.4709  3.0115  0.8414
17795TIP3   OH274799   2.577   1.884  16.029  0.0942  0.6200 -0.2655
17795TIP3    H174800   2.605   1.794  16.014 -1.2052  0.2781 -0.7907
17795TIP3    H274801   2.535   1.910  15.947  1.3553  2.0908 -0.4984
17796TIP3   OH274802   0.809   6.292  16.883 -0.5685 -0.6965 -0.1658
17796TIP3    H174803   0.729   6.334  16.854 -2.3916 -2.1363  2.4110
17796TIP3    H274804   0.852   6.356  16.939  0.3862  0.2095 -1.8279
17797TIP3   OH274805   0.587   4.737   1.077  0.0431  0.6323  0.0251
17797TIP3    H174806   0.580   4.728   1.172  2.0208 -0.2548  0.1313
17797TIP3    H274807   0.521   4.676   1.043 -0.2980  0.5478  0.8090
17798TIP3   OH274808   0.076   0.937  12.482 -0.1251 -0.6096 -0.1630
17798TIP3    H174809   0.112   0.988  12.555 -0.6547 -0.7505  0.2036
17798TIP3    H274810  -0.019   0.951  12.488 -0.2207 -1.1456 -0.4325
17799TIP3   OH274811   5.750   5.575  12.471 -0.0681 -0.2927 -0.3674
17799TIP3    H174812   5.668   5.529  12.455 -0.7420  0.4144  0.9098
17799TIP3    H274813   5.811   5.537  12.408 -0.6244 -2.7905  0.4654
17800TIP3   OH274814   6.319   3.761   3.945  0.5126 -0.4517  0.8089
17800TIP3    H174815   6.315   3.804   4.030 -1.4276 -1.6617  1.4064
17800TIP3    H274816   6.410   3.736   3.934  1.8515  3.8483  0.3006
17801TIP3   OH274817   6.252   1.141   2.453  0.2460  0.0381 -0.1008
17801TIP3    H174818   6.332   1.183   2.420 -0.1844  0.1172 -1.0496
17801TIP3    H274819   6.257   1.052   2.420  1.1089 -0.6898  1.8328
17802TIP3   OH274820   3.969   5.767   1.579 -0.1332 -0.5230 -0.0112
17802TIP3    H174821   4.000   5.792   1.666  0.7132 -1.3609 -0.0435
17802TIP3    H274822   3.914   5.690   1.595  1.3499 -1.6929 -0.3371
17803TIP3   OH274823   2.102   1.051  11.931 -0.2108 -0.1307  0.3603
17803TIP3    H174824   2.035   1.030  11.866 -0.6134  0.4041  0.5940
17803TIP3    H274825   2.059   1.112  11.991  0.9239  1.4767 -0.3759
17804TIP3   OH274826   1.643   2.560  13.033  0.6682 -0.1840 -0.1475
17804TIP3    H174827   1.560   2.512  13.043  0.1507  0.5513 -0.8677
17804TIP3    H274828   1.704   2.512  13.089 -0.6658  0.3074  1.8346
17805TIP3   OH274829   6.217   1.391  16.229  0.1030 -0.1307  0.5607
17805TIP3    H174830   6.150   1.325  16.216 -0.2997  0.0626  1.5985
17805TIP3    H274831   6.296   1.353  16.190 -0.0915 -1.2763  1.2472
17806TIP3   OH274832   1.325   4.404  11.948  0.5229 -0.3972 -0.3280
17806TIP3    H174833   1.317   4.497  11.966  0.7169 -0.6119  0.9712
17806TIP3    H274834   1.237   4.369  11.959  0.7464 -0.6296  0.9601
17807TIP3   OH274835   4.946   3.962  16.101  0.4630  0.2051 -0.3746
17807TIP3    H174836   5.009   4.023  16.061 -0.7009  1.8767  0.2530
17807TIP3    H274837   4.927   4.000  16.187 -1.8366  0.0732 -0.7726
17808TIP3   OH274838   0.752   0.812   1.538 -0.2421  0.3078  0.2258
17808TIP3    H174839   0.731   0.744   1.603 -0.6920  1.2955  1.1403
17808TIP3    H274840   0.736   0.894   1.583  0.6103  1.0443 -0.7657
17809TIP3   OH274841   1.989   5.744  15.515 -0.0749  0.4932 -0.1488
17809TIP3    H174842   2.016   5.774  15.429  2.8051 -1.5609 -0.1014
17809TIP3    H274843   1.928   5.672  15.497  0.8936 -0.2513 -0.5252
17810TIP3   OH274844   3.259   5.731  16.829  0.1942  0.1733  0.0633
17810TIP3    H174845   3.203   5.789  16.778 -0.5133 -0.7123 -0.1977
17810TIP3    H274846   3.222   5.734  16.917  1.5098  1.8225  0.6071
17811TIP3   OH274847   5.711   5.131   3.832 -0.8269  0.2657  0.1223
17811TIP3    H174848   5.651   5.095   3.767 -1.2025  0.7170  0.2100
17811TIP3    H274849   5.654   5.179   3.892 -0.3835  0.6179  0.2626
17812TIP3   OH274850   6.094   3.614  11.537 -0.2700 -0.0550  0.0767
17812TIP3    H174851   6.140   3.674  11.595 -0.7950 -1.3744  1.9511
17812TIP3    H274852   6.017   3.664  11.508  0.0547  0.6686  0.4334
17813TIP3   OH274853   6.446   2.707  16.796 -0.3738 -0.1147  0.0325
17813TIP3    H174854   6.454   2.802  16.797 -0.0460 -0.0249  3.9256
17813TIP3    H274855   6.362   2.690  16.753 -0.4503  1.8830 -0.7253
17814TIP3   OH274856   6.162   2.778  17.107  0.0748  0.2141  0.6165
17814TIP3    H174857   6.227   2.751  17.172  0.3174  1.6252  1.0056
17814TIP3    H274858   6.080   2.738  17.136  0.1786  0.8405  1.8279
17815TIP3   OH274859   3.667   6.512  12.174  0.1277  0.4075 -0.5089
17815TIP3    H174860   3.632   6.531  12.087  0.2857  1.1808 -0.4038
17815TIP3    H274861   3.761   6.498  12.160  0.0421 -0.1577 -0.5588
17816TIP3   OH274862   6.303   2.889  13.856 -0.2401  0.0025  0.1242
17816TIP3    H174863   6.281   2.797  13.868  0.6310 -0.1020  1.0346
17816TIP3    H274864   6.228   2.937  13.892 -1.4154 -0.3173 -1.7674
17817TIP3   OH274865   1.635   5.185   4.336 -0.6807  0.2606  0.0866
17817TIP3    H174866   1.679   5.125   4.275 -1.7071 -1.5396  1.0443
17817TIP3    H274867   1.696   5.258   4.345 -0.6485  0.8494 -3.3956
17818TIP3   OH274868   3.276   6.564   6.114  0.1084  0.5229  0.9376
17818TIP3    H174869   3.246   6.554   6.204 -1.7230 -0.1351  0.2892
17818TIP3    H274870   3.215   6.512   6.062  2.3312 -0.8208 -0.4990
17819TIP3   OH274871   5.973   3.623   5.190  0.0377  0.2049  0.1445
17819TIP3    H174872   5.888   3.599   5.228 -0.6776 -0.3763 -1.7349
17819TIP3    H274873   5.953   3.695   5.130  0.6723 -0.6428 -1.1233
17820TIP3   OH274874   1.311   0.544  14.925 -0.6764 -0.0649 -0.4114
17820TIP3    H174875   1.223   0.548  14.962 -0.8669  0.6881 -0.9203
17820TIP3    H274876   1.368   0.569  14.998 -1.0988  2.0993 -0.7481
17821TIP3   OH274877   0.436   0.888  13.954 -0.1744  0.2256 -0.1624
17821TIP3    H174878   0.470   0.976  13.967 -1.2558  0.6966 -0.3958
17821TIP3    H274879   0.485   0.854  13.879 -0.5050  1.0510 -0.7660
17822TIP3   OH274880   0.911   0.289   1.904 -0.9921  0.1867  0.0198
17822TIP3    H174881   0.834   0.330   1.944 -1.1481  1.1671 -1.2324
17822TIP3    H274882   0.954   0.360   1.857 -1.4432 -1.1186 -2.5345
17823TIP3   OH274883   0.237   1.459  15.674  0.0635 -0.2427 -0.3900
17823TIP3    H174884   0.314   1.515  15.679 -1.8760  2.4897  1.5163
17823TIP3    H274885   0.195   1.484  15.592  0.3894 -0.6759 -0.6994
17824TIP3   OH274886   6.275   5.997   1.152  0.2197  0.0594  0.5951
17824TIP3    H174887   6.308   5.908   1.168  0.0226 -0.0334  0.4775
17824TIP3    H274888   6.268   6.035   1.240 -0.8712 -0.4554  0.7415
17825TIP3   OH274889   5.881   1.892  10.470  0.0277 -0.5308 -0.4012
17825TIP3    H174890   5.871   1.813  10.417 -0.9484 -0.0094 -1.0266
17825TIP3    H274891   5.944   1.868  10.538  1.6849 -1.0806 -2.0636
17826TIP3   OH274892   5.513   0.627   5.767 -0.2261 -0.0765 -0.2250
17826TIP3    H174893   5.452   0.697   5.789 -0.2274 -0.2897  0.4719
17826TIP3    H274894   5.457   0.551   5.749 -0.2860  0.3366 -1.9962
17827TIP3   OH274895   1.579   1.905   5.039  1.0491  0.6447  0.0072
17827TIP3    H174896   1.618   1.931   5.122 -0.2822 -0.0127  0.8826
17827TIP3    H274897   1.487   1.933   5.047 -0.0658 -2.6383  0.3277
17828TIP3   OH274898   5.840   2.935  15.377 -0.1931 -0.2812  0.2741
17828TIP3    H174899   5.870   2.918  15.287 -0.4550  1.0224 -0.0815
17828TIP3    H274900   5.782   3.011  15.368 -0.8517 -0.6375  1.4405
17829TIP3   OH274901   6.529   5.398  16.218 -0.3941 -0.7583  0.2386
17829TIP3    H174902   6.544   5.465  16.285 -2.0521 -0.7952  0.6881
17829TIP3    H274903   6.577   5.430  16.141 -1.4633  1.1961  0.3090
17830TIP3   OH274904   3.022   4.912  17.116  0.0482  0.4327 -0.6351
17830TIP3    H174905   2.929   4.934  17.114 -1.5117 -4.4947  0.9021
17830TIP3    H274906   3.060   4.972  17.181 -1.8452  2.8723 -1.6425
17831TIP3   OH274907   1.719   2.064  15.936 -0.1397 -0.0912  0.2510
17831TIP3    H174908   1.649   2.129  15.951 -0.7525 -0.7900  0.4633
17831TIP3    H274909   1.711   2.004  16.010  0.1665 -0.6411 -0.1625
17832TIP3   OH274910   3.028   1.292  14.308  0.6169 -0.2540 -0.3801
17832TIP3    H174911   3.075   1.299  14.225 -1.1419  1.4140 -1.3169
17832TIP3    H274912   2.937   1.314  14.286  0.5980  3.4097  2.4127
17833TIP3   OH274913   1.994   5.774  11.594 -0.1589 -0.6118 -0.0269
17833TIP3    H174914   2.073   5.810  11.554 -0.9724 -0.3458 -1.4667
17833TIP3    H274915   1.966   5.705  11.533  0.2063 -2.2679  1.6155
17834TIP3   OH274916   1.543   2.233  14.457 -0.0626 -0.2975 -0.3050
17834TIP3    H174917   1.612   2.297  14.473  1.4236 -1.9344  0.2148
17834TIP3    H274918   1.550   2.172  14.530 -0.7907 -1.5620 -1.2475
17835TIP3   OH274919   5.886   3.376  10.323  0.2184 -0.2739  0.9564
17835TIP3    H174920   5.821   3.446  10.319  3.2476  2.8892  1.9723
17835TIP3    H274921   5.967   3.417  10.295  1.8655 -4.0476 -0.4823
17836TIP3   OH274922   2.946   0.683  10.425  0.0528 -0.1886 -0.4542
17836TIP3    H174923   2.905   0.609  10.471  0.2864 -0.7774 -1.1765
17836TIP3    H274924   2.872   0.739  10.400 -0.1003 -0.0023  0.3765
17837TIP3   OH274925   5.465   1.499   3.580 -0.2701  0.5453  0.5380
17837TIP3    H174926   5.537   1.436   3.576 -1.4666 -0.9987  1.7992
17837TIP3    H274927   5.476   1.543   3.664 -0.4874  0.6825  0.4977
17838TIP3   OH274928   3.564   1.697   5.006 -0.0287 -0.0184 -0.6233
17838TIP3    H174929   3.541   1.605   4.993 -1.0309 -0.0226  0.8649
17838TIP3    H274930   3.518   1.722   5.087 -0.5327  2.0485 -1.4681
17839TIP3   OH274931   0.244   0.341   1.543  1.0342  0.5240  0.3044
17839TIP3    H174932   0.256   0.422   1.593  1.3404 -0.0820  1.2447
17839TIP3    H274933   0.262   0.366   1.453  0.7931  1.5817  0.5296
17840TIP3   OH274934   4.943   5.583  11.322  0.5760 -0.0969  0.0051
17840TIP3    H174935   4.948   5.490  11.302 -1.5705 -0.2802  0.0505
17840TIP3    H274936   5.024   5.620  11.287  0.7470 -1.7255 -1.4439
17841TIP3   OH274937   3.507   4.783   1.897  0.0173 -0.0128  0.6749
17841TIP3    H174938   3.595   4.748   1.912 -0.6976 -1.6719  1.1870
17841TIP3    H274939   3.516   4.837   1.818  1.2653 -1.0556  0.0706
17842TIP3   OH274940   0.619   1.186   2.931  0.2525 -0.1395  0.1924
17842TIP3    H174941   0.558   1.252   2.965  0.4196  0.6610 -1.0295
17842TIP3    H274942   0.603   1.109   2.986 -0.4958  0.6640  1.1388
17843TIP3   OH274943   0.612   6.531  14.421  0.3465 -0.5888 -0.0236
17843TIP3    H174944   0.589   6.480  14.343 -2.5854 -0.6477  0.7599
17843TIP3    H274945   0.572   6.484  14.494  0.7978  0.8375  1.2078
17844TIP3   OH274946   6.160   6.310  11.879  0.3517 -0.1591 -0.4985
17844TIP3    H174947   6.137   6.331  11.788 -1.1303 -0.9190 -0.3387
17844TIP3    H274948   6.098   6.241  11.903  1.6675 -0.9846  0.6364
17845TIP3   OH274949   3.324   2.324  16.727 -0.4796  0.2081  0.1750
17845TIP3    H174950   3.399   2.372  16.762 -0.0338 -1.3680  1.5081
17845TIP3    H274951   3.253   2.388  16.726  0.7134  1.5733 -0.5580
17846TIP3   OH274952   0.441   2.189   2.126  0.4390  0.0725  0.4367
17846TIP3    H174953   0.363   2.138   2.146 -0.2328 -0.6145 -3.1976
17846TIP3    H274954   0.513   2.126   2.133  0.4546  0.2377  1.9726
17847TIP3   OH274955   1.846   4.382  14.729  0.5441  0.3437  0.3603
17847TIP3    H174956   1.912   4.334  14.779  0.2299  0.3327  0.7726
17847TIP3    H274957   1.814   4.449  14.790  0.7369  0.8578 -0.0945
17848TIP3   OH274958   0.321   3.432  12.265 -0.6097  0.6162 -0.0148
17848TIP3    H174959   0.239   3.414  12.310 -0.6031 -0.0534 -0.2630
17848TIP3    H274960   0.321   3.373  12.190  0.5205 -0.0552  0.4900
17849TIP3   OH274961   2.018   2.747   4.030 -0.0596 -0.8227 -0.0985
17849TIP3    H174962   2.080   2.679   4.058  0.6761 -0.1713 -0.1048
17849TIP3    H274963   2.031   2.818   4.092  0.5774  0.0847 -1.2235
17850TIP3   OH274964   5.317   1.018  16.990  0.2245  0.0327  0.2792
17850TIP3    H174965   5.301   1.055  16.904 -0.5752  0.3251  0.5469
17850TIP3    H274966   5.315   0.923  16.976  0.2541  0.0783 -0.0468
17851TIP3   OH274967   4.305   1.649  12.242  0.1286  0.3168 -0.0601
17851TIP3    H174968   4.266   1.711  12.181 -0.1565 -0.9052 -1.1739
17851TIP3    H274969   4.231   1.596  12.273  0.5119 -0.1739  0.0279
17852TIP3   OH274970   4.073   3.574  14.779 -0.9137 -0.1109 -0.1464
17852TIP3    H174971   4.102   3.527  14.702  0.0429  0.5574 -0.2217
17852TIP3    H274972   4.027   3.509  14.832  1.1791 -1.3926  0.2091
17853TIP3   OH274973   5.875   2.314  11.356 -0.0346 -0.0286  0.1005
17853TIP3    H174974   5.780   2.328  11.358 -0.3893 -2.0236 -0.6189
17853TIP3    H274975   5.890   2.265  11.275  1.2809 -1.7635  1.3278
17854TIP3   OH274976   2.601   1.916   1.232  0.3276 -0.6036  0.2858
17854TIP3    H174977   2.641   1.964   1.160 -1.7920  0.5176 -0.2214
17854TIP3    H274978   2.546   1.851   1.190  1.0558 -1.6798  0.9587
17855TIP3   OH274979   0.765   0.672   5.758  0.1864  0.3134 -0.5038
17855TIP3    H174980   0.828   0.737   5.790 -1.0405  1.9744 -1.3773
17855TIP3    H274981   0.767   0.603   5.825  1.4427  1.2604  0.4970
17856TIP3   OH274982   3.298   3.530   4.570  0.3436 -0.1829  0.2493
17856TIP3    H174983   3.219   3.567   4.533  0.7226 -0.6551 -1.0743
17856TIP3    H274984   3.357   3.518   4.496  1.1567 -1.0932  1.0029
17857TIP3   OH274985   1.325   5.808   4.597 -0.9238 -0.6175  0.4992
17857TIP3    H174986   1.339   5.733   4.539  1.1789  0.6524 -0.7463
17857TIP3    H274987   1.413   5.838   4.618 -1.6436  2.7554 -0.7272
17858TIP3   OH274988   4.951   0.172   0.767 -0.5844 -0.0126 -0.4205
17858TIP3    H174989   4.999   0.091   0.778 -2.9520 -1.3025  1.4241
17858TIP3    H274990   4.906   0.185   0.850 -1.9203  2.0825 -1.3777
17859TIP3   OH274991   2.753   6.102  13.283  0.0394  0.2510  0.4169
17859TIP3    H174992   2.685   6.132  13.222  0.2072  0.2631  0.2323
17859TIP3    H274993   2.833   6.104  13.230 -0.3598 -3.3416 -0.5393
17860TIP3   OH274994   1.439   6.315   5.732  0.2856  0.0037  0.0580
17860TIP3    H174995   1.495   6.243   5.760  2.1403  1.3532 -0.0173
17860TIP3    H274996   1.366   6.315   5.795  1.7272 -0.1817  1.8036
17861TIP3   OH274997   6.455   2.120   2.588  1.4480 -0.5059 -0.0693
17861TIP3    H174998   6.406   2.038   2.597  3.9269 -2.0236  0.2520
17861TIP3    H274999   6.498   2.113   2.503  1.9436  0.3400  0.1013
17862TIP3   OH275000   5.227   2.509   3.210 -0.1296  0.1380  0.3806
17862TIP3    H175001   5.175   2.590   3.204 -0.1970 -0.0052 -1.8745
17862TIP3    H275002   5.307   2.536   3.256 -0.2368  1.4612 -0.1479
17863TIP3   OH275003   4.826   4.118  15.444 -0.2929 -0.2695 -0.2565
17863TIP3    H175004   4.828   4.045  15.505 -2.2225 -0.3433 -0.2090
17863TIP3    H275005   4.836   4.078  15.358 -1.0889 -0.5923 -0.2120
17864TIP3   OH275006   2.469   3.715   4.413 -0.9585  0.6508  0.8036
17864TIP3    H175007   2.524   3.688   4.487 -1.4590  0.5192  1.1331
17864TIP3    H275008   2.493   3.806   4.398  1.0504 -0.0362 -0.5821
17865TIP3   OH275009   1.713   2.275  11.608 -0.0453  0.4194 -0.1907
17865TIP3    H175010   1.628   2.233  11.601 -0.3141  1.1892 -3.0263
17865TIP3    H275011   1.704   2.338  11.680 -1.2074 -0.8442  0.8037
17866TIP3   OH275012   2.926   4.365  13.159 -0.4073 -0.0601 -0.6050
17866TIP3    H175013   3.016   4.396  13.163 -0.8493  1.1726  1.8318
17866TIP3    H275014   2.884   4.422  13.094 -0.2657  1.9615  0.9756
17867TIP3   OH275015   1.088   3.294   1.453 -0.5115  0.3816  0.0699
17867TIP3    H175016   1.082   3.292   1.549 -1.6498 -1.1337  0.0029
17867TIP3    H275017   1.058   3.381   1.429  0.1078  0.8973  1.1064
17868TIP3   OH275018   5.259   2.466   1.452 -0.0442  0.4356 -0.0805
17868TIP3    H175019   5.256   2.389   1.508 -0.4117  0.4289 -0.1099
17868TIP3    H275020   5.315   2.528   1.499 -0.9297  0.7005  0.6416
17869TIP3   OH275021   0.232   0.548   5.031 -0.5709 -0.2321  0.2817
17869TIP3    H175022   0.148   0.505   5.044 -1.0808  0.6661 -0.0015
17869TIP3    H275023   0.286   0.482   4.986 -1.5576 -0.3496 -0.7622
17870TIP3   OH275024   4.179   2.166   1.264  0.2171 -0.2254 -0.0323
17870TIP3    H175025   4.184   2.229   1.192  1.3567 -0.0025  0.2195
17870TIP3    H275026   4.156   2.219   1.340  1.0267 -0.1294  0.1507
17871TIP3   OH275027   6.060   3.694  16.904 -0.1625  0.1804 -0.0365
17871TIP3    H175028   6.153   3.708  16.889  0.1303 -0.7075  0.8576
17871TIP3    H275029   6.017   3.736  16.829  0.9776  0.0117 -0.8145
17872TIP3   OH275030   2.693   1.087  14.423  0.2114 -0.5405 -0.4419
17872TIP3    H175031   2.748   1.112  14.497  1.6639 -0.4338 -1.5050
17872TIP3    H275032   2.620   1.148  14.425 -0.8655 -1.7401  2.0133
17873TIP3   OH275033   2.433   5.451   3.118  0.2025  0.1319  0.4753
17873TIP3    H175034   2.469   5.440   3.030 -0.1996  1.1842  0.1697
17873TIP3    H275035   2.357   5.507   3.107 -0.4724 -0.5604  1.3696
17874TIP3   OH275036   0.537   3.489   4.282  0.1136 -0.2367 -0.9698
17874TIP3    H175037   0.448   3.454   4.280 -0.9109  1.9657  1.0898
17874TIP3    H275038   0.552   3.522   4.194 -1.8330  0.8718 -0.9438
17875TIP3   OH275039   3.415   5.319   2.203  0.4958  0.1755  0.5976
17875TIP3    H175040   3.436   5.373   2.127  0.1660  0.0488  0.4150
17875TIP3    H275041   3.381   5.238   2.165 -1.0354  0.6558  0.8869
17876TIP3   OH275042   6.310   0.155   4.977  0.2456  1.2886  0.2911
17876TIP3    H175043   6.400   0.187   4.972 -0.3531  3.2076  0.9697
17876TIP3    H275044   6.307   0.082   4.914  2.1417  1.4557 -0.0543
17877TIP3   OH275045   1.568   0.155  14.000 -0.1556  0.4322  0.1736
17877TIP3    H175046   1.528   0.137  14.085  0.0593  1.3643  0.4931
17877TIP3    H275047   1.508   0.217  13.958  0.0847  0.5076 -0.0602
17878TIP3   OH275048   2.910   1.489   5.500  0.4785  0.2586 -0.0198
17878TIP3    H175049   2.925   1.459   5.589 -0.0859  0.7871  0.2564
17878TIP3    H275050   2.823   1.530   5.502  0.5416  0.4459 -0.7606
17879TIP3   OH275051   3.630   1.353   4.428  0.2290 -0.0042  0.3217
17879TIP3    H175052   3.691   1.427   4.436 -0.3205  0.7011 -1.4583
17879TIP3    H275053   3.544   1.394   4.418 -0.2214 -0.9257  0.3127
17880TIP3   OH275054   1.266   0.669  11.187  0.2788 -0.4255 -0.1735
17880TIP3    H175055   1.191   0.621  11.224 -0.1442  0.8755  0.7473
17880TIP3    H275056   1.227   0.725  11.120  0.1179  1.5010  1.4592
17881TIP3   OH275057   4.152   2.118   6.058  0.1697  0.2589 -1.1169
17881TIP3    H175058   4.118   2.196   6.102 -0.3729  0.1229 -1.2825
17881TIP3    H275059   4.116   2.045   6.109 -0.7772  0.0883 -1.9857
17882TIP3   OH275060   1.370   2.492  14.482  0.3442  0.0967 -0.5738
17882TIP3    H175061   1.461   2.521  14.471  0.8916 -0.7999  1.1531
17882TIP3    H275062   1.373   2.398  14.465 -0.0843 -0.0797  0.2415
17883TIP3   OH275063   6.698   5.937  15.735 -0.0968 -0.1054  0.2811
17883TIP3    H175064   6.720   5.977  15.651 -1.5987  1.7510  0.6823
17883TIP3    H275065   6.639   5.865  15.713 -0.0378  0.0195 -0.3052
17884TIP3   OH275066   5.053   0.908   2.010 -0.0900  0.5297 -0.6281
17884TIP3    H175067   5.134   0.878   1.970 -1.2193 -1.9919 -1.2536
17884TIP3    H275068   4.997   0.933   1.937 -0.6791 -0.0447 -0.3925
17885TIP3   OH275069   6.405   6.538   4.169  0.0433 -0.4901 -0.0663
17885TIP3    H175070   6.420   6.603   4.237 -0.0451 -0.5125 -0.0262
17885TIP3    H275071   6.376   6.588   4.093  0.8842 -0.3856 -0.3236
17886TIP3   OH275072   6.361   0.664   4.639 -0.3971 -0.3123 -0.0573
17886TIP3    H175073   6.312   0.586   4.667 -0.9655 -0.4283 -1.3109
17886TIP3    H275074   6.338   0.675   4.547  0.7787  0.5282 -0.2709
17887TIP3   OH275075   5.890   1.566  12.237 -0.0778 -0.3741  0.2952
17887TIP3    H175076   5.985   1.578  12.236  0.1583 -1.9728 -1.1768
17887TIP3    H275077   5.855   1.645  12.197  0.7343 -0.3806 -0.4504
17888TIP3   OH275078   3.812   1.677  16.254  0.0843  0.4324  0.1051
17888TIP3    H175079   3.846   1.595  16.290 -0.7304 -0.0438 -0.1658
17888TIP3    H275080   3.881   1.708  16.195  1.2117  0.9555  1.6227
17889TIP3   OH275081   3.933   2.411  14.844  0.7433  0.6731 -0.1696
17889TIP3    H175082   3.900   2.439  14.930 -0.7309  0.9602 -0.7896
17889TIP3    H275083   3.935   2.315  14.849 -0.1780  0.6476 -0.0832
17890TIP3   OH275084   0.292   3.076  11.188 -0.1476  0.2350  0.3709
17890TIP3    H175085   0.383   3.085  11.162  0.2593  1.1064  1.9217
17890TIP3    H275086   0.266   3.165  11.213 -0.8353 -0.3092  1.6826
17891TIP3   OH275087   6.118   6.079  16.241 -0.1213  0.6885 -0.7984
17891TIP3    H175088   6.148   6.057  16.153 -0.6838 -2.9022 -0.2426
17891TIP3    H275089   6.191   6.130  16.278  1.6916 -0.7271 -2.1954
17892TIP3   OH275090   0.382   3.508  15.163  0.6887 -0.0541  1.0169
17892TIP3    H175091   0.332   3.524  15.083  1.4245  1.4035  0.8299
17892TIP3    H275092   0.406   3.415  15.157  0.2349 -0.1166 -0.1571
17893TIP3   OH275093   6.648   3.969   2.943  0.7512 -0.0763  0.3485
17893TIP3    H175094   6.707   3.894   2.953  0.9425 -0.1973 -1.3870
17893TIP3    H275095   6.564   3.937   2.976  1.1776 -0.5649  0.9875
17894TIP3   OH275096   0.526   3.377  12.424  0.6006  0.2608 -0.1406
17894TIP3    H175097   0.458   3.404  12.363  0.9452  0.9510 -0.2305
17894TIP3    H275098   0.507   3.427  12.504  0.0615 -0.7476  0.3794
17895TIP3   OH275099   0.258   0.935   2.652  0.4484 -0.2472 -0.0525
17895TIP3    H175100   0.334   0.944   2.595  0.4432 -1.8472 -0.3635
17895TIP3    H275101   0.273   0.999   2.722  1.8058 -0.1567 -0.3902
17896TIP3   OH275102   3.383   5.897   2.035  0.8419 -0.8369 -0.6645
17896TIP3    H175103   3.454   5.851   1.991  1.0275 -2.1248  0.9004
17896TIP3    H275104   3.403   5.891   2.128  1.2478  3.0861 -0.3123
17897TIP3   OH275105   1.207   4.843  11.737 -0.6105  0.5133  0.0805
17897TIP3    H175106   1.219   4.904  11.809 -0.9295  2.0687 -1.1116
17897TIP3    H275107   1.124   4.799  11.756 -1.0168  1.3777  0.3455
17898TIP3   OH275108   4.782   2.853   0.965  0.0956  0.4360  0.4152
17898TIP3    H175109   4.871   2.888   0.953 -0.4083  1.0724 -2.1477
17898TIP3    H275110   4.753   2.889   1.049  1.9765  0.8229  0.9492
17899TIP3   OH275111   4.506   5.829   0.109 -0.3190 -0.1913 -0.4076
17899TIP3    H175112   4.436   5.786   0.060 -0.0134  0.6029 -1.5882
17899TIP3    H275113   4.569   5.760   0.128  0.0819 -0.3283 -2.1149
17900TIP3   OH275114   6.551   5.176   2.373 -0.1930 -0.4341 -0.1608
17900TIP3    H175115   6.573   5.095   2.326  0.2285 -0.8217  0.6895
17900TIP3    H275116   6.513   5.233   2.306 -1.2398 -1.6218 -0.6100
17901TIP3   OH275117   6.337   2.879  12.441  0.0312  0.1879 -0.2356
17901TIP3    H175118   6.321   2.928  12.521  1.1367  0.1247  0.0266
17901TIP3    H275119   6.425   2.904  12.413  0.0337 -0.5200 -0.9078
17902TIP3   OH275120   3.335   1.456  16.642 -0.2560  0.2717  0.2334
17902TIP3    H175121   3.357   1.366  16.620  2.3855  1.1202 -0.9457
17902TIP3    H275122   3.269   1.448  16.711  0.2427 -2.5300  0.5085
17903TIP3   OH275123   2.079   1.540   1.208 -0.1174 -0.3699 -0.5713
17903TIP3    H175124   2.047   1.450   1.207 -2.1809  0.2857 -2.2853
17903TIP3    H275125   2.035   1.580   1.283  0.9913 -0.8147  0.3391
17904TIP3   OH275126   0.566   5.781   1.038 -0.4026 -0.3800 -0.1014
17904TIP3    H175127   0.551   5.734   0.956 -2.3079  0.4601 -0.2724
17904TIP3    H275128   0.594   5.868   1.011 -1.1612 -0.0600  0.1157
17905TIP3   OH275129   3.678   4.595  11.362  0.3036 -0.7714  0.8727
17905TIP3    H175130   3.701   4.514  11.317  0.2580  0.6186 -1.8513
17905TIP3    H275131   3.750   4.655  11.342 -1.5513  1.0707 -0.6983
17906TIP3   OH275132   4.444   1.653  15.759 -0.8140 -0.2436  0.4536
17906TIP3    H175133   4.397   1.736  15.759  0.4207  0.4997 -0.6983
17906TIP3    H275134   4.520   1.669  15.703 -0.4382 -2.0893  0.3783
17907TIP3   OH275135   2.663   5.438  14.619  0.0693  0.5000 -0.3562
17907TIP3    H175136   2.702   5.402  14.539  0.2871  0.1661 -0.1026
17907TIP3    H275137   2.728   5.501  14.651  0.3069  0.1011 -0.0504
17908TIP3   OH275138   0.472   1.778   4.815 -0.1932  0.3309 -0.1468
17908TIP3    H175139   0.539   1.780   4.884  0.9602  0.9052 -1.2304
17908TIP3    H275140   0.491   1.699   4.765 -0.1728  0.6252 -0.6062
17909TIP3   OH275141   3.215   5.126  13.136 -0.1353 -0.2633 -0.8345
17909TIP3    H175142   3.278   5.165  13.197  0.9571 -0.6155 -1.6990
17909TIP3    H275143   3.130   5.154  13.169  0.4552  0.1017  0.4641
17910TIP3   OH275144   2.247   1.302  15.504 -0.7922  0.0398  0.2388
17910TIP3    H175145   2.166   1.303  15.554 -0.2280  0.4113  1.1779
17910TIP3    H275146   2.308   1.251  15.557 -0.5739 -0.7637 -0.7419
17911TIP3   OH275147   2.351   6.191   5.374 -0.0079 -0.7234  0.2805
17911TIP3    H175148   2.352   6.164   5.282  1.3449  3.0736 -1.0171
17911TIP3    H275149   2.439   6.169   5.407  0.2189 -0.2425  0.0065
17912TIP3   OH275150   2.452   0.107  11.351  0.0527  0.4790  0.0331
17912TIP3    H175151   2.526   0.128  11.407  0.0969  0.5457 -0.0497
17912TIP3    H275152   2.479   0.029  11.303 -0.4816 -0.3497  1.0408
17913TIP3   OH275153   4.552   2.232   1.710 -0.1801 -0.3288 -0.1575
17913TIP3    H175154   4.485   2.172   1.744 -0.1109  0.3418  1.2613
17913TIP3    H275155   4.620   2.174   1.675 -0.5536 -1.0715  0.3019
17914TIP3   OH275156   2.334   2.369   0.641  0.3012 -0.4351  0.2447
17914TIP3    H175157   2.344   2.462   0.663  1.4279 -0.1406 -1.3663
17914TIP3    H275158   2.310   2.368   0.549  1.4582 -1.7612 -0.0803
17915TIP3   OH275159   1.536   1.786  15.614 -0.2818  0.3887 -0.2305
17915TIP3    H175160   1.594   1.808  15.687 -0.1577  2.6029 -0.9299
17915TIP3    H275161   1.573   1.833  15.540 -1.8960  0.2724 -1.1338
17916TIP3   OH275162   3.787   2.485   1.266  0.1883  0.2522  0.1315
17916TIP3    H175163   3.790   2.393   1.240 -2.7013 -0.4811  1.8753
17916TIP3    H275164   3.731   2.526   1.200  0.0342  0.3337  0.3097
17917TIP3   OH275165   6.736   1.952  15.414  0.1862  0.5055 -0.4136
17917TIP3    H175166   6.756   1.982  15.502  1.9559  0.9354 -0.9277
17917TIP3    H275167   6.682   2.023  15.376  0.9051  1.1517 -0.2535
17918TIP3   OH275168   1.783   1.134  16.503  0.3260 -0.4248 -0.4493
17918TIP3    H175169   1.833   1.064  16.543 -0.7975 -0.7264  0.4698
17918TIP3    H275170   1.772   1.106  16.412 -0.9720 -1.9671  0.1365
17919TIP3   OH275171   5.484   2.186   5.520  0.5920  0.2843 -0.3042
17919TIP3    H175172   5.413   2.141   5.567 -0.0839  0.5190 -1.0817
17919TIP3    H275173   5.540   2.116   5.489  0.1842  0.0361 -0.4914
17920TIP3   OH275174   6.330   5.308  14.895  0.5618 -0.2503 -0.2121
17920TIP3    H175175   6.272   5.364  14.843  0.2817 -1.6514 -1.4408
17920TIP3    H275176   6.418   5.338  14.873  0.3913  0.7178  0.3320
17921TIP3   OH275177   6.705   2.585   1.663 -0.0941  0.3787 -0.0893
17921TIP3    H175178   6.621   2.623   1.690 -0.9559 -1.5152 -0.0022
17921TIP3    H275179   6.682   2.519   1.598  1.3404 -0.1021 -0.1399
17922TIP3   OH275180   0.070   0.481  11.408 -0.0360  0.3444 -0.2678
17922TIP3    H175181  -0.012   0.511  11.368  0.8333  2.0653 -0.8787
17922TIP3    H275182   0.059   0.500  11.501 -0.7678 -0.5508 -0.1532
17923TIP3   OH275183   2.808   6.711  13.088 -0.0939 -0.2105  0.8421
17923TIP3    H175184   2.831   6.654  13.015 -0.7348  1.0294 -0.3740
17923TIP3    H275185   2.734   6.762  13.057 -1.3481 -0.6461  2.9058
17924TIP3   OH275186   6.144   2.250   2.601  0.0153 -0.6364 -0.3873
17924TIP3    H175187   6.200   2.192   2.549 -0.8348 -0.3850 -1.6249
17924TIP3    H275188   6.078   2.281   2.539 -2.0636 -1.6490  1.2019
17925TIP3   OH275189   4.808   4.324  11.527 -0.1386 -0.0045 -0.1667
17925TIP3    H175190   4.840   4.276  11.604 -0.3479  0.9942  0.5688
17925TIP3    H275191   4.722   4.356  11.554 -0.9297 -1.0047 -1.4189
17926TIP3   OH275192   6.775   0.826   0.586 -0.3594 -0.0610  0.0056
17926TIP3    H175193   6.697   0.857   0.541  0.7551  1.2727 -1.0784
17926TIP3    H275194   6.774   0.873   0.670 -1.1839 -0.7301  0.3732
17927TIP3   OH275195   3.791   5.888   1.409  0.3374 -0.0058  0.2659
17927TIP3    H175196   3.850   5.860   1.479 -1.0257 -0.1602  1.3998
17927TIP3    H275197   3.730   5.815   1.398 -0.7235  0.8430  0.3613
17928TIP3   OH275198   5.148   0.392   3.718 -0.1912  0.2171  0.2666
17928TIP3    H175199   5.231   0.344   3.712  0.5496  1.4873 -0.0209
17928TIP3    H275200   5.173   0.484   3.714 -1.6949  0.6203 -0.5831
17929TIP3   OH275201   2.100   5.536   1.428 -0.4977  0.1164  0.0439
17929TIP3    H175202   2.164   5.522   1.498  0.3546  0.9006 -0.5585
17929TIP3    H275203   2.130   5.615   1.383 -1.0185 -0.3710 -1.2142
17930TIP3   OH275204   6.542   2.135  15.624 -0.5360 -0.1023  0.2485
17930TIP3    H175205   6.621   2.083  15.642  0.4621  0.9315 -0.8926
17930TIP3    H275206   6.504   2.152  15.710  0.7421 -0.2468  0.8721
17931TIP3   OH275207   2.865   6.622  16.949 -0.8717 -0.2637  0.3817
17931TIP3    H175208   2.884   6.528  16.951 -3.3003 -0.8381 -0.2984
17931TIP3    H275209   2.869   6.645  16.856  1.8119  0.8771  0.6730
17932TIP3   OH275210   0.347   6.563   5.252  0.2909  0.4616 -0.3352
17932TIP3    H175211   0.298   6.627   5.305  0.7954  1.4494 -1.0401
17932TIP3    H275212   0.426   6.546   5.303  0.7870  1.4298 -0.7598
17933TIP3   OH275213   0.924   2.013   2.791  0.1425  0.3285 -0.1897
17933TIP3    H175214   0.938   1.920   2.805 -1.0375  0.0726 -0.6556
17933TIP3    H275215   0.830   2.026   2.804  0.2890  1.4487 -0.1449
17934TIP3   OH275216   3.971   1.786  15.026 -0.6004  0.1262  0.2611
17934TIP3    H175217   3.994   1.862  15.080 -2.9431  0.4881  0.8394
17934TIP3    H275218   4.031   1.717  15.055  1.5529  1.6683 -0.2296
17935TIP3   OH275219   3.999   0.864   5.881  0.2409  0.1238  0.5971
17935TIP3    H175220   4.089   0.856   5.912  0.3104 -1.2077  0.1023
17935TIP3    H275221   3.945   0.845   5.957  0.3959 -1.0026  0.4322
17936TIP3   OH275222   5.340   1.672  10.502  0.2556  0.4321  0.5071
17936TIP3    H175223   5.345   1.750  10.556  0.9976  1.1505 -0.5518
17936TIP3    H275224   5.329   1.600  10.564 -0.9390  1.4050  1.4667
17937TIP3   OH275225   4.843   4.910   0.838  0.1712 -0.3520 -0.5657
17937TIP3    H175226   4.778   4.873   0.778 -0.1735 -1.3428  0.4000
17937TIP3    H275227   4.818   5.003   0.845 -0.3022 -0.4131 -1.2663
17938TIP3   OH275228   2.499   4.170  10.558 -0.8530  0.3707 -0.0063
17938TIP3    H175229   2.545   4.170  10.474  1.7413 -2.4819  1.2392
17938TIP3    H275230   2.537   4.243  10.606 -0.8032  0.6929 -0.5201
17939TIP3   OH275231   1.867   3.443  11.784 -0.2430  0.0051 -0.1596
17939TIP3    H175232   1.899   3.360  11.750 -1.5470 -1.3895  1.8358
17939TIP3    H275233   1.924   3.462  11.859 -0.7361  0.2539  0.1614
17940TIP3   OH275234   1.673   2.436   2.552 -0.6133  0.1832  0.3450
17940TIP3    H175235   1.652   2.343   2.542  1.2283 -0.3364  1.0457
17940TIP3    H275236   1.588   2.480   2.546 -1.4657 -1.4792 -0.5010
17941TIP3   OH275237   1.155   1.716  10.860 -0.0532  0.6451  0.3378
17941TIP3    H175238   1.118   1.641  10.813 -0.7851  0.2961  1.4434
17941TIP3    H275239   1.143   1.790  10.800  0.2006 -0.0086 -0.5424
17942TIP3   OH275240   2.581   2.013   5.067 -0.4778 -0.3667 -0.0811
17942TIP3    H175241   2.504   2.026   5.012 -1.6271  0.5264  1.6613
17942TIP3    H275242   2.648   2.069   5.027 -0.7945 -0.9029 -1.4297
17943TIP3   OH275243   1.017   0.210   4.686 -0.1520  0.9759 -0.3887
17943TIP3    H175244   1.042   0.221   4.594 -1.2040 -0.7539 -0.9336
17943TIP3    H275245   1.067   0.134   4.715 -1.4200  0.1979 -0.1861
17944TIP3   OH275246   4.053   4.165   4.056 -0.0223 -0.6129  0.2350
17944TIP3    H175247   3.966   4.151   4.019 -0.0902 -2.2538  0.9703
17944TIP3    H275248   4.107   4.094   4.021  0.9533  0.1464  0.1148
17945TIP3   OH275249   0.482   6.637   3.686 -0.7140 -0.3087  0.4776
17945TIP3    H175250   0.531   6.563   3.721 -1.3653 -0.8022  0.3849
17945TIP3    H275251   0.548   6.701   3.662 -0.0087 -1.5127 -0.9585
17946TIP3   OH275252   1.956   4.199  14.400  0.3175  0.3592 -0.2121
17946TIP3    H175253   1.996   4.122  14.358 -0.4896  0.1623 -0.6448
17946TIP3    H275254   2.004   4.208  14.482  0.5253 -0.5243 -0.2212
17947TIP3   OH275255   5.588   0.381  12.319  0.7220  0.5457 -0.5419
17947TIP3    H175256   5.538   0.460  12.342 -0.6850 -0.3047 -0.5563
17947TIP3    H275257   5.650   0.411  12.253  1.0207  1.8769  0.2895
17948TIP3   OH275258   3.704   1.372  16.733  0.2222  0.3531  0.1112
17948TIP3    H175259   3.785   1.414  16.761  0.6724 -0.0012 -0.6339
17948TIP3    H275260   3.636   1.439  16.747  0.7256  0.8468  0.2154
17949TIP3   OH275261   4.846   3.669   6.683  0.1996 -0.3359 -0.1345
17949TIP3    H175262   4.804   3.605   6.626  1.9620  0.8716 -3.0372
17949TIP3    H275263   4.929   3.690   6.638  1.7100  0.7809  2.8988
17950TIP3   OH275264   6.687   3.387  14.061  0.5632  0.1204  0.0727
17950TIP3    H175265   6.745   3.322  14.102  2.5113  0.5369 -1.7973
17950TIP3    H275266   6.737   3.469  14.066 -1.0864  1.1187  0.7814
17951TIP3   OH275267   0.723   4.331   4.988 -0.0794  0.1417 -0.1385
17951TIP3    H175268   0.646   4.388   4.992 -0.9052 -0.9559  0.0487
17951TIP3    H275269   0.763   4.338   5.074 -0.5120 -0.0137  0.0751
17952TIP3   OH275270   1.800   1.141  14.896 -0.4129 -0.5192 -0.2936
17952TIP3    H175271   1.719   1.129  14.946 -0.9347 -0.0247 -1.0099
17952TIP3    H275272   1.869   1.133  14.962 -1.1189  1.1450  0.7134
17953TIP3   OH275273   5.942   2.622   3.997  0.4862  0.0277 -0.1646
17953TIP3    H175274   5.846   2.621   3.996  0.4552 -0.7442 -2.5410
17953TIP3    H275275   5.967   2.651   3.910  2.4240 -0.9358  0.0072
17954TIP3   OH275276   6.159   0.958   5.637 -0.1157 -0.4170 -0.1533
17954TIP3    H175277   6.121   0.896   5.700 -0.0075 -0.5033 -0.1719
17954TIP3    H275278   6.224   1.006   5.688 -1.8028  1.3121  0.4799
17955TIP3   OH275279   6.330   2.790  13.208 -0.8361  0.0263 -0.3692
17955TIP3    H175280   6.245   2.754  13.233 -0.9739 -1.0304 -2.1601
17955TIP3    H275281   6.393   2.720  13.225 -0.3706  0.6563  0.5641
17956TIP3   OH275282   4.804   1.837   1.623 -0.2360  0.0671  0.4701
17956TIP3    H175283   4.738   1.852   1.691 -0.6292 -0.3579  0.1894
17956TIP3    H275284   4.757   1.852   1.540 -0.5373 -2.1021  0.1779
17957TIP3   OH275285   0.607   6.127  16.068 -0.4080  0.4765  0.0125
17957TIP3    H175286   0.574   6.052  16.119 -0.0309 -0.0102 -0.4400
17957TIP3    H275287   0.605   6.200  16.129 -0.9111  0.1249  0.4316
17958TIP3   OH275288   0.289   2.581   5.589  0.4168 -0.4139  0.2201
17958TIP3    H175289   0.379   2.613   5.600  0.5523 -1.1213  1.3920
17958TIP3    H275290   0.266   2.548   5.676 -0.8235 -0.6417 -0.1893
17959TIP3   OH275291   6.043   2.051   2.813  0.2805  0.6873  0.4381
17959TIP3    H175292   6.010   2.091   2.893  1.5392 -0.3328  1.4992
17959TIP3    H275293   6.128   2.014   2.837 -0.6103 -2.2957 -0.5391
17960TIP3   OH275294   2.777   4.317  13.367  0.1420  0.4663  0.3919
17960TIP3    H175295   2.849   4.332  13.306 -0.2009 -0.7233 -0.3304
17960TIP3    H275296   2.795   4.232  13.406  0.3446  1.1957  1.9734
17961TIP3   OH275297   5.875   2.194  10.802  0.6086  0.4770  0.7958
17961TIP3    H175298   5.948   2.136  10.783  0.1053  0.1494 -0.1862
17961TIP3    H275299   5.805   2.135  10.831  0.1478  0.5888 -0.0515
17962TIP3   OH275300   4.911   5.676   4.464 -0.7467 -0.0458  0.3309
17962TIP3    H175301   5.000   5.657   4.435  0.3294  0.3041  3.0776
17962TIP3    H275302   4.870   5.591   4.475 -1.1938 -0.1905 -1.9693
17963TIP3   OH275303   5.054   1.782  12.246  0.3305 -0.7527 -0.4300
17963TIP3    H175304   5.143   1.760  12.218  0.9650  2.1848 -1.0251
17963TIP3    H275305   5.018   1.832  12.173 -1.0897 -0.1839  0.6161
17964TIP3   OH275306   6.404   4.419   2.947 -0.1138  0.0120  0.2131
17964TIP3    H175307   6.453   4.385   2.872 -0.7572  0.8318 -0.6029
17964TIP3    H275308   6.312   4.409   2.922 -0.3337  0.4593  0.8114
17965TIP3   OH275309   5.286   5.220   4.850  0.0012  0.2789  0.1927
17965TIP3    H175310   5.222   5.265   4.795  1.1760  2.4315  0.4746
17965TIP3    H275311   5.371   5.254   4.822  0.9965 -1.9345  0.3473
17966TIP3   OH275312   6.403   1.340   4.474 -0.3025 -0.6361 -0.4597
17966TIP3    H175313   6.429   1.380   4.391 -0.9834 -0.8997 -0.8083
17966TIP3    H275314   6.366   1.256   4.449  1.2741 -1.5890  0.2879
17967TIP3   OH275315   4.713   4.029  11.419  0.1970 -0.8374 -0.1601
17967TIP3    H175316   4.712   4.108  11.474  0.4790  0.0365 -1.3755
17967TIP3    H275317   4.709   3.957  11.482 -1.2597  0.1396  0.9409
17968TIP3   OH275318   5.003   2.280  14.458  0.5539 -0.4730  0.4192
17968TIP3    H175319   5.076   2.294  14.519  0.4096  1.3981  0.2199
17968TIP3    H275320   4.939   2.230  14.509  0.3327  1.2507  1.9488
17969TIP3   OH275321   1.283   3.191  13.984 -0.0850  0.0808 -0.3316
17969TIP3    H175322   1.321   3.105  14.002 -2.6427 -1.5841 -2.2470
17969TIP3    H275323   1.347   3.235  13.928  0.4784 -1.3188 -0.8255
17970TIP3   OH275324   4.297   2.709   5.562 -0.3121 -0.1841 -0.5290
17970TIP3    H175325   4.247   2.628   5.558  1.0922 -1.0735 -0.5326
17970TIP3    H275326   4.232   2.778   5.543 -1.0654 -1.4578 -3.0109
17971TIP3   OH275327   4.507   0.291  11.708  0.2656 -0.1770 -0.4104
17971TIP3    H175328   4.547   0.283  11.622 -0.3358 -1.7895 -0.5814
17971TIP3    H275329   4.453   0.370  11.703  1.0098  0.2942 -1.1721
17972TIP3   OH275330   4.177   6.657  16.223  0.1480 -0.3205 -0.0552
17972TIP3    H175331   4.265   6.655  16.261  0.6166  1.4278 -0.9300
17972TIP3    H275332   4.177   6.734  16.167 -1.5514 -1.0079 -1.0886
17973TIP3   OH275333   5.255   0.685   1.610  0.3488  0.4300  0.3514
17973TIP3    H175334   5.168   0.692   1.572 -0.0611 -0.0206  1.1761
17973TIP3    H275335   5.240   0.685   1.705  1.1207 -0.9385  0.5061
17974TIP3   OH275336   3.143   5.801  14.355 -0.0255  0.5902 -0.4303
17974TIP3    H175337   3.188   5.773  14.434 -1.7982 -0.6479  0.2017
17974TIP3    H275338   3.072   5.737  14.343 -0.4260  1.3207 -2.4479
17975TIP3   OH275339   4.875   4.192   1.700 -0.1410  0.0536 -0.1779
17975TIP3    H175340   4.826   4.255   1.753  0.2296 -0.4555  0.7935
17975TIP3    H275341   4.844   4.206   1.611 -0.8308  0.8822  0.1836
17976TIP3   OH275342   5.564   0.624  11.369 -0.0936 -0.1168 -0.0767
17976TIP3    H175343   5.576   0.681  11.445 -1.1392 -0.0430  0.0504
17976TIP3    H275344   5.549   0.537  11.407 -1.7236  0.1160 -0.1376
17977TIP3   OH275345   0.119   2.390   3.918  0.0034  0.4566 -0.2867
17977TIP3    H175346   0.102   2.320   3.980  1.0226 -0.4633 -1.0249
17977TIP3    H275347   0.032   2.427   3.900 -0.2268  1.5095  2.4751
17978TIP3   OH275348   1.489   2.911   5.750  0.3392  0.1721  0.1103
17978TIP3    H175349   1.444   2.826   5.747 -0.3014  0.4057  1.9968
17978TIP3    H275350   1.472   2.950   5.664 -1.7349 -0.4309  0.1931
17979TIP3   OH275351   3.380   5.231   4.703 -0.2498 -0.2567  0.0660
17979TIP3    H175352   3.351   5.215   4.613  0.8043 -1.7799 -0.0468
17979TIP3    H275353   3.473   5.250   4.694  0.0525 -1.2854  0.8881
17980TIP3   OH275354   0.649   1.541  15.250  0.2229  0.5218 -0.2967
17980TIP3    H175355   0.607   1.622  15.221  0.1660  0.5827 -0.0496
17980TIP3    H275356   0.591   1.507  15.318 -0.5975 -0.5875 -1.5114
17981TIP3   OH275357   6.778   2.893  15.583  0.5000  0.4809 -1.1270
17981TIP3    H175358   6.872   2.899  15.566  0.2644  2.4811 -1.9388
17981TIP3    H275359   6.762   2.799  15.595  2.6618  0.1388 -0.4767
17982TIP3   OH275360   2.232   0.481  15.631  0.4385  0.4810  0.0665
17982TIP3    H175361   2.190   0.397  15.613 -0.9782  1.0763  0.4659
17982TIP3    H275362   2.295   0.493  15.559  1.9539 -1.7094  0.9406
17983TIP3   OH275363   3.034   3.008   4.126 -0.6316  0.1461  0.1822
17983TIP3    H175364   2.999   2.919   4.124 -1.9484  0.6352  0.3657
17983TIP3    H275365   3.041   3.034   4.034 -2.6813  0.7377  0.1480
17984TIP3   OH275366   6.357   5.973  12.170 -0.2813  0.2399  0.0815
17984TIP3    H175367   6.403   5.966  12.253 -1.7479  0.5038  0.9423
17984TIP3    H275368   6.408   6.038  12.120  0.3348  0.4406  0.9571
17985TIP3   OH275369   3.220   3.289  11.611 -0.3601  0.2143 -0.2174
17985TIP3    H175370   3.218   3.299  11.516 -0.9239  1.0776 -0.1211
17985TIP3    H275371   3.129   3.299  11.639 -0.2936 -0.6611  0.3602
17986TIP3   OH275372   2.211   1.276  11.287  0.1490 -0.0358  0.1568
17986TIP3    H175373   2.233   1.364  11.257  0.6937 -0.2939 -0.2050
17986TIP3    H275374   2.127   1.257  11.244  0.1405  0.2108  0.0608
17987TIP3   OH275375   4.348   6.455  14.434 -0.2946 -0.2622 -0.4829
17987TIP3    H175376   4.325   6.366  14.409  0.1542 -0.8078  0.9501
17987TIP3    H275377   4.265   6.504  14.428 -0.4616 -0.6658 -1.6441
17988TIP3   OH275378   2.522   2.242  12.908 -0.0035 -0.3039  0.0525
17988TIP3    H175379   2.509   2.337  12.913  0.2222 -0.2375 -0.5227
17988TIP3    H275380   2.617   2.231  12.904 -0.0425 -0.5384 -0.2293
17989TIP3   OH275381   6.098   0.823   5.862 -0.2411  0.0239  0.1066
17989TIP3    H175382   6.097   0.728   5.851  0.6368  0.1367 -1.0830
17989TIP3    H275383   6.033   0.840   5.930 -0.0902 -1.4630  0.6473
17990TIP3   OH275384   4.392   6.576   5.226 -0.1893  0.3806 -0.0697
17990TIP3    H175385   4.399   6.589   5.131 -1.3296 -0.7012 -0.3355
17990TIP3    H275386   4.472   6.614   5.262  1.5679 -1.5182 -1.7075
17991TIP3   OH275387   6.243   4.442  14.769 -0.5041 -0.3377  0.4680
17991TIP3    H175388   6.284   4.487  14.696 -0.8004 -0.3553  0.2887
17991TIP3    H275389   6.232   4.510  14.836  0.9866 -0.6078  1.0228
17992TIP3   OH275390   4.897   5.136  14.200 -0.5016 -0.0624  0.1004
17992TIP3    H175391   4.963   5.124  14.132  1.2767 -0.6535  1.8217
17992TIP3    H275392   4.914   5.065  14.262 -0.5158  1.7652  2.3330
17993TIP3   OH275393   4.921   5.963   3.356  0.6780  0.3833  0.3302
17993TIP3    H175394   4.936   6.054   3.384 -1.7940  0.5893  1.2156
17993TIP3    H275395   4.874   5.972   3.273 -0.9769 -0.0069  1.1904
17994TIP3   OH275396   2.423   0.357   0.524 -0.3666  0.2428  0.9803
17994TIP3    H175397   2.358   0.353   0.453 -0.0842 -0.0564  0.7355
17994TIP3    H275398   2.423   0.268   0.561  0.3961  0.0506  0.5328
17995TIP3   OH275399   1.659   1.453  13.876 -0.3632  0.6247  0.2133
17995TIP3    H175400   1.703   1.533  13.904 -0.1762  0.6544 -0.1579
17995TIP3    H275401   1.588   1.441  13.939  0.9071 -0.0870  1.5696
17996TIP3   OH275402   2.243   1.690   1.443 -0.4662  0.2462 -0.1144
17996TIP3    H175403   2.293   1.633   1.501  0.8934  0.3550 -1.1372
17996TIP3    H275404   2.151   1.665   1.458 -0.0289 -0.8739  0.8328
17997TIP3   OH275405   0.413   4.460   2.642 -0.6768  0.4532  0.8567
17997TIP3    H175406   0.397   4.376   2.686  0.4266 -0.5355 -0.5266
17997TIP3    H275407   0.331   4.477   2.595 -1.0852  0.4079  1.5441
17998TIP3   OH275408   4.946   5.117  12.231 -0.0321  0.5283  0.3910
17998TIP3    H175409   5.039   5.132  12.246 -0.5177  3.8690  0.7220
17998TIP3    H275410   4.931   5.141  12.140 -0.2126 -2.5696 -0.5103
17999TIP3   OH275411   0.255   2.740   2.918 -0.1200  0.1118  0.1995
17999TIP3    H175412   0.347   2.731   2.944 -0.3582 -0.5124  0.8334
17999TIP3    H275413   0.254   2.713   2.826  0.0480 -1.5716  0.6637
18000TIP3   OH275414   5.402   2.792  15.812  0.1865  0.0766 -0.4892
18000TIP3    H175415   5.345   2.728  15.856  1.3167 -0.9297 -0.4552
18000TIP3    H275416   5.469   2.739  15.769  1.7916  1.2853  0.4290
18001TIP3   OH275417   1.102   0.560  11.935 -0.2084 -0.5596 -0.3204
18001TIP3    H175418   1.069   0.534  12.021  1.1724  2.2223  1.1728
18001TIP3    H275419   1.172   0.498  11.917 -0.7234 -1.3779  0.3937
18002TIP3   OH275420   4.550   0.477   3.726 -0.9162  0.0163 -0.1284
18002TIP3    H175421   4.597   0.407   3.772  1.7625  0.8210 -1.4530
18002TIP3    H275422   4.552   0.451   3.634 -3.1751  0.1041 -0.2562
18003TIP3   OH275423   1.586   5.566   3.177 -0.6640  0.1695 -0.1952
18003TIP3    H175424   1.622   5.622   3.245 -0.0276  0.2142 -0.5635
18003TIP3    H275425   1.613   5.607   3.095 -1.3348  0.0584 -0.4761
18004TIP3   OH275426   3.928   0.005  14.422 -0.4966 -0.6094 -0.7387
18004TIP3    H175427   3.958   0.009  14.512  0.9554  1.0300 -1.2471
18004TIP3    H275428   3.928   0.096  14.392 -1.3834 -1.0712 -2.2678
18005TIP3   OH275429   0.600   2.802  16.307 -0.1786  0.3498 -0.7477
18005TIP3    H175430   0.645   2.790  16.391 -0.7650 -0.0975 -0.4903
18005TIP3    H275431   0.660   2.765  16.242  0.9680  2.0591 -0.7299
18006TIP3   OH275432   0.105   5.384  15.258  0.2600  0.2705  0.2675
18006TIP3    H175433   0.013   5.410  15.250  0.5986  2.3619  2.1477
18006TIP3    H275434   0.148   5.429  15.185  0.1324  1.3893  0.8575
18007TIP3   OH275435   1.189   4.921  12.299  0.4877  0.2795 -0.0283
18007TIP3    H175436   1.140   5.003  12.290 -0.5116 -0.1272  1.3639
18007TIP3    H275437   1.272   4.947  12.338  0.8254  0.7884 -1.0276
18008TIP3   OH275438   4.839   0.037  15.409 -0.9270 -0.1768  0.4515
18008TIP3    H175439   4.840  -0.051  15.372  0.6826  0.1920 -0.4537
18008TIP3    H275440   4.926   0.048  15.448 -1.5929  0.5122  1.8035
18009TIP3   OH275441   3.776   1.805  15.945  1.0421  0.1122 -0.2895
18009TIP3    H175442   3.749   1.774  15.859  0.0283 -1.0658  0.4233
18009TIP3    H275443   3.736   1.744  16.006 -0.5222  2.4863  1.1868
18010TIP3   OH275444   0.576   1.361  13.541  0.3195  0.0490 -0.1004
18010TIP3    H175445   0.513   1.368  13.613 -2.3349  1.1826 -2.3533
18010TIP3    H275446   0.606   1.270  13.545 -2.4522 -0.9490  0.3723
18011TIP3   OH275447   5.049   1.347   1.235 -0.3070 -0.4156  0.0719
18011TIP3    H175448   5.086   1.348   1.323  1.1606  0.6118 -0.5038
18011TIP3    H275449   4.995   1.426   1.230  0.8712  0.3893 -0.4109
18012TIP3   OH275450   5.464   3.416  16.765 -0.1269 -0.9637  0.2507
18012TIP3    H175451   5.412   3.345  16.802 -1.6511  0.8881  1.8879
18012TIP3    H275452   5.402   3.468  16.714  0.9294 -0.7423 -0.8540
18013TIP3   OH275453   6.150   2.258   5.803  0.0240  0.0332  0.1313
18013TIP3    H175454   6.190   2.209   5.875  1.2726  3.0405  1.6392
18013TIP3    H275455   6.069   2.293   5.840  0.3283  1.0283 -0.1195
18014TIP3   OH275456   3.530   6.577  14.256 -0.3728  0.3333  0.5131
18014TIP3    H175457   3.458   6.585  14.319 -2.1464 -0.7972 -1.2491
18014TIP3    H275458   3.527   6.658  14.205 -0.1250  0.4661  0.7094
18015TIP3   OH275459   5.750   3.185   5.601 -0.5560 -0.0613 -0.0230
18015TIP3    H175460   5.794   3.270   5.598  0.1053 -0.3228  1.4763
18015TIP3    H275461   5.741   3.166   5.694 -1.6489 -1.1601 -0.3321
18016TIP3   OH275462   5.991   5.757  16.493 -0.3216  0.2015 -0.6040
18016TIP3    H175463   6.077   5.775  16.531  0.3544 -0.3960 -1.7954
18016TIP3    H275464   5.947   5.701  16.557  0.5008 -0.1753 -0.3545
18017TIP3   OH275465   4.511   2.202  17.019  0.0679 -0.2725 -0.3106
18017TIP3    H175466   4.422   2.236  17.015  0.5508  1.0841 -0.0711
18017TIP3    H275467   4.567   2.279  17.011  1.2156 -0.7624  2.1497
18018TIP3   OH275468   1.128   1.023  15.405  0.1375 -0.0895  0.7948
18018TIP3    H175469   1.167   0.936  15.408  0.7370  0.1336 -0.1534
18018TIP3    H275470   1.165   1.068  15.481  0.5536 -0.3696  0.7622
18019TIP3   OH275471   4.582   3.151  14.964  0.1151  0.3024  0.4011
18019TIP3    H175472   4.546   3.198  15.040  0.5513 -0.0694  0.8494
18019TIP3    H275473   4.677   3.150  14.981  0.1137 -0.7304  0.3948
18020TIP3   OH275474   0.545   3.152   0.109 -0.5303 -0.0686  0.2585
18020TIP3    H175475   0.507   3.221   0.164  1.1421  0.7881  0.4043
18020TIP3    H275476   0.469   3.108   0.071 -1.6723  1.9705 -0.0105
18021TIP3   OH275477   1.809   0.424   2.961  0.5811 -0.0011 -0.0297
18021TIP3    H175478   1.880   0.392   2.906 -0.3506 -0.5429 -0.9658
18021TIP3    H275479   1.844   0.423   3.050  1.2740 -1.5954 -0.2961
18022TIP3   OH275480   5.276   0.671   3.751 -0.0465 -0.2255 -0.1785
18022TIP3    H175481   5.241   0.759   3.758 -0.6156 -0.5218  0.9341
18022TIP3    H275482   5.367   0.679   3.778  0.1443  0.1646 -0.9208
18023TIP3   OH275483   0.173   6.183   0.809  0.1776 -0.3334 -0.3409
18023TIP3    H175484   0.264   6.207   0.826 -0.3167 -0.2876  2.9528
18023TIP3    H275485   0.178   6.094   0.775  1.4384 -1.0355  1.5358
18024TIP3   OH275486   5.447   2.056  12.084  0.2795 -0.3174  0.6477
18024TIP3    H175487   5.454   2.127  12.147  0.3756  1.8151 -1.5916
18024TIP3    H275488   5.413   1.982  12.134 -0.2040  1.4096  3.0370
18025TIP3   OH275489   4.419   0.907  11.965  0.0085 -0.3272 -0.1714
18025TIP3    H175490   4.411   0.954  11.882  2.2181 -0.5107 -0.5410
18025TIP3    H275491   4.513   0.888  11.974 -0.4918 -2.5832  1.1315
18026TIP3   OH275492   1.491   4.253  14.742  0.4173 -0.2043  0.1517
18026TIP3    H175493   1.402   4.218  14.742  0.2963  0.1017  0.0028
18026TIP3    H275494   1.483   4.340  14.780  0.1224  1.1346 -2.6705
18027TIP3   OH275495   6.782   5.837  16.612 -0.1319  0.1217 -0.9510
18027TIP3    H175496   6.815   5.770  16.673  0.1746  2.1186  1.2047
18027TIP3    H275497   6.856   5.854  16.554  0.0392 -0.8530 -1.0355
18028TIP3   OH275498   2.629   4.379  10.671 -0.6705  0.0172 -0.6008
18028TIP3    H175499   2.612   4.470  10.696 -0.1498 -0.3315  1.1744
18028TIP3    H275500   2.664   4.339  10.750  1.8112 -1.0320 -2.1034
18029TIP3   OH275501   2.919   1.477   0.426  0.0515 -0.3301 -0.5635
18029TIP3    H175502   2.976   1.552   0.444  0.8440 -0.9118 -0.5977
18029TIP3    H275503   2.962   1.403   0.470 -1.0453 -0.6550 -0.0066
18030TIP3   OH275504   1.200   5.997  15.390 -0.2154 -0.6121 -0.2756
18030TIP3    H175505   1.278   6.053  15.400 -0.9494  0.4950 -0.5021
18030TIP3    H275506   1.167   5.985  15.478 -1.2173  1.0687 -0.3836
18031TIP3   OH275507   0.446   2.802   3.565 -0.8292  0.5120 -0.7957
18031TIP3    H175508   0.356   2.776   3.545 -0.2611 -2.8097  0.4550
18031TIP3    H275509   0.490   2.721   3.588  2.9042  1.7804 -2.6316
18032TIP3   OH275510   4.099   2.240   1.817 -0.1521 -0.3515  0.4886
18032TIP3    H175511   4.083   2.233   1.723  3.3721  1.1667 -0.3752
18032TIP3    H275512   4.064   2.325   1.841  2.8786  1.3559 -0.5999
18033TIP3   OH275513   2.680   6.670   4.509  0.0258 -0.2060  0.1031
18033TIP3    H175514   2.716   6.624   4.585  1.9447 -0.4453 -0.9032
18033TIP3    H275515   2.757   6.701   4.461 -1.1629  0.5978 -1.3513
18034TIP3   OH275516   6.766   2.874   6.372 -0.1829  0.4680 -0.1593
18034TIP3    H175517   6.841   2.823   6.403  0.1963  1.1530  0.0730
18034TIP3    H275518   6.799   2.964   6.368 -0.1563  0.4295 -2.6485
18035TIP3   OH275519   3.525   6.558   0.424 -0.1814 -0.3290 -0.3348
18035TIP3    H175520   3.586   6.540   0.352  0.3116 -1.0793  0.2472
18035TIP3    H275521   3.455   6.609   0.384  1.3184  1.4428 -0.8280
18036TIP3   OH275522   4.639   2.448  13.526  0.3012 -0.0146 -0.0801
18036TIP3    H175523   4.686   2.526  13.555  1.4505  0.3000 -2.5373
18036TIP3    H275524   4.703   2.377  13.529 -0.2217 -0.4835  0.3925
18037TIP3   OH275525   2.522   0.283  13.126  0.4290  0.1515 -0.3287
18037TIP3    H175526   2.472   0.350  13.080 -1.2836 -1.2847 -0.6656
18037TIP3    H275527   2.511   0.306  13.219  2.4604  2.0618 -0.4853
18038TIP3   OH275528   1.392   5.541   5.915 -0.5392 -0.3008  0.3076
18038TIP3    H175529   1.375   5.603   5.986 -0.0348  0.9498 -0.6295
18038TIP3    H275530   1.425   5.462   5.959 -0.3165  0.4242  1.4616
18039TIP3   OH275531   3.149   1.369  12.786 -0.0113  0.0202 -0.1056
18039TIP3    H175532   3.057   1.374  12.759  0.0826 -1.2598 -0.7333
18039TIP3    H275533   3.164   1.450  12.835 -1.3553  0.4405 -0.3469
18040TIP3   OH275534   3.234   5.714  14.613  0.3273 -0.1699  0.2327
18040TIP3    H175535   3.215   5.670  14.695  1.2386 -0.0987  0.4907
18040TIP3    H275536   3.292   5.787  14.637  0.1282  0.2086 -0.3933
18041TIP3   OH275537   1.476   0.669  16.590 -0.3228 -0.0261 -0.3125
18041TIP3    H175538   1.397   0.664  16.536  0.9484 -0.8052 -2.2125
18041TIP3    H275539   1.478   0.586  16.638  0.0442 -0.6357 -1.3477
18042TIP3   OH275540   4.897   4.317   3.037 -0.4196 -0.2545 -0.0230
18042TIP3    H175541   4.898   4.401   3.083  1.1374 -0.6044  0.6430
18042TIP3    H275542   4.847   4.259   3.095  2.1939 -0.9083  1.7361
18043TIP3   OH275543   4.754   6.262  13.413 -0.2523  0.4382  0.0385
18043TIP3    H175544   4.742   6.219  13.328 -1.1325  0.7540 -0.0035
18043TIP3    H275545   4.839   6.305  13.406  0.2152 -0.4968 -0.2558
18044TIP3   OH275546   5.805   4.811  12.791  0.0990 -0.6028  0.3435
18044TIP3    H175547   5.827   4.719  12.807 -1.5358 -0.9717  0.6494
18044TIP3    H275548   5.718   4.809  12.753  0.6085  0.7721 -1.0086
18045TIP3   OH275549   3.054   1.696   4.196  0.5667 -0.2955 -0.4075
18045TIP3    H175550   2.970   1.699   4.152 -0.4098  3.9920  1.2150
18045TIP3    H275551   3.040   1.640   4.272 -0.2275 -1.0559 -1.0992
18046TIP3   OH275552   5.978   2.636   4.886 -0.6240  0.0423 -0.0196
18046TIP3    H175553   6.030   2.712   4.911 -0.2963 -0.1083 -0.2330
18046TIP3    H275554   5.993   2.572   4.956 -0.4629 -0.0261 -0.1147
18047TIP3   OH275555   3.479   6.602  11.394 -0.0668  0.5799 -1.0416
18047TIP3    H175556   3.441   6.604  11.481 -2.1168  1.2590 -1.8828
18047TIP3    H275557   3.571   6.624  11.407 -0.1991  0.1285  0.9766
18048TIP3   OH275558   1.451   5.303  12.539  0.3858 -0.2854 -0.4842
18048TIP3    H175559   1.525   5.363  12.531 -0.7665  1.1956 -0.4228
18048TIP3    H275560   1.379   5.348  12.497 -1.0227 -0.7623  1.2973
18049TIP3   OH275561   6.074   3.455  11.978 -0.1122  0.8275  0.4303
18049TIP3    H175562   5.996   3.503  11.951 -0.1867  0.2705 -0.3908
18049TIP3    H275563   6.041   3.372  12.012  0.1317  0.4942 -0.1357
18050TIP3   OH275564   3.195   1.255   3.590 -0.1661  0.3161 -0.6380
18050TIP3    H175565   3.160   1.172   3.558  0.4511 -0.5494  0.8770
18050TIP3    H275566   3.120   1.298   3.632  0.0967 -0.6717  0.8925
18051TIP3   OH275567   5.934   0.747  12.223  0.0294 -0.3482  0.2601
18051TIP3    H175568   5.879   0.730  12.300 -1.1741  1.6553 -0.0797
18051TIP3    H275569   5.909   0.835  12.195  1.0463 -0.6992 -1.9409
18052TIP3   OH275570   1.513   2.218  13.966  0.0400 -0.4910 -0.3733
18052TIP3    H175571   1.566   2.209  13.887 -1.5367  1.5814 -1.7443
18052TIP3    H275572   1.572   2.190  14.037  2.6405  0.7501 -1.9075
18053TIP3   OH275573   3.703   2.070   2.104 -0.0775  0.4673 -0.3609
18053TIP3    H175574   3.742   2.030   2.027 -0.1697 -0.7003  0.1800
18053TIP3    H275575   3.609   2.068   2.087 -0.2841 -1.9021  0.7121
18054TIP3   OH275576   4.825   4.511  16.760 -0.1838 -0.6012  0.6897
18054TIP3    H175577   4.803   4.602  16.781 -0.2196 -0.6706  0.9659
18054TIP3    H275578   4.742   4.471  16.735 -0.1613 -0.5474  0.5281
18055TIP3   OH275579   4.621   2.313  14.357 -0.5412  0.3984  0.3263
18055TIP3    H175580   4.664   2.286  14.438  0.7305 -0.1178 -0.4888
18055TIP3    H275581   4.585   2.400  14.377  1.0792  0.9530  1.0007
18056TIP3   OH275582   3.590   1.492  13.897  0.0977 -0.1764  0.3565
18056TIP3    H175583   3.589   1.502  13.992  2.7285 -1.1766  0.5886
18056TIP3    H275584   3.634   1.408  13.883 -1.8750 -0.9733 -1.7555
18057TIP3   OH275585   6.325   5.588   2.113 -0.1491 -0.5622 -0.1269
18057TIP3    H175586   6.351   5.664   2.165 -1.3084  0.5451 -1.1010
18057TIP3    H275587   6.254   5.548   2.164 -0.0567 -0.5419  0.0181
18058TIP3   OH275588   6.470   4.895  16.681 -0.9088  0.0072  0.3383
18058TIP3    H175589   6.459   4.851  16.596 -0.7739 -0.5708  0.6150
18058TIP3    H275590   6.451   4.827  16.745  0.8579 -0.0918  0.7993
18059TIP3   OH275591   6.680   3.572  13.550 -0.0255  0.1496 -0.6175
18059TIP3    H175592   6.755   3.535  13.596  0.6873  2.0120 -0.1817
18059TIP3    H275593   6.625   3.497  13.529  0.7641 -1.0098  1.2012
18060TIP3   OH275594   3.203   5.907   4.524 -0.4032  0.3337 -0.6702
18060TIP3    H175595   3.108   5.919   4.527 -0.3894  0.9255 -2.0751
18060TIP3    H275596   3.218   5.821   4.562 -1.3145  1.0180  1.3942
18061TIP3   OH275597   4.466   5.321  12.541  0.1846 -0.2196  0.5120
18061TIP3    H175598   4.547   5.273  12.525  0.2056 -0.9690  2.5812
18061TIP3    H275599   4.471   5.397  12.483 -0.3461 -3.0858 -3.7118
18062TIP3   OH275600   1.116   3.101  15.372 -0.4559  0.5310 -0.1147
18062TIP3    H175601   1.030   3.135  15.347 -1.4341  0.0261  2.2927
18062TIP3    H275602   1.178   3.168  15.344 -1.7009  1.3116 -1.1145
18063TIP3   OH275603   5.254   0.286  16.285 -0.1050 -0.2053 -0.2173
18063TIP3    H175604   5.323   0.320  16.342  0.7475 -0.5240 -1.0283
18063TIP3    H275605   5.183   0.262  16.344  0.4684  0.1514  0.6337
18064TIP3   OH275606   1.976   2.375  14.482 -0.0737 -0.5020  0.0370
18064TIP3    H175607   1.905   2.429  14.517  1.3982  0.4208  1.7952
18064TIP3    H275608   2.042   2.438  14.452  0.3766 -1.3345 -0.7740
18065TIP3   OH275609   4.095   0.568  15.666 -0.2820 -0.1799 -0.0737
18065TIP3    H175610   4.045   0.624  15.726  1.1342  0.5647  0.4534
18065TIP3    H275611   4.088   0.612  15.581 -0.9532 -0.3590 -0.1110
18066TIP3   OH275612   5.591   6.102   4.935  0.1764 -0.5109 -0.0629
18066TIP3    H175613   5.567   6.174   4.994 -1.3890 -0.5509 -0.6102
18066TIP3    H275614   5.511   6.050   4.927  0.6216 -1.0147 -1.4977
18067TIP3   OH275615   3.992   6.255   4.907 -0.1281 -0.2388 -0.0336
18067TIP3    H175616   4.018   6.249   4.999 -0.9674 -1.1134  0.1633
18067TIP3    H275617   4.071   6.285   4.862  0.4907 -0.4486  0.8798
18068TIP3   OH275618   4.978   2.428   1.312 -0.0538  0.2610 -0.2828
18068TIP3    H175619   5.061   2.435   1.358 -0.4608 -0.5443  0.6293
18068TIP3    H275620   4.973   2.506   1.257  2.1535 -0.5930 -1.8106
18069TIP3   OH275621   3.061   4.539  15.579 -0.2662 -0.1472  0.0241
18069TIP3    H175622   3.082   4.607  15.643 -1.7511 -0.0257  0.4188
18069TIP3    H275623   2.992   4.487  15.621 -1.1407 -0.1778 -1.3930
18070TIP3   OH275624   0.947   0.856  14.326 -0.7598  0.2865  0.7950
18070TIP3    H175625   1.022   0.822  14.277 -0.9973  1.1577 -0.2245
18070TIP3    H275626   0.959   0.951  14.325 -1.7360  0.4216  0.8370
18071TIP3   OH275627   6.134   3.577   2.460  0.0680  0.0072  0.4866
18071TIP3    H175628   6.213   3.627   2.482 -0.0181 -0.0776  1.0079
18071TIP3    H275629   6.128   3.510   2.529 -0.3711 -0.0873  0.3613
18072TIP3   OH275630   4.114   3.174   5.915 -0.0499 -0.5874 -0.1906
18072TIP3    H175631   4.059   3.158   5.991 -0.5183 -1.4305 -0.6930
18072TIP3    H275632   4.203   3.173   5.949 -0.3130  1.8426  0.8241
18073TIP3   OH275633   6.573   4.432  13.640 -0.2916  0.0587  0.2705
18073TIP3    H175634   6.505   4.403  13.579  0.2739  2.3139 -1.5302
18073TIP3    H275635   6.647   4.455  13.585  0.8408  0.6357  1.9541
18074TIP3   OH275636   0.531   2.386  11.835  0.4400 -0.3731  0.0201
18074TIP3    H175637   0.473   2.389  11.911  0.1805  0.3657 -0.2047
18074TIP3    H275638   0.476   2.352  11.765  0.6145 -0.8227  0.0957
18075TIP3   OH275639   0.505   3.284  16.029  0.2115 -0.4055  0.3794
18075TIP3    H175640   0.567   3.234  16.082 -0.6871 -2.2437 -0.2332
18075TIP3    H275641   0.419   3.261  16.064 -0.3004 -0.4461 -0.8519
18076TIP3   OH275642   6.263   1.840  14.908 -0.3801 -0.1293 -0.1216
18076TIP3    H175643   6.318   1.916  14.888  1.2205 -1.2065  0.0222
18076TIP3    H275644   6.260   1.837  15.004  0.8870 -1.1139 -0.0816
18077TIP3   OH275645   5.704   5.736  16.898 -0.7042 -0.0823  0.0761
18077TIP3    H175646   5.641   5.761  16.831  0.0500  1.9220  0.0526
18077TIP3    H275647   5.701   5.641  16.900 -1.6476 -0.1277 -1.9086
18078TIP3   OH275648   6.331   3.733   2.549 -0.2144  0.3641 -0.6830
18078TIP3    H175649   6.410   3.727   2.495 -0.7973 -3.7792 -1.3724
18078TIP3    H275650   6.364   3.730   2.639  0.5400  3.2414 -0.7827
18079TIP3   OH275651   0.815   4.351  14.664 -0.3748  0.1653 -0.1037
18079TIP3    H175652   0.827   4.404  14.585 -2.3126  0.2025 -0.4185
18079TIP3    H275653   0.857   4.268  14.644 -0.8366  0.1754 -1.1908
18080TIP3   OH275654   1.910   1.096  10.420  0.3584 -0.8146 -0.0966
18080TIP3    H175655   1.923   1.082  10.326 -0.0795 -0.0708 -0.2750
18080TIP3    H275656   1.998   1.106  10.456  0.4781  0.3699 -0.6750
18081TIP3   OH275657   3.015   6.209  11.702 -0.4430  0.0405  0.5319
18081TIP3    H175658   2.975   6.204  11.615 -0.6453 -2.1710  0.7053
18081TIP3    H275659   3.103   6.175  11.690  0.1224  1.3020  0.9028
18082TIP3   OH275660   2.402   2.407   3.061  0.0980  0.6214 -0.2457
18082TIP3    H175661   2.329   2.346   3.052  1.0484 -0.2835 -2.2502
18082TIP3    H275662   2.435   2.391   3.149 -0.8124 -0.4336 -0.0677
18083TIP3   OH275663   2.205   6.000  11.415 -0.2797 -0.0422  0.0993
18083TIP3    H175664   2.276   6.061  11.435  0.2762 -0.3462 -0.8632
18083TIP3    H275665   2.138   6.054  11.375  0.6372 -0.1629 -1.7282
18084TIP3   OH275666   3.697   0.630   1.478 -0.0070  0.0330 -0.3719
18084TIP3    H175667   3.758   0.557   1.487 -0.8598 -0.5501  0.8938
18084TIP3    H275668   3.753   0.705   1.455  0.8180 -1.0960 -2.3131
18085TIP3   OH275669   6.695   0.719   0.274  0.4844 -0.0246 -0.0765
18085TIP3    H175670   6.647   0.656   0.328 -1.7929  0.9427 -0.8090
18085TIP3    H275671   6.708   0.794   0.331  0.0038  0.1646 -0.2026
18086TIP3   OH275672   1.945   0.864   1.889 -0.1449  0.4486  0.0084
18086TIP3    H175673   1.894   0.784   1.879  0.1213  0.2998 -0.1687
18086TIP3    H275674   1.917   0.920   1.816  0.2253  0.2129 -0.3196
18087TIP3   OH275675   5.200   3.302   0.396  0.0039 -0.1338 -0.3159
18087TIP3    H175676   5.230   3.247   0.324 -1.5951  0.6774 -1.6751
18087TIP3    H275677   5.111   3.327   0.372 -0.0176  1.4644  1.1919
18088TIP3   OH275678   0.712   5.571   1.899  0.4494 -0.3217 -0.5167
18088TIP3    H175679   0.746   5.622   1.826 -0.5758 -1.1348 -1.6111
18088TIP3    H275680   0.617   5.568   1.884  0.5153 -2.9083 -0.7701
18089TIP3   OH275681   5.400   4.537   1.363 -0.2874  0.0128  0.1901
18089TIP3    H175682   5.368   4.516   1.275 -0.1168  0.4767  0.0170
18089TIP3    H275683   5.398   4.632   1.367  0.0903  0.0054  0.5457
18090TIP3   OH275684   5.473   2.134  15.988 -0.2828 -0.3542 -0.8105
18090TIP3    H175685   5.425   2.058  16.019 -1.3594  0.1628 -1.1547
18090TIP3    H275686   5.479   2.192  16.064 -1.5022  0.2061 -1.1098
18091TIP3   OH275687   0.408   3.859  16.843  0.1405 -0.1463  0.2135
18091TIP3    H175688   0.414   3.899  16.931  0.8114 -0.8384  0.4978
18091TIP3    H275689   0.423   3.766  16.858  0.9606 -0.1794 -0.7189
18092TIP3   OH275690   4.154   4.973   3.893  0.0799  0.6046 -0.0826
18092TIP3    H175691   4.111   4.942   3.814 -0.7933  0.2605  0.5100
18092TIP3    H275692   4.246   4.947   3.883 -0.2558 -0.4587 -0.4674
18093TIP3   OH275693   5.888   6.417  14.767 -0.4070  0.4485  0.2530
18093TIP3    H175694   5.916   6.506  14.743  0.3660  0.0588 -0.3438
18093TIP3    H275695   5.950   6.360  14.722 -0.6856 -0.3909  0.9193
18094TIP3   OH275696   3.278   2.970   2.263  0.4721 -0.4606 -0.4288
18094TIP3    H175697   3.343   3.031   2.228 -0.1922  0.5684  0.0886
18094TIP3    H275698   3.209   2.967   2.197 -0.0644  0.3037  0.0813
18095TIP3   OH275699   2.571   6.707  11.191  0.8729  0.0316 -0.0240
18095TIP3    H175700   2.547   6.624  11.230 -0.2759  0.6076  0.5230
18095TIP3    H275701   2.544   6.699  11.099  2.5953 -0.9156 -0.4984
18096TIP3   OH275702   1.417   1.703  16.152 -0.1199 -0.9588  0.4485
18096TIP3    H175703   1.508   1.701  16.123  0.0270 -2.1792  0.9413
18096TIP3    H275704   1.418   1.660  16.238 -1.2453 -1.5059  0.2107
18097TIP3   OH275705   6.116   3.131  15.368 -0.3495  0.2459  0.0147
18097TIP3    H175706   6.089   3.140  15.277 -0.2872  0.8271  0.0461
18097TIP3    H275707   6.150   3.217  15.391  1.3414 -0.4105  0.0549
18098TIP3   OH275708   0.306   1.022   6.162  0.0906  0.0117 -0.2685
18098TIP3    H175709   0.354   0.939   6.164  2.3727  1.2373 -0.8419
18098TIP3    H275710   0.342   1.073   6.235 -1.1495  0.5692 -0.0282
18099TIP3   OH275711   1.399   4.956   2.730  0.2427 -0.1226  0.4119
18099TIP3    H175712   1.318   4.999   2.702  1.1577  0.3794 -1.6041
18099TIP3    H275713   1.468   5.019   2.711  1.1314 -0.3959  2.4434
18100TIP3   OH275714   4.104   1.504   5.684 -0.0395 -0.2136 -0.1984
18100TIP3    H175715   4.180   1.484   5.738 -0.4843  0.7898  0.8137
18100TIP3    H275716   4.140   1.553   5.609  0.1254  2.0303  1.2644
18101TIP3   OH275717   3.029   2.589   4.615 -0.0804  0.1306 -0.1225
18101TIP3    H175718   3.035   2.538   4.535 -0.8731  1.1425 -0.8683
18101TIP3    H275719   2.939   2.621   4.615  0.0232  0.4419  0.9856
18102TIP3   OH275720   3.153   0.037  16.397  0.0886  0.3381 -0.1772
18102TIP3    H175721   3.216   0.074  16.459 -0.3148  1.2227 -0.2865
18102TIP3    H275722   3.075   0.090  16.407 -0.4373 -0.3586 -0.4960
18103TIP3   OH275723   2.193   2.453   1.715  0.3385  0.3657  0.1008
18103TIP3    H175724   2.127   2.415   1.773 -0.4691 -2.6780 -2.4966
18103TIP3    H275725   2.271   2.399   1.730  0.9664  1.2697  0.1861
18104TIP3   OH275726   6.382   2.299   5.131  0.0989  0.3136  0.5010
18104TIP3    H175727   6.416   2.334   5.213  0.3060  1.3616 -0.0110
18104TIP3    H275728   6.418   2.210   5.126  2.1888  1.1103  0.3551
18105TIP3   OH275729   1.481   4.580  12.322 -0.2048  0.2667  0.3160
18105TIP3    H175730   1.561   4.595  12.271  0.0934  2.8294  1.3876
18105TIP3    H275731   1.410   4.599  12.260  0.0079 -1.0593 -0.3644
18106TIP3   OH275732   1.489   1.827  14.839  0.2092 -0.1925  0.3875
18106TIP3    H175733   1.448   1.774  14.771 -1.2096  1.3539 -0.0369
18106TIP3    H275734   1.496   1.768  14.914  0.6751 -1.5765 -0.6937
18107TIP3   OH275735   3.427   2.038   2.012 -0.0580 -0.1288  0.2380
18107TIP3    H175736   3.477   2.078   1.941  1.5227  0.9049  1.8446
18107TIP3    H275737   3.336   2.044   1.983  0.4756  0.8872 -1.3933
18108TIP3   OH275738   2.377   1.501   1.303  0.2137 -1.0405 -0.3282
18108TIP3    H175739   2.304   1.559   1.326  0.3061 -0.9536 -0.2561
18108TIP3    H275740   2.412   1.472   1.387  0.3527 -0.9685 -0.3605
18109TIP3   OH275741   3.219   2.526  16.083  0.5593  0.7731  0.0206
18109TIP3    H175742   3.284   2.480  16.030 -1.4243 -1.5980 -0.5126
18109TIP3    H275743   3.142   2.470  16.081 -1.5852  3.4876  0.5507
18110TIP3   OH275744   0.940   6.205   5.086  0.0865 -0.5305  0.2846
18110TIP3    H175745   0.988   6.128   5.055  1.3265  0.1389  0.4762
18110TIP3    H275746   0.956   6.208   5.180  0.6110  0.3187  0.1852
18111TIP3   OH275747   5.899   3.482  16.395 -0.2967  0.1077  0.1030
18111TIP3    H175748   5.984   3.454  16.361 -0.7776  0.5743 -1.5608
18111TIP3    H275749   5.891   3.573  16.367 -0.8539  0.4281  1.2569
18112TIP3   OH275750   5.202   6.356  11.736 -0.2948  0.6580  0.8856
18112TIP3    H175751   5.269   6.356  11.804 -0.6239  0.3995  1.2175
18112TIP3    H275752   5.153   6.275  11.752 -1.4465  1.4389  1.4083
18113TIP3   OH275753   2.804   3.683   3.760 -0.5521 -0.1171 -0.4937
18113TIP3    H175754   2.770   3.750   3.701  2.0152  0.8490 -0.9973
18113TIP3    H275755   2.882   3.722   3.798  0.2364 -2.3113  0.2777
18114TIP3   OH275756   1.758   0.972  12.129  0.4650 -0.2468 -0.1145
18114TIP3    H175757   1.749   1.020  12.046  0.4278  1.3130  0.7557
18114TIP3    H275758   1.699   0.897  12.120  1.4805 -0.8917 -2.0206
18115TIP3   OH275759   3.760   6.271  11.904  0.1199  0.2817 -0.5327
18115TIP3    H175760   3.798   6.301  11.986 -0.3689  0.2205 -0.2780
18115TIP3    H275761   3.754   6.176  11.914 -2.7615  0.4775  0.6443
18116TIP3   OH275762   2.987   2.497  12.128 -0.6194 -0.3492 -0.1083
18116TIP3    H175763   3.039   2.450  12.192 -1.1838 -0.7830  0.0370
18116TIP3    H275764   2.896   2.477  12.150 -0.8335 -0.2127 -0.8183
18117TIP3   OH275765   0.629   0.830   1.069  0.6707 -0.6924 -0.6171
18117TIP3    H175766   0.685   0.890   1.118  0.2325 -1.2504  0.6151
18117TIP3    H275767   0.548   0.826   1.120  0.5413 -2.0089 -0.8875
18118TIP3   OH275768   4.085   0.283   1.431 -0.2197  0.1390  0.0566
18118TIP3    H175769   4.097   0.378   1.434 -3.5848  0.7212 -0.6541
18118TIP3    H275770   4.103   0.260   1.339  1.2735 -0.0890  0.3784
18119TIP3   OH275771   5.781   0.426  12.123  0.2929  0.0651  0.2595
18119TIP3    H175772   5.754   0.348  12.074 -0.4170  0.9314 -0.7787
18119TIP3    H275773   5.855   0.462  12.073 -1.5173  1.9262 -1.2808
18120TIP3   OH275774   1.241   5.612  11.401  0.6816  0.3660 -0.1289
18120TIP3    H175775   1.308   5.674  11.373  0.0104  0.9858 -0.4026
18120TIP3    H275776   1.167   5.667  11.426  1.1822 -0.1229  2.8152
18121TIP3   OH275777   0.490   1.790  16.305 -0.1653  0.1464  0.0841
18121TIP3    H175778   0.472   1.884  16.301  0.6189  0.2662 -2.7805
18121TIP3    H275779   0.508   1.765  16.214  2.3713 -2.2179  1.0900
18122TIP3   OH275780   1.617   0.498   2.326 -0.4735 -0.3417  0.2785
18122TIP3    H175781   1.680   0.475   2.258 -0.4097 -2.1481  0.8904
18122TIP3    H275782   1.636   0.589   2.347  2.4348 -1.0179  0.9533
18123TIP3   OH275783   0.684   5.105  16.282 -0.2716  0.2159 -0.0786
18123TIP3    H175784   0.670   5.021  16.239 -1.5150  0.3212  0.0857
18123TIP3    H275785   0.724   5.083  16.366 -2.4177 -0.3913  0.8287
18124TIP3   OH275786   6.496   0.372   1.831 -0.1444 -0.6429 -0.0892
18124TIP3    H175787   6.510   0.351   1.739 -4.4676  1.2112 -1.4793
18124TIP3    H275788   6.401   0.369   1.842  0.1519 -0.8876  4.4301
18125TIP3   OH275789   3.632   5.094   0.785  0.3690 -0.5046 -0.2014
18125TIP3    H175790   3.706   5.151   0.807  0.2245 -1.2433  2.6600
18125TIP3    H275791   3.555   5.152   0.790  0.5270 -0.2141 -0.9665
18126TIP3   OH275792   4.819   5.183  16.606  0.6942 -0.2547 -0.3465
18126TIP3    H175793   4.793   5.092  16.589 -2.3121  0.3072  0.6851
18126TIP3    H275794   4.859   5.180  16.693  3.1140 -0.9098 -1.3843
18127TIP3   OH275795   4.618   2.040  13.934  0.4110 -0.1655 -0.5460
18127TIP3    H175796   4.570   2.092  13.999 -0.1193  1.5706 -2.2219
18127TIP3    H275797   4.551   2.003  13.878  0.8799 -1.3793 -0.3448
18128TIP3   OH275798   3.101   6.061   3.525 -0.0760 -0.4055 -0.3839
18128TIP3    H175799   3.088   6.097   3.613 -1.3967 -0.1278 -0.6736
18128TIP3    H275800   3.196   6.055   3.516  0.1385  1.2766  0.3800
18129TIP3   OH275801   1.686   6.014   0.959 -0.5386  0.0510 -0.2935
18129TIP3    H175802   1.712   6.080   0.895 -0.9011 -1.0038 -1.5839
18129TIP3    H275803   1.657   6.064   1.035  1.7377  1.3258 -0.1669
18130TIP3   OH275804   0.477   2.071  13.910 -0.7085 -0.2936  0.1967
18130TIP3    H175805   0.422   2.149  13.916 -0.5811 -0.2844  1.7286
18130TIP3    H275806   0.556   2.100  13.865 -1.7719 -0.2249 -1.7293
18131TIP3   OH275807   4.203   6.131   4.570 -0.9242 -0.1875  0.0729
18131TIP3    H175808   4.161   6.217   4.573  1.3837  1.0696 -0.9713
18131TIP3    H275809   4.253   6.132   4.489  2.1984 -0.9720  1.8377
18132TIP3   OH275810   4.295   6.198   2.390  0.4334  0.6407 -0.1004
18132TIP3    H175811   4.318   6.212   2.298  0.0043 -1.2406 -0.5392
18132TIP3    H275812   4.348   6.261   2.438 -0.2307  2.5206 -1.6968
18133TIP3   OH275813   3.615   1.800  13.908 -0.0991 -0.3631 -0.4867
18133TIP3    H175814   3.598   1.838  13.822  2.0818 -0.8215 -1.1725
18133TIP3    H275815   3.618   1.706  13.892 -0.2491 -0.4895  0.2060
18134TIP3   OH275816   4.685   0.067   4.796  0.3669 -0.2478 -0.5025
18134TIP3    H175817   4.622   0.129   4.759 -2.1633 -1.4731  1.4630
18134TIP3    H275818   4.715   0.015   4.721 -1.2164  0.1489 -1.4515
18135TIP3   OH275819   0.621   2.642  15.123 -0.3986 -0.5327  0.2337
18135TIP3    H175820   0.599   2.612  15.211  1.6400 -0.0491  0.9641
18135TIP3    H275821   0.706   2.602  15.105 -0.7014 -0.4882 -1.4679
18136TIP3   OH275822   4.899   1.022  15.400 -0.2321 -0.2190 -0.0523
18136TIP3    H175823   4.857   0.936  15.391 -0.5178  0.1085 -2.3086
18136TIP3    H275824   4.979   1.004  15.449 -1.5507 -1.3016  1.8801
18137TIP3   OH275825   1.781   1.055   1.717  0.1506 -0.5093  0.3366
18137TIP3    H175826   1.783   1.110   1.638 -1.2030  1.0103  1.2737
18137TIP3    H275827   1.728   1.106   1.779 -1.2552 -2.9215  1.2561
18138TIP3   OH275828   2.639   2.863  13.121 -0.5310  0.3378 -0.5604
18138TIP3    H175829   2.547   2.884  13.134 -0.9889 -1.9494  0.1768
18138TIP3    H275830   2.685   2.922  13.182 -1.7069 -0.3874  1.1067
18139TIP3   OH275831   2.173   5.482   2.350  0.1865  0.1771  0.6839
18139TIP3    H175832   2.128   5.525   2.278 -1.2659 -0.2147  1.3184
18139TIP3    H275833   2.163   5.388   2.332  1.8399  0.0687  0.2025
18140TIP3   OH275834   2.974   5.596   4.454  0.3399 -0.0155  0.6783
18140TIP3    H175835   2.897   5.599   4.511 -0.0640 -1.5509  0.2505
18140TIP3    H275836   2.966   5.513   4.407  2.8934 -0.8247  1.5257
18141TIP3   OH275837   2.505   1.894  14.158  0.3784  0.4591 -0.2175
18141TIP3    H175838   2.507   1.829  14.089  1.8352  0.3123 -0.0725
18141TIP3    H275839   2.586   1.945  14.146  0.2856  0.9098  0.9037
18142TIP3   OH275840   6.218   2.412   0.601 -0.6132  0.2177 -0.2937
18142TIP3    H175841   6.182   2.352   0.667 -0.0066  1.1673  0.9411
18142TIP3    H275842   6.313   2.395   0.602 -0.4998  0.8153 -0.3138
18143TIP3   OH275843   1.714   0.101  12.330  0.1066  0.0378 -0.0391
18143TIP3    H175844   1.783   0.126  12.268 -1.1897  1.6399 -0.9307
18143TIP3    H275845   1.683   0.016  12.298  0.5407  0.0955 -0.6383
18144TIP3   OH275846   0.506   4.758  15.134 -0.1953  0.1347  0.1608
18144TIP3    H175847   0.564   4.834  15.130  0.2191 -0.2330 -2.5141
18144TIP3    H275848   0.566   4.683  15.133 -0.6651 -0.2449  0.1604
18145TIP3   OH275849   2.580   2.367   5.540  0.3382 -0.1930 -0.1794
18145TIP3    H175850   2.609   2.370   5.449  3.0179 -0.2237  0.6009
18145TIP3    H275851   2.568   2.458   5.565 -1.3750 -0.2074 -0.7739
18146TIP3   OH275852   3.373   6.039   3.468 -0.0963  0.8442  0.1269
18146TIP3    H175853   3.462   6.006   3.456 -0.5971  0.0843 -2.0281
18146TIP3    H275854   3.384   6.121   3.516  1.7554  0.7320 -0.0269
18147TIP3   OH275855   3.407   0.551   2.797 -0.0102 -0.4233  0.2306
18147TIP3    H175856   3.454   0.482   2.751  1.0276  0.8421 -0.6623
18147TIP3    H275857   3.471   0.586   2.860 -0.2333  0.3016  0.0660
18148TIP3   OH275858   2.523   0.710  13.276 -0.3209  0.2724 -0.6615
18148TIP3    H175859   2.445   0.710  13.221 -1.1753 -0.4117  0.5155
18148TIP3    H275860   2.497   0.664  13.356  1.7857 -1.6531 -0.9510
18149TIP3   OH275861   0.728   3.365   6.359 -0.2054  0.0940  0.4697
18149TIP3    H175862   0.777   3.387   6.279 -0.8927  0.1795  0.0699
18149TIP3    H275863   0.698   3.449   6.393 -0.6146 -0.0143  0.3720
18150TIP3   OH275864   4.022   6.682  13.470 -0.3675  0.2510 -0.2643
18150TIP3    H175865   4.085   6.627  13.424  0.5382  1.7410 -0.8917
18150TIP3    H275866   4.036   6.662  13.562  1.2268  0.7166 -0.3743
18151TIP3   OH275867   4.286   4.971   0.480 -0.1004  0.3491  0.2417
18151TIP3    H175868   4.224   4.961   0.552 -0.9376 -0.9567 -0.6265
18151TIP3    H275869   4.352   5.031   0.514 -0.2929 -0.4873  2.2223
18152TIP3   OH275870   0.163   0.652  15.461 -0.0647  0.2986  0.7893
18152TIP3    H175871   0.088   0.710  15.443  1.1203  1.4989 -0.5314
18152TIP3    H275872   0.238   0.711  15.461  0.8606 -0.8456  2.4121
18153TIP3   OH275873   6.765   6.313  13.905  0.2219 -0.2473 -0.3563
18153TIP3    H175874   6.801   6.392  13.865  2.8104 -0.2985  1.6353
18153TIP3    H275875   6.672   6.333  13.916  0.4708  1.8232 -1.4468
18154TIP3   OH275876   0.330   5.111   1.024 -0.4932 -0.1753 -0.0882
18154TIP3    H175877   0.392   5.177   1.055 -0.9757 -0.1350  0.8215
18154TIP3    H275878   0.251   5.126   1.076 -1.4656  0.1204 -1.6046
18155TIP3   OH275879   6.545   6.636   2.203  0.0138 -0.1176 -0.5163
18155TIP3    H175880   6.582   6.684   2.129  1.9556 -0.0088  0.4416
18155TIP3    H275881   6.574   6.685   2.280 -2.3293  0.0355  0.3610
18156TIP3   OH275882   3.543   1.865   0.187  0.5835 -0.0217  0.3455
18156TIP3    H175883   3.520   1.880   0.278 -1.8313  1.5016 -0.4421
18156TIP3    H275884   3.462   1.880   0.138  2.1985  1.1104 -2.2251
18157TIP3   OH275885   1.425   0.161  14.243  0.5984  0.2628 -0.1506
18157TIP3    H175886   1.332   0.184  14.243 -0.0258 -1.9186 -1.8105
18157TIP3    H275887   1.438   0.114  14.326  0.1812  0.4465  0.0214
18158TIP3   OH275888   4.874   0.727  12.361  0.1554  0.0853 -0.6279
18158TIP3    H175889   4.789   0.749  12.322 -0.8852 -1.8810  0.3216
18158TIP3    H275890   4.851   0.677  12.440  2.2032  0.6593  0.3911
18159TIP3   OH275891   4.767   6.796  12.301 -0.9231 -0.1854  0.5719
18159TIP3    H175892   4.838   6.733  12.316 -2.2569 -1.9428 -0.1753
18159TIP3    H275893   4.733   6.815  12.388  0.4732  0.7571  0.9547
18160TIP3   OH275894   5.490   3.668  11.358 -0.0228 -0.6471 -0.4329
18160TIP3    H175895   5.469   3.756  11.325 -3.2466 -0.5905  1.3453
18160TIP3    H275896   5.431   3.611  11.309  0.0420 -1.4291  0.3861
18161TIP3   OH275897   2.030   3.302  12.317  0.0761  0.3978  0.2914
18161TIP3    H175898   2.062   3.219  12.351  1.0754  0.5878 -0.1534
18161TIP3    H275899   2.097   3.366  12.341 -1.5349  1.4584  2.2594
18162TIP3   OH275900   3.960   5.528  15.134  0.0850 -0.4400  0.1888
18162TIP3    H175901   3.972   5.434  15.120 -0.1460 -0.3600 -0.5977
18162TIP3    H275902   4.036   5.569  15.091 -1.6988 -0.0643 -2.8368
18163TIP3   OH275903   0.785   0.361  12.956  0.2460 -0.1653  0.3111
18163TIP3    H175904   0.854   0.364  12.890 -0.7899  1.6146 -0.7525
18163TIP3    H275905   0.798   0.439  13.009 -0.8648  0.1205  0.1824
18164TIP3   OH275906   1.986   3.943   4.582 -0.1810  0.7616  0.0209
18164TIP3    H175907   2.004   4.037   4.575  1.5727  0.3782 -2.0123
18164TIP3    H275908   1.984   3.913   4.491 -1.1641 -1.1074  0.6110
18165TIP3   OH275909   6.285   4.259   3.280 -0.3450 -0.2231 -0.0568
18165TIP3    H175910   6.263   4.309   3.201  0.2255 -0.6067 -0.4607
18165TIP3    H275911   6.258   4.316   3.352 -3.0922 -0.8168 -0.4906
18166TIP3   OH275912   5.476   6.433  12.840  0.2726  0.0622 -0.0210
18166TIP3    H175913   5.384   6.419  12.817  0.3340  0.7590 -0.7687
18166TIP3    H275914   5.480   6.526  12.865  0.4283 -0.4191  1.8222
18167TIP3   OH275915   6.336   1.400   3.218 -0.5783 -0.1402  0.1954
18167TIP3    H175916   6.391   1.420   3.294 -1.9808  1.9918  0.7553
18167TIP3    H275917   6.370   1.456   3.148 -1.5067  0.6631  0.3492
18168TIP3   OH275918   3.826   1.512   2.104  0.3106  0.5856 -0.1698
18168TIP3    H175919   3.824   1.453   2.180 -0.0939 -0.2862 -0.8414
18168TIP3    H275920   3.910   1.558   2.112  0.9858 -0.6205 -0.0281
18169TIP3   OH275921   4.194   5.119   5.412  0.5466 -0.2099  0.2101
18169TIP3    H175922   4.108   5.160   5.418  0.0341 -1.0094 -1.1523
18169TIP3    H275923   4.229   5.149   5.328  1.4905 -0.0973  0.6386
18170TIP3   OH275924   3.469   4.578   2.690 -0.4235 -0.0171  0.5209
18170TIP3    H175925   3.515   4.553   2.609 -3.6351 -0.3667 -1.3726
18170TIP3    H275926   3.469   4.673   2.689  0.2754 -0.0115  0.5787
18171TIP3   OH275927   4.212   0.161  13.236 -0.1240  0.2995 -0.0135
18171TIP3    H175928   4.229   0.080  13.187 -1.9455  0.9219 -1.8077
18171TIP3    H275929   4.130   0.194  13.199 -0.5110  1.8956  2.1265
18172TIP3   OH275930   2.158   3.986   6.515  0.1949 -0.4098  0.8133
18172TIP3    H175931   2.070   4.025   6.510  0.2794 -0.2634  0.3448
18172TIP3    H275932   2.145   3.902   6.558 -0.3387 -0.8446 -0.1710
18173TIP3   OH275933   3.121   6.719  14.516 -0.5042  0.1595  1.1044
18173TIP3    H175934   3.140   6.810  14.497  0.4333  0.3213  2.6378
18173TIP3    H275935   3.111   6.677  14.431  0.5908  1.3746  0.3614
18174TIP3   OH275936   5.605   4.215  11.449  0.4410  0.1311 -0.1159
18174TIP3    H175937   5.665   4.200  11.376  0.1809  0.4745 -0.4031
18174TIP3    H275938   5.524   4.244  11.408 -0.2811 -1.3485  0.2041
18175TIP3   OH275939   5.533   5.782   6.211  0.5822  1.0518  0.0325
18175TIP3    H175940   5.463   5.738   6.258  0.0736  0.2560 -1.4112
18175TIP3    H275941   5.492   5.810   6.128  1.6380  1.7188 -0.2833
18176TIP3   OH275942   3.047   0.735  15.930 -0.6031 -0.0860 -0.5622
18176TIP3    H175943   3.023   0.827  15.925 -0.3884  0.0607  0.7702
18176TIP3    H275944   3.131   0.734  15.976  0.0113 -0.8706 -1.6468
18177TIP3   OH275945   0.897   4.689   4.952 -0.6536 -0.2058 -0.0891
18177TIP3    H175946   0.937   4.769   4.987  0.6605 -0.4891 -0.8451
18177TIP3    H275947   0.814   4.718   4.914  0.1907  0.9757 -1.1243
18178TIP3   OH275948   2.878   1.170  12.830 -0.2687  0.5897  0.3441
18178TIP3    H175949   2.955   1.177  12.773 -0.5843 -1.1662 -0.3804
18178TIP3    H275950   2.805   1.158  12.769 -1.0962  1.9257  1.0341
18179TIP3   OH275951   0.338   5.017   3.053 -0.1612  0.0213  0.3902
18179TIP3    H175952   0.355   5.041   2.962  0.5326 -0.0144  0.5046
18179TIP3    H275953   0.425   5.014   3.094 -0.5016  0.6911  1.2144
18180TIP3   OH275954   6.661   4.646  14.290 -0.1413 -0.4870 -0.2858
18180TIP3    H175955   6.581   4.615  14.248 -0.5684  0.6473 -0.3359
18180TIP3    H275956   6.690   4.720  14.237  0.0819  0.0780  0.5891
18181TIP3   OH275957   3.297   1.494   0.137 -0.1550 -0.5365 -0.3137
18181TIP3    H175958   3.311   1.464   0.227 -1.0182 -0.6440 -0.2137
18181TIP3    H275959   3.359   1.442   0.085 -0.4169 -1.2583  0.0811
18182TIP3   OH275960   2.022   1.650   3.539 -0.8095 -0.7928 -0.1094
18182TIP3    H175961   2.110   1.617   3.554 -0.9656 -0.5027  1.7603
18182TIP3    H275962   1.970   1.572   3.519 -0.5920 -1.3223  1.2738
18183TIP3   OH275963   0.486   4.257  11.866  0.5951  0.2864  0.2966
18183TIP3    H175964   0.454   4.330  11.812 -1.4756 -0.4192  0.4893
18183TIP3    H275965   0.581   4.257  11.853  0.3210  1.0780 -2.1582
18184TIP3   OH275966   4.133   3.893  16.427 -0.6336 -0.8017  0.1539
18184TIP3    H175967   4.177   3.811  16.445  1.4551  0.5466  1.6445
18184TIP3    H275968   4.195   3.961  16.455 -2.0182  1.3143 -1.5155
18185TIP3   OH275969   5.517   2.383   0.876  0.1904 -0.3459  0.3045
18185TIP3    H175970   5.606   2.348   0.883  0.0494 -0.7634  0.0611
18185TIP3    H275971   5.515   2.427   0.791  0.1640 -0.3388  0.3088
18186TIP3   OH275972   4.344   5.150  14.815  0.3480 -0.4868  0.1740
18186TIP3    H175973   4.388   5.066  14.832  1.0049 -0.1599  0.1366
18186TIP3    H275974   4.251   5.130  14.822  0.5135 -0.9066  1.6919
18187TIP3   OH275975   5.016   3.758   6.484  0.1625 -0.5345  0.0434
18187TIP3    H175976   5.045   3.843   6.451 -0.9762  0.4434  1.4599
18187TIP3    H275977   4.968   3.719   6.411 -1.5073  1.1636  0.1813
18188TIP3   OH275978   2.120   1.992   3.977  0.0669  0.4065 -0.1598
18188TIP3    H175979   2.048   1.988   3.914 -1.8657  3.3310  1.6411
18188TIP3    H275980   2.090   1.939   4.051  1.1818 -0.8553 -0.5678
18189TIP3   OH275981   1.328   2.490  13.795  0.1894  0.5684 -0.2166
18189TIP3    H175982   1.248   2.439  13.783  0.0497  0.5331  0.7977
18189TIP3    H275983   1.334   2.543  13.715 -1.8964  1.9855  0.4850
18190TIP3   OH275984   4.525   4.843   5.872 -0.3430  0.2663  0.0481
18190TIP3    H175985   4.555   4.770   5.818  0.1826  1.2150 -0.9819
18190TIP3    H275986   4.433   4.853   5.848 -1.1049 -1.5115  1.9150
18191TIP3   OH275987   1.477   1.046  14.947  0.0983  0.4357 -0.0956
18191TIP3    H175988   1.404   1.010  14.999 -0.9507  1.7504 -0.5902
18191TIP3    H275989   1.483   0.988  14.871  0.2930 -0.2965  0.4545
18192TIP3   OH275990   1.226   1.784   4.753 -0.2177 -0.2693 -0.8661
18192TIP3    H175991   1.232   1.879   4.743  1.2407 -0.3382 -0.8729
18192TIP3    H275992   1.289   1.764   4.823  0.8256 -1.4151 -2.0926
18193TIP3   OH275993   6.382   0.423  16.706  0.0409 -0.6106  0.3275
18193TIP3    H175994   6.411   0.512  16.685 -0.0980 -0.4900  0.6353
18193TIP3    H275995   6.387   0.376  16.623  0.3612 -0.3831  0.2141
18194TIP3   OH275996   0.229   0.381  12.967 -0.2215  0.6205  0.3546
18194TIP3    H175997   0.307   0.353  12.919  0.9642  1.5316  1.6784
18194TIP3    H275998   0.255   0.378  13.059 -0.6360  4.0672  0.6841
18195TIP3   OH275999   0.549   3.913  15.342  0.0378 -0.4843  0.3538
18195TIP3    H176000   0.634   3.884  15.374  0.6379 -0.4846 -1.1897
18195TIP3    H276001   0.487   3.849  15.378  0.5255  0.0956  2.3309
18196TIP3   OH276002   2.783   5.064  14.930 -0.5023 -1.1121  0.7286
18196TIP3    H176003   2.866   5.029  14.899 -0.4424  0.9991 -1.8640
18196TIP3    H276004   2.716   5.013  14.884 -0.4343  0.9436 -1.8877
18197TIP3   OH276005   0.038   3.868  15.079  0.0533 -0.6697 -0.1096
18197TIP3    H176006  -0.048   3.831  15.098  0.0962 -0.6554  0.1145
18197TIP3    H276007   0.023   3.927  15.005 -0.2502 -0.1883  0.3243
18198TIP3   OH276008   4.074   1.685   4.045  0.0358 -0.2662 -0.2766
18198TIP3    H176009   4.116   1.673   4.130 -0.2945  2.5983  0.3648
18198TIP3    H276010   4.145   1.712   3.987  0.2419 -2.1188 -0.9719
18199TIP3   OH276011   3.995   0.030  10.539  0.4762  0.6242 -0.3718
18199TIP3    H176012   3.919   0.012  10.594  0.1299  0.3025 -0.9492
18199TIP3    H276013   4.027   0.115  10.571  0.4593  0.3133  0.5117
18200TIP3   OH276014   4.066   5.105  16.210  0.3392 -0.0739  0.5481
18200TIP3    H176015   4.075   5.199  16.191  1.7403 -0.1862  0.5351
18200TIP3    H276016   4.123   5.062  16.146 -0.3861 -0.9531  0.4773
18201TIP3   OH276017   0.278   5.717  17.035 -0.7696 -0.1352  0.3260
18201TIP3    H176018   0.321   5.759  16.961 -0.1275 -0.0117  0.7580
18201TIP3    H276019   0.280   5.783  17.105 -1.0470 -0.3776  0.5678
18202TIP3   OH276020   5.455   2.877   0.376  0.0616  0.1978 -0.4488
18202TIP3    H176021   5.459   2.792   0.333  0.3053 -0.0925  0.1389
18202TIP3    H276022   5.497   2.937   0.315 -0.2940 -0.0646 -0.9561
18203TIP3   OH276023   0.041   5.094   1.599 -0.5631 -0.2062  0.0517
18203TIP3    H176024   0.075   5.157   1.536  0.2926 -1.0982 -0.4141
18203TIP3    H276025  -0.035   5.137   1.638 -1.4412  0.1765 -1.9601
18204TIP3   OH276026   0.990   1.748  15.418  0.9467  1.0112 -0.5194
18204TIP3    H176027   0.943   1.673  15.380 -1.3201  1.8312  0.4526
18204TIP3    H276028   1.057   1.708  15.474 -0.9314 -0.4256  0.8809
18205TIP3   OH276029   4.931   5.977  11.595  0.5404 -0.4634 -0.1438
18205TIP3    H176030   4.934   5.948  11.504 -0.2212  0.8894 -0.6315
18205TIP3    H276031   4.879   6.057  11.593 -0.5147 -1.0400  1.6722
18206TIP3   OH276032   3.021   2.121   2.088 -0.2198 -0.0145 -0.1860
18206TIP3    H176033   3.109   2.118   2.125 -0.2414 -1.0056 -0.1812
18206TIP3    H276034   2.963   2.111   2.164 -0.3282  0.2931 -0.2270
18207TIP3   OH276035   0.484   2.910  11.782 -0.0751  0.1617  0.2088
18207TIP3    H176036   0.445   2.946  11.702  0.6307 -0.1043 -0.2619
18207TIP3    H276037   0.440   2.826  11.794 -0.4248  0.3561  0.2892
18208TIP3   OH276038   4.287   0.632  15.406 -0.3213 -0.7224  0.7493
18208TIP3    H176039   4.235   0.562  15.366  0.8307 -1.7244  0.9340
18208TIP3    H276040   4.349   0.586  15.463 -0.7402  0.5703  2.3121
18209TIP3   OH276041   3.077   0.030   2.358  0.0295 -0.0108 -0.0875
18209TIP3    H176042   3.046  -0.019   2.434  0.7568 -0.0231  0.2115
18209TIP3    H276043   3.003   0.085   2.334 -0.4379 -0.4905  0.2177
18210TIP3   OH276044   6.569   2.168   3.751 -0.1068  0.3116 -0.2394
18210TIP3    H176045   6.576   2.139   3.842 -1.4372  1.8730  0.4139
18210TIP3    H276046   6.609   2.098   3.700 -0.7991 -1.3719  1.4288
18211TIP3   OH276047   2.338   1.142   2.844 -0.0379 -0.0815 -0.3311
18211TIP3    H176048   2.378   1.212   2.792 -2.2242 -0.1240 -2.1811
18211TIP3    H276049   2.385   1.063   2.817 -1.0124 -0.0766 -2.2157
18212TIP3   OH276050   2.361   4.210  16.868  0.2875  0.5508  0.5984
18212TIP3    H176051   2.434   4.211  16.930  1.2020 -0.7506 -0.3745
18212TIP3    H276052   2.342   4.117  16.856  1.5467  0.5650 -2.5503
18213TIP3   OH276053   1.037   1.970   2.528 -0.0276  0.2255  0.3061
18213TIP3    H176054   0.992   1.988   2.610  0.7325  0.6939  0.6291
18213TIP3    H276055   1.126   2.002   2.542  0.4165 -0.6914 -0.3099
18214TIP3   OH276056   5.841   0.382   3.782  0.3835 -0.0374 -0.4029
18214TIP3    H176057   5.771   0.428   3.827  1.6627  0.9239  0.6967
18214TIP3    H276058   5.860   0.436   3.705  1.7704  1.2970  0.7977
18215TIP3   OH276059   5.719   2.987  13.983 -0.0872 -0.0819  0.4249
18215TIP3    H176060   5.665   3.011  14.058 -0.4579 -0.5953  0.3368
18215TIP3    H276061   5.686   3.041  13.911  0.6692  0.8450  0.7610
18216TIP3   OH276062   6.699   1.037   5.123  0.1569 -0.1043 -0.3019
18216TIP3    H176063   6.618   1.072   5.162  1.0344  1.6458  0.0305
18216TIP3    H276064   6.754   1.016   5.198 -0.0158 -1.4831 -0.5245
18217TIP3   OH276065   4.381   4.777  15.794  0.7371  0.7584 -0.0689
18217TIP3    H176066   4.437   4.720  15.740  3.0516  0.2618  2.6109
18217TIP3    H276067   4.292   4.747  15.775  1.7776 -3.5972  0.8184
18218TIP3   OH276068   2.775   4.755  13.640 -0.0567 -0.1801 -0.1760
18218TIP3    H176069   2.803   4.678  13.590 -1.4143 -1.1974  0.5700
18218TIP3    H276070   2.696   4.785  13.595 -0.4252 -0.1911  0.4586
18219TIP3   OH276071   4.007   5.707   0.196  0.2312 -0.1405 -0.2357
18219TIP3    H176072   3.940   5.771   0.172 -0.8296 -0.8608  0.7258
18219TIP3    H276073   4.086   5.759   0.209 -0.0559  0.6988 -1.6095
18220TIP3   OH276074   2.492   1.181  16.182  0.1706 -0.0683 -0.3331
18220TIP3    H176075   2.409   1.151  16.146 -0.7888  0.3142  1.4406
18220TIP3    H276076   2.535   1.102  16.214 -0.9018  0.0091  1.4295
18221TIP3   OH276077   5.676   4.078  13.571 -0.4032 -0.3107 -0.2679
18221TIP3    H176078   5.726   4.120  13.640 -1.2783  1.0081 -0.3960
18221TIP3    H276079   5.742   4.038  13.514  0.3670 -0.6235  0.8069
18222TIP3   OH276080   3.886   2.693   2.808  0.4139  0.1364  0.8404
18222TIP3    H176081   3.946   2.622   2.832  2.1320  1.2996  0.2006
18222TIP3    H276082   3.857   2.729   2.892  1.6664  0.3656  1.2022
18223TIP3   OH276083   4.248   5.236   5.184 -0.1708  0.5204  0.4722
18223TIP3    H176084   4.215   5.318   5.221 -1.3277 -0.0149  0.6402
18223TIP3    H276085   4.179   5.206   5.125  1.1517  0.7490 -1.2850
18224TIP3   OH276086   1.856   3.317  12.998  0.6835 -0.1165  0.0930
18224TIP3    H176087   1.930   3.331  12.940 -0.3400 -0.1287 -1.2576
18224TIP3    H276088   1.797   3.390  12.981  0.6760  0.3004  1.6834
18225TIP3   OH276089   1.163   0.420   4.047 -0.2846  0.2127 -0.5517
18225TIP3    H176090   1.106   0.402   4.121  1.1404 -1.0246  0.3018
18225TIP3    H276091   1.132   0.361   3.978 -0.9167  0.5722 -0.5798
18226TIP3   OH276092   2.798   0.993  15.382 -1.2893 -0.2745 -0.4075
18226TIP3    H176093   2.739   0.922  15.405  0.3335 -1.6581 -0.3276
18226TIP3    H276094   2.793   0.999  15.287 -0.7274 -1.1377 -0.4935
18227TIP3   OH276095   5.374   0.294  10.899  0.2234  0.2022  0.0022
18227TIP3    H176096   5.341   0.383  10.912  0.1634  0.2725 -0.6230
18227TIP3    H276097   5.329   0.263  10.820 -0.7494 -0.8588  0.9320
18228TIP3   OH276098   2.860   3.202  14.824 -0.7096 -0.1401  0.5757
18228TIP3    H176099   2.885   3.129  14.768 -0.9867  1.5873 -1.9591
18228TIP3    H276100   2.822   3.161  14.901  0.4818 -2.6570 -0.0626
18229TIP3   OH276101   1.323   2.186  11.373 -0.1729 -0.3850 -0.1169
18229TIP3    H176102   1.228   2.186  11.384 -0.1710  1.4142  0.1247
18229TIP3    H276103   1.337   2.142  11.289 -1.2423 -0.4126 -0.2969
18230TIP3   OH276104   2.174   0.120  12.470  0.3829 -0.2704 -0.2251
18230TIP3    H176105   2.084   0.152  12.464  0.4907  0.3812  1.3507
18230TIP3    H276106   2.171   0.052  12.537  0.9808 -0.5902 -0.5142
18231TIP3   OH276107   2.361   2.676   0.244 -0.3026  0.5180  0.4279
18231TIP3    H176108   2.280   2.647   0.285  0.1400  0.7877  1.5083
18231TIP3    H276109   2.411   2.596   0.230 -0.1722  0.4866  1.0446
18232TIP3   OH276110   0.910   4.710  13.419  0.1353  0.6590 -0.4995
18232TIP3    H176111   0.982   4.740  13.362  2.3212 -2.4589  0.3221
18232TIP3    H276112   0.953   4.694  13.503 -2.0582  0.6914  0.6741
18233TIP3   OH276113   0.362   5.760   2.604 -0.2725 -0.1200 -0.2406
18233TIP3    H176114   0.304   5.709   2.661 -0.8665 -0.1639 -0.8786
18233TIP3    H276115   0.303   5.811   2.549  0.2843 -0.3756 -1.0886
18234TIP3   OH276116   3.209   6.131  12.307 -0.2928 -0.4132 -0.3934
18234TIP3    H176117   3.221   6.176  12.391 -0.2418  2.2991 -1.7366
18234TIP3    H276118   3.298   6.121  12.272 -0.3940 -0.5127 -0.6251
18235TIP3   OH276119   2.925   4.390   1.268  0.0135  0.8425  0.3576
18235TIP3    H176120   2.883   4.304   1.270  0.1492  0.6338 -2.2679
18235TIP3    H276121   2.873   4.444   1.327 -1.2037 -0.5695  0.6238
18236TIP3   OH276122   3.651   2.666  12.547 -0.2357 -0.9140  0.1923
18236TIP3    H176123   3.693   2.729  12.489 -1.2409  1.5905  2.0367
18236TIP3    H276124   3.719   2.600  12.562  1.4554  0.5788 -0.5143
18237TIP3   OH276125   5.434   2.364  17.131  0.3521  0.0294  0.2517
18237TIP3    H176126   5.506   2.313  17.095 -0.0714 -0.4536  0.0838
18237TIP3    H276127   5.408   2.423  17.060  0.6867  0.3254  0.3696
18238TIP3   OH276128   3.051   0.394   3.170  0.3310  0.3597 -0.1049
18238TIP3    H176129   3.122   0.341   3.135  0.1600  0.3014 -0.3640
18238TIP3    H276130   3.040   0.363   3.260  0.8656  0.6110  0.0458
18239TIP3   OH276131   5.214   5.982  10.438 -0.2468  0.4453  0.1159
18239TIP3    H176132   5.207   6.063  10.488 -1.0372  0.7452 -0.4683
18239TIP3    H276133   5.183   5.914  10.499 -2.1391  0.9285 -0.2457
18240TIP3   OH276134   3.199   3.634   5.647  0.0675 -0.6255 -0.4855
18240TIP3    H176135   3.281   3.614   5.601 -0.7837  0.9277 -2.8385
18240TIP3    H276136   3.139   3.564   5.622  0.0922 -0.6964 -0.3489
18241TIP3   OH276137   4.296   1.328   0.208 -0.0259  0.1215  0.1001
18241TIP3    H176138   4.205   1.331   0.239 -0.8288 -3.5759 -1.4226
18241TIP3    H276139   4.345   1.287   0.279 -0.3308 -1.2299 -0.4408
18242TIP3   OH276140   2.249   6.700   1.565  0.7936  0.0075 -0.6595
18242TIP3    H176141   2.314   6.669   1.503  1.7560  1.0688 -0.2238
18242TIP3    H276142   2.264   6.795   1.570  1.2200 -0.1127  1.6843
18243TIP3   OH276143   1.932   0.477  12.048 -0.3349  0.1479  0.2225
18243TIP3    H176144   1.842   0.506  12.065 -1.1553 -2.3902  0.7126
18243TIP3    H276145   1.985   0.555  12.061 -2.2872  1.3427  1.6969
18244TIP3   OH276146   4.317   1.751   3.843 -0.5431  0.2503  0.0472
18244TIP3    H176147   4.248   1.782   3.784  0.4897 -1.8133 -2.4558
18244TIP3    H276148   4.378   1.825   3.849  0.0652  0.0963 -2.7934
18245TIP3   OH276149   3.450   0.453  12.439 -0.4032 -0.3919 -0.3069
18245TIP3    H176150   3.398   0.407  12.373 -1.2818  0.1100  0.0113
18245TIP3    H276151   3.455   0.543  12.407  0.7934 -0.5599 -0.6282
18246TIP3   OH276152   2.683   1.821   2.328  0.4217  0.3778  0.2185
18246TIP3    H176153   2.611   1.867   2.372 -0.3937 -1.0651  0.4502
18246TIP3    H276154   2.679   1.731   2.361  1.6650 -0.0068 -0.5795
18247TIP3   OH276155   6.214   2.535  16.202  0.1244  0.5301  0.1583
18247TIP3    H176156   6.149   2.486  16.151 -0.4218  1.7657 -0.3676
18247TIP3    H276157   6.163   2.579  16.270  0.5746  0.5605  0.4783
18248TIP3   OH276158   6.378   5.191   2.880 -0.1614 -0.3115  0.1839
18248TIP3    H176159   6.365   5.176   2.973  0.2111  0.2021  0.3236
18248TIP3    H276160   6.467   5.159   2.862  1.0426  2.4402  0.6880
18249TIP3   OH276161   0.585   1.180  11.770  0.3148 -0.2356 -0.4033
18249TIP3    H176162   0.653   1.217  11.827 -1.0890  2.2990 -0.2175
18249TIP3    H276163   0.631   1.156  11.690  1.5369  1.0269 -0.1205
18250TIP3   OH276164   3.497   1.119   6.112  0.2833 -0.1019  0.5507
18250TIP3    H176165   3.566   1.053   6.110 -0.1645 -0.5763  0.5456
18250TIP3    H276166   3.416   1.070   6.096  0.1018  0.6621 -1.0193
18251TIP3   OH276167   5.633   3.147   2.168 -0.1669 -0.1715 -0.2422
18251TIP3    H176168   5.728   3.151   2.172 -0.1269  0.5483 -1.4436
18251TIP3    H276169   5.614   3.072   2.111 -0.3172 -0.3704  0.0694
18252TIP3   OH276170   1.308   2.848  13.839 -0.5083  0.3215 -0.7550
18252TIP3    H176171   1.325   2.790  13.765  0.6861  1.3775 -1.3632
18252TIP3    H276172   1.226   2.893  13.818 -1.0122 -0.5413 -0.6558
18253TIP3   OH276173   3.932   3.424   0.593  0.4455  0.0146  0.0251
18253TIP3    H176174   3.878   3.381   0.659  0.1779  0.1970 -0.0711
18253TIP3    H276175   3.888   3.404   0.510  0.3303  0.4520 -0.0209
18254TIP3   OH276176   0.072   6.004   3.246  0.2651 -0.2791 -0.4172
18254TIP3    H176177   0.100   6.082   3.198  0.5134  0.1023  0.3470
18254TIP3    H276178  -0.023   6.008   3.247  0.2327 -0.5611 -1.3222
18255TIP3   OH276179   6.664   0.559  11.267 -0.6171  0.4856 -0.1999
18255TIP3    H176180   6.571   0.544  11.247 -0.9052  2.0527 -0.1500
18255TIP3    H276181   6.671   0.654  11.280  1.1223  0.4850 -0.8616
18256TIP3   OH276182   3.840   0.275  13.314  0.1161  0.2568 -0.3356
18256TIP3    H176183   3.810   0.206  13.373  2.1214 -1.3360 -1.0484
18256TIP3    H276184   3.828   0.238  13.226  1.7435  0.5400 -0.7169
18257TIP3   OH276185   4.322   5.827   5.761 -0.3748 -0.3043 -0.0794
18257TIP3    H176186   4.274   5.830   5.843  0.4050 -0.5910  0.4039
18257TIP3    H276187   4.410   5.796   5.786 -0.1593 -0.4929 -1.0302
18258TIP3   OH276188   0.193   4.126   4.741 -0.7584  0.3238 -0.4767
18258TIP3    H176189   0.197   4.195   4.807 -0.0202  0.2780 -0.4608
18258TIP3    H276190   0.261   4.064   4.768 -2.7561 -1.5063  0.6971
18259TIP3   OH276191   5.421   6.177  11.738 -0.1639 -0.4321 -0.4697
18259TIP3    H176192   5.400   6.086  11.759  1.2442 -0.8119 -0.6084
18259TIP3    H276193   5.500   6.172  11.684 -0.1381  0.8702 -0.6008
18260TIP3   OH276194   4.632   6.193  14.079 -0.2497 -0.5610  0.1653
18260TIP3    H176195   4.708   6.223  14.029 -0.3543  0.3720  0.5512
18260TIP3    H276196   4.644   6.231  14.166 -2.0639  1.1300 -0.2573
18261TIP3   OH276197   3.835   4.194   4.985  0.3236  0.3955  0.0577
18261TIP3    H176198   3.925   4.213   4.959  0.3462 -0.6693 -0.6786
18261TIP3    H276199   3.828   4.229   5.074  1.7276 -0.3114  0.4724
18262TIP3   OH276200   3.863   5.180  13.562  0.6163  0.4049  0.1104
18262TIP3    H176201   3.772   5.194  13.537  0.8983 -0.6148 -1.7125
18262TIP3    H276202   3.861   5.103  13.619  0.3919 -0.0347 -0.4815
18263TIP3   OH276203   5.757   1.722  12.457 -0.1644  0.2329  0.1337
18263TIP3    H176204   5.757   1.709  12.552 -0.1882  1.3388  0.3047
18263TIP3    H276205   5.755   1.634  12.420 -2.5514 -0.2383  1.1714
18264TIP3   OH276206   5.409   1.649  16.255 -0.7965  0.1075 -0.2889
18264TIP3    H176207   5.429   1.693  16.338  0.8602 -0.4234 -0.3694
18264TIP3    H276208   5.464   1.692  16.190 -0.9289 -0.5008 -0.8223
18265TIP3   OH276209   5.633   3.626   5.339  0.2739 -0.4830 -0.1347
18265TIP3    H176210   5.656   3.534   5.357  0.2224 -0.3681  0.5173
18265TIP3    H276211   5.637   3.632   5.243 -1.9528 -1.7547 -0.3868
18266TIP3   OH276212   0.308   5.551  15.729  0.6485  0.7028  0.4125
18266TIP3    H176213   0.321   5.456  15.730  2.6018  0.8961 -0.9448
18266TIP3    H276214   0.321   5.578  15.820 -0.4074 -0.3583  0.9005
18267TIP3   OH276215   2.858   6.371   3.789 -0.4126 -0.8098  0.4106
18267TIP3    H176216   2.914   6.371   3.712  0.0357 -0.1629  0.7185
18267TIP3    H276217   2.875   6.288   3.832 -0.1938 -0.9011  0.1483
18268TIP3   OH276218   6.027   1.963  17.024  0.6192  0.0977  0.1116
18268TIP3    H176219   6.046   1.962  16.930  0.2471 -0.1452  0.0345
18268TIP3    H276220   6.085   2.030  17.060 -0.3461  1.3454 -0.5484
18269TIP3   OH276221   1.381   5.955  11.759  0.1565 -0.3911  0.1098
18269TIP3    H176222   1.324   5.988  11.828  1.2501  0.3858  0.6859
18269TIP3    H276223   1.466   5.943  11.802  0.4521 -1.4589 -0.7298
18270TIP3   OH276224   0.655   6.259   5.655  0.2275 -0.9879  0.2678
18270TIP3    H176225   0.735   6.234   5.610  0.6494 -0.2662  0.6111
18270TIP3    H276226   0.682   6.278   5.744 -0.0423  0.8114 -0.0023
18271TIP3   OH276227   6.616   2.494   0.719 -0.1311 -0.2821  0.3164
18271TIP3    H176228   6.561   2.566   0.749 -0.8587  0.1440 -1.8360
18271TIP3    H276229   6.706   2.525   0.733 -0.4322  0.0001  1.6893
18272TIP3   OH276230   0.931   3.391  17.037  0.0481  0.3515 -0.5796
18272TIP3    H176231   0.877   3.398  17.116 -0.0373 -0.0256 -0.6051
18272TIP3    H276232   0.944   3.297  17.025 -0.3875  0.3766 -1.3132
18273TIP3   OH276233   1.127   3.069   2.491 -0.3973  0.1141 -0.0952
18273TIP3    H176234   1.093   3.014   2.420 -0.8331 -1.8107  1.4936
18273TIP3    H276235   1.067   3.143   2.496 -0.8190 -0.1383 -1.2083
18274TIP3   OH276236   2.591   3.975   5.683  0.5004  0.0051 -0.3614
18274TIP3    H176237   2.658   3.936   5.739  0.6934  1.0088  0.1332
18274TIP3    H276238   2.511   3.974   5.735  0.3376 -0.3566 -0.6112
18275TIP3   OH276239   0.214   5.343  10.658  0.1486 -0.3067  0.1309
18275TIP3    H176240   0.217   5.279  10.587 -0.6365 -0.5825  0.3331
18275TIP3    H276241   0.292   5.397  10.645  0.4026 -0.8100 -0.5061
18276TIP3   OH276242   0.781   2.167   1.925  0.0603 -0.1188 -0.4780
18276TIP3    H176243   0.689   2.159   1.898  0.4567 -1.8893 -1.4564
18276TIP3    H276244   0.825   2.201   1.847  0.3323  0.1737 -0.1983
18277TIP3   OH276245   5.031   5.606   5.488 -0.3452 -0.1631  0.7189
18277TIP3    H176246   5.084   5.652   5.423 -0.0537 -0.6909  0.5763
18277TIP3    H276247   5.084   5.607   5.568 -0.3558 -0.2150  0.7268
18278TIP3   OH276248   2.093   4.727   2.029 -0.1435  0.0022 -0.2217
18278TIP3    H176249   2.186   4.747   2.035 -0.3699  0.9797  0.4209
18278TIP3    H276250   2.050   4.813   2.032 -1.1169 -0.4976  0.8200
18279TIP3   OH276251   6.189   6.466  15.741 -0.1052  0.0879 -0.0221
18279TIP3    H176252   6.251   6.431  15.677  0.6534 -0.8597  1.1892
18279TIP3    H276253   6.165   6.552  15.707  1.5427  0.2926 -0.7504
18280TIP3   OH276254   1.560   0.866   2.045  0.3238 -0.5297 -0.2316
18280TIP3    H176255   1.594   0.842   1.959  1.1961 -2.2843  0.5469
18280TIP3    H276256   1.467   0.842   2.041  0.6630 -1.9517 -0.2690
18281TIP3   OH276257   6.601   6.126   6.463  0.1739 -0.2483  0.0736
18281TIP3    H176258   6.550   6.183   6.521 -0.1521 -1.7122  1.2835
18281TIP3    H276259   6.631   6.184   6.393 -0.9376  1.1984  0.7427
18282TIP3   OH276260   2.329   3.762   1.182  0.7531 -0.1707 -0.4418
18282TIP3    H176261   2.322   3.683   1.236 -0.3037  0.0932 -0.1645
18282TIP3    H276262   2.396   3.741   1.117 -0.5959 -1.8958 -1.3585
18283TIP3   OH276263   2.038   5.581   2.135  0.6271 -0.4676  0.3438
18283TIP3    H176264   1.972   5.544   2.076  1.0206  0.3392 -0.6443
18283TIP3    H276265   2.023   5.675   2.131  1.1433 -0.3576  0.9546
18284TIP3   OH276266   3.409   2.143  14.735  0.1652 -0.1549  0.0147
18284TIP3    H176267   3.394   2.169  14.826 -0.6095 -0.3220 -0.0552
18284TIP3    H276268   3.342   2.076  14.718  1.3771 -1.3573 -0.1684
18285TIP3   OH276269   0.560   2.473   1.816  0.0124  0.0570 -0.3793
18285TIP3    H176270   0.590   2.548   1.765 -1.2805  1.5161  0.9107
18285TIP3    H276271   0.470   2.459   1.786 -0.1557 -0.2095  0.2402
18286TIP3   OH276272   5.209   2.837   1.455 -0.1329  0.5961 -0.1703
18286TIP3    H176273   5.187   2.791   1.375 -1.2825  0.1589  0.3793
18286TIP3    H276274   5.159   2.793   1.524  0.4632  1.2523  0.7207
18287TIP3   OH276275   4.080   3.978  10.945  0.4483 -0.7605  0.4644
18287TIP3    H176276   4.111   3.905  10.892 -0.2917 -0.6745 -0.1039
18287TIP3    H276277   4.081   4.053  10.886 -0.0966 -0.5991  0.6500
18288TIP3   OH276278   6.181   1.216   1.105 -0.8318 -0.3116 -0.7995
18288TIP3    H176279   6.101   1.252   1.143 -1.1905 -1.0471 -0.8434
18288TIP3    H276280   6.172   1.121   1.115  0.8819 -0.3617  0.9039
18289TIP3   OH276281   3.949   3.780   2.007 -0.1900 -0.3401  0.0786
18289TIP3    H176282   3.874   3.720   2.015 -0.0641 -0.6067 -0.6546
18289TIP3    H276283   3.936   3.822   1.923  0.6655 -0.6350 -0.2051
18290TIP3   OH276284   0.668   6.179  15.029 -0.2559  0.1663  0.0888
18290TIP3    H176285   0.734   6.143  14.970 -0.2490  0.6503 -0.1975
18290TIP3    H276286   0.656   6.111  15.096  1.8211  0.7980  1.1809
18291TIP3   OH276287   0.422   0.687   3.799  0.0874  0.1532 -0.1165
18291TIP3    H176288   0.432   0.618   3.865  0.9498  1.8865  1.6383
18291TIP3    H276289   0.505   0.689   3.753  0.6703  1.0851  0.9409
18292TIP3   OH276290   0.693   2.890  15.765  0.0707  0.2615  0.4211
18292TIP3    H176291   0.726   2.931  15.685  1.4776 -1.0046  0.3108
18292TIP3    H276292   0.728   2.944  15.836 -0.4387  0.8651  0.2257
18293TIP3   OH276293   0.961   3.438  13.617  0.1851 -0.2691 -0.1741
18293TIP3    H176294   1.011   3.517  13.637 -1.2096  1.0912 -1.6797
18293TIP3    H276295   0.965   3.431  13.522 -2.9879  0.3873 -0.4976
18294TIP3   OH276296   0.568   4.114  15.551 -0.3193  0.4469 -0.3652
18294TIP3    H176297   0.605   4.073  15.628 -1.3204  1.5250  0.7313
18294TIP3    H276298   0.578   4.049  15.481 -0.1380 -0.8641  0.8522
18295TIP3   OH276299   2.097   4.920  11.868 -0.0204  0.2191 -0.0847
18295TIP3    H176300   2.111   5.013  11.888  0.8154  0.0046  0.3903
18295TIP3    H276301   2.043   4.888  11.940  1.1042 -0.0380  0.6631
18296TIP3   OH276302   0.172   6.144  10.512 -0.5726  0.1840  0.0709
18296TIP3    H176303   0.212   6.154  10.598 -0.0615  0.5770 -0.2098
18296TIP3    H276304   0.244   6.156  10.450 -0.8819 -0.3752 -0.4053
18297TIP3   OH276305   2.708   0.688  12.829 -0.3636 -0.9031  0.6753
18297TIP3    H176306   2.771   0.686  12.757 -1.9597  0.2452 -0.8377
18297TIP3    H276307   2.760   0.669  12.907  1.8965  0.1981 -0.4612
18298TIP3   OH276308   5.371   2.775   5.560 -0.9767  0.4259 -0.0542
18298TIP3    H176309   5.382   2.866   5.535 -1.9642  0.4053 -0.5969
18298TIP3    H276310   5.460   2.740   5.564 -0.6794  0.8485 -1.9594
18299TIP3   OH276311   0.847   6.154  11.792  1.1126 -0.0224  0.3288
18299TIP3    H176312   0.849   6.082  11.729  1.9813  0.2032  0.0838
18299TIP3    H276313   0.880   6.115  11.873 -0.2249 -0.3729  0.7351
18300TIP3   OH276314   4.235   6.012  12.109 -0.0317 -0.1510 -0.7099
18300TIP3    H176315   4.244   5.921  12.137  0.5759 -0.3930 -1.6602
18300TIP3    H276316   4.303   6.059  12.157  0.2463 -0.3589 -0.8980
18301TIP3   OH276317   4.927   1.067   1.202 -0.0769 -0.2789 -0.3844
18301TIP3    H176318   4.952   1.040   1.114 -1.3727  0.1611 -0.9175
18301TIP3    H276319   4.980   1.144   1.219  0.7613 -0.8298 -0.4510
18302TIP3   OH276320   5.673   0.496  13.536 -0.3468 -0.0472  0.1368
18302TIP3    H176321   5.667   0.579  13.584  2.2951 -0.0224  0.5631
18302TIP3    H276322   5.718   0.437  13.596 -0.6198 -1.2760 -0.8265
18303TIP3   OH276323   4.446   4.554  15.207 -0.4126  0.5255 -0.4228
18303TIP3    H176324   4.452   4.566  15.112 -0.8879 -1.0504 -0.6738
18303TIP3    H276325   4.535   4.568  15.239  0.4048 -1.7941 -1.4856
18304TIP3   OH276326   3.523   1.594   6.300 -0.0243 -0.4564  0.1814
18304TIP3    H176327   3.500   1.639   6.382 -1.4784  0.8901 -0.8905
18304TIP3    H276328   3.519   1.501   6.322  1.1473 -0.1252  2.0080
18305TIP3   OH276329   4.539   0.360   2.706  0.0690  0.2953  0.4304
18305TIP3    H176330   4.564   0.384   2.795 -0.1112  0.1792  0.5137
18305TIP3    H276331   4.446   0.380   2.701 -0.0070 -0.0603  0.3930
18306TIP3   OH276332   4.984   2.172   1.233  0.2196 -0.8597 -0.0616
18306TIP3    H176333   5.059   2.150   1.289 -0.6895 -0.2227  1.4749
18306TIP3    H276334   4.952   2.255   1.267 -0.8353 -0.8240 -1.0639
18307TIP3   OH276335   1.813   6.244  12.312 -0.3209 -0.4638 -0.7176
18307TIP3    H176336   1.848   6.244  12.401 -0.0814 -3.3230 -0.7209
18307TIP3    H276337   1.763   6.325  12.306  0.8034  0.4918  1.5323
18308TIP3   OH276338   6.693   4.656  10.979  0.1837  0.1461  0.2389
18308TIP3    H176339   6.764   4.692  11.032  3.1152 -2.9937 -1.0801
18308TIP3    H276340   6.721   4.673  10.888 -0.3430 -1.6705 -0.3172
18309TIP3   OH276341   6.135   1.925  15.657  0.0458 -0.2000 -0.6514
18309TIP3    H176342   6.132   1.855  15.592  0.0582 -0.7260 -0.0999
18309TIP3    H276343   6.092   1.999  15.616 -1.2181 -0.9623 -0.7382
18310TIP3   OH276344   3.234   0.622   3.222 -0.0333  0.7512 -0.2060
18310TIP3    H176345   3.173   0.549   3.212 -0.7748  1.2464  0.5272
18310TIP3    H276346   3.242   0.634   3.317  0.2959  1.4389 -0.3142
18311TIP3   OH276347   1.997   4.109  12.079  0.3839 -0.7577  0.4389
18311TIP3    H176348   2.076   4.056  12.071  1.6034  0.7301  1.9826
18311TIP3    H276349   1.931   4.048  12.112  1.3879 -1.6338  0.8902
18312TIP3   OH276350   6.607   4.338   2.101 -0.3100  0.6686 -0.1753
18312TIP3    H176351   6.591   4.430   2.122 -0.9959  0.3878  0.5628
18312TIP3    H276352   6.701   4.327   2.110 -0.3436  1.0698  0.6717
18313TIP3   OH276353   6.303   0.450  12.349 -0.2249 -0.4029  0.1388
18313TIP3    H176354   6.282   0.536  12.384  0.9913 -0.7582  1.8344
18313TIP3    H276355   6.335   0.399  12.424  4.0792 -0.7135 -1.5967
18314TIP3   OH276356   2.191   4.780  15.741 -0.3475  0.3047 -0.2647
18314TIP3    H176357   2.248   4.739  15.805  0.9153 -0.1114 -1.6122
18314TIP3    H276358   2.194   4.874  15.762 -1.3938  0.0244  1.3604
18315TIP3   OH276359   3.894   5.162  12.250 -0.6391  0.6656  0.6374
18315TIP3    H176360   3.855   5.077  12.231  0.9157  0.0781 -0.0840
18315TIP3    H276361   3.886   5.173  12.344 -1.1370 -0.1349  0.6896
18316TIP3   OH276362   1.248   3.066   1.353  0.2708  0.1594  0.6718
18316TIP3    H176363   1.189   3.123   1.402  0.3359  0.0023  0.9362
18316TIP3    H276364   1.284   3.122   1.285 -0.3913  0.1877  0.3341
18317TIP3   OH276365   6.759   5.556  16.769 -0.3843 -0.0195  0.0118
18317TIP3    H176366   6.668   5.567  16.793 -0.6780  0.8592 -1.3617
18317TIP3    H276367   6.759   5.486  16.703  0.2577 -1.6133  1.6138
18318TIP3   OH276368   0.533   6.194   2.169 -0.0688  0.1455  0.5698
18318TIP3    H176369   0.623   6.219   2.149  0.3858 -0.9145  1.2420
18318TIP3    H276370   0.530   6.188   2.264 -0.7115 -0.3580  0.5254
18319TIP3   OH276371   6.269   6.761  11.162  0.4774  0.1107  0.0864
18319TIP3    H176372   6.281   6.846  11.204 -1.8515  0.8496 -0.5612
18319TIP3    H276373   6.344   6.753  11.102  0.2606  2.1641 -0.5217
18320TIP3   OH276374   5.918   1.874   2.587 -0.4465 -0.2884  0.2711
18320TIP3    H176375   5.966   1.931   2.648  1.1455 -2.8123  1.5270
18320TIP3    H276376   5.982   1.808   2.560 -2.0746 -1.2490 -1.4902
18321TIP3   OH276377   2.875   4.571  13.474 -0.5052  0.0143  0.3732
18321TIP3    H176378   2.822   4.501  13.437  0.3031  0.3112 -1.4611
18321TIP3    H276379   2.962   4.532  13.486  0.0744  0.7414 -1.0757
18322TIP3   OH276380   6.745   0.972  12.233 -0.4524  0.3957 -0.4215
18322TIP3    H176381   6.780   0.959  12.144 -0.7897  0.7448 -0.6082
18322TIP3    H276382   6.806   0.925  12.289  0.4327  1.1656 -0.7214
18323TIP3   OH276383   3.899   3.166   1.844 -0.1205 -0.0586  0.1814
18323TIP3    H176384   3.898   3.212   1.760  2.1753  0.5908  0.4429
18323TIP3    H276385   3.992   3.155   1.864 -0.6176 -1.8617  1.7609
18324TIP3   OH276386   6.144   4.400  10.612 -0.1838  0.0718 -0.1627
18324TIP3    H176387   6.154   4.481  10.662 -1.2934 -0.1262  0.4151
18324TIP3    H276388   6.230   4.357  10.617 -0.5722 -0.5601  2.6854
18325TIP3   OH276389   0.979   0.246  16.778 -0.5437 -0.0093  0.6115
18325TIP3    H176390   1.005   0.243  16.871  3.1404  2.2542 -0.1352
18325TIP3    H276391   0.930   0.327  16.769 -0.5771 -0.0384  0.5336
18326TIP3   OH276392   4.534   2.956  11.188 -0.0184 -0.1267 -0.4026
18326TIP3    H176393   4.611   3.011  11.205  0.0800 -0.5651  0.6727
18326TIP3    H276394   4.471   3.015  11.148  0.0939  0.7805  0.6980
18327TIP3   OH276395   6.296   0.684  13.723  0.2554  0.3554 -0.5098
18327TIP3    H176396   6.257   0.598  13.735  0.0290  0.5091 -0.1309
18327TIP3    H276397   6.230   0.734  13.675  0.5501  0.1986 -1.0883
18328TIP3   OH276398   5.619   5.308  12.922 -0.7673 -0.1044  0.4894
18328TIP3    H176399   5.707   5.278  12.899 -0.2916  2.1121 -0.8637
18328TIP3    H276400   5.604   5.275  13.011  0.1692 -3.0816 -0.3499
18329TIP3   OH276401   1.465   3.545  17.010  0.1461  0.5337 -0.2410
18329TIP3    H176402   1.524   3.503  17.072  0.9887  2.4937  0.3688
18329TIP3    H276403   1.393   3.483  16.999  0.8980 -0.6678  1.2457
18330TIP3   OH276404   5.885   3.259   4.163  0.3794 -0.0294  0.3182
18330TIP3    H176405   5.877   3.220   4.250  1.4297  0.8790  0.8386
18330TIP3    H276406   5.979   3.273   4.152  0.5597 -2.1919 -1.8905
18331TIP3   OH276407   2.828   2.973  10.582  0.1813  0.6621 -0.1769
18331TIP3    H176408   2.903   3.027  10.556  1.4821 -0.7321  0.4804
18331TIP3    H276409   2.765   3.035  10.618  0.6884  1.9674 -1.4420
18332TIP3   OH276410   4.100   4.483  11.385 -0.6203 -0.0127 -0.5454
18332TIP3    H176411   4.096   4.393  11.353 -0.4430 -0.2155 -0.0156
18332TIP3    H276412   4.185   4.515  11.355 -1.2137  0.4127 -1.8297
18333TIP3   OH276413   0.700   6.659   2.049  0.7022  0.0902  0.3025
18333TIP3    H176414   0.738   6.737   2.008 -0.4154  0.7800  0.5438
18333TIP3    H276415   0.731   6.586   1.995  2.0266  0.6511  0.2576
18334TIP3   OH276416   6.017   2.203  16.793 -0.0509  0.0813 -0.9499
18334TIP3    H176417   6.045   2.269  16.729 -1.4716  1.7969  0.0852
18334TIP3    H276418   5.985   2.130  16.740  1.1103  0.4027 -2.1427
18335TIP3   OH276419   2.905   4.294  14.879 -0.5656 -0.9394 -0.1815
18335TIP3    H176420   2.870   4.272  14.966  0.7407 -2.1177  0.0783
18335TIP3    H276421   2.891   4.215  14.827 -0.1254 -0.7044 -0.6592
18336TIP3   OH276422   1.429   2.948  12.495  0.3367 -0.5872 -0.3983
18336TIP3    H176423   1.473   2.908  12.420  0.8614  1.8338 -1.4811
18336TIP3    H276424   1.344   2.976  12.461  0.9516  1.4049 -0.4526
18337TIP3   OH276425   1.022   1.510  10.766  0.5006 -0.0000 -0.8549
18337TIP3    H176426   0.938   1.545  10.736  0.3771 -0.5034 -1.1228
18337TIP3    H276427   1.000   1.425  10.805  0.4628  1.2093  1.9808
18338TIP3   OH276428   3.250   0.795   5.427  0.4749 -0.6319  0.3026
18338TIP3    H176429   3.158   0.770   5.421  0.0091  0.8301  0.8436
18338TIP3    H276430   3.274   0.822   5.339  0.5945 -1.6323  0.0164
18339TIP3   OH276431   6.535   2.053  12.595  0.2937  0.2020  0.4962
18339TIP3    H176432   6.574   2.140  12.600  0.7025 -0.0061  0.9490
18339TIP3    H276433   6.454   2.060  12.645  0.3802  0.2929  0.6227
18340TIP3   OH276434   5.530   0.300   1.191  0.0093 -0.3522 -0.1665
18340TIP3    H176435   5.538   0.388   1.228 -1.7324 -0.1448 -0.2282
18340TIP3    H276436   5.454   0.304   1.134  0.3141 -1.7337 -0.7180
18341TIP3   OH276437   1.864   5.392  13.203  0.1712 -0.2299  0.2613
18341TIP3    H176438   1.881   5.392  13.109  1.6788  0.3696  0.4934
18341TIP3    H276439   1.820   5.475  13.220  1.8767  0.7085  0.3478
18342TIP3   OH276440   6.341   6.748   5.557  0.4744 -0.1865  0.2425
18342TIP3    H176441   6.349   6.743   5.462 -1.2093  0.5819  0.0235
18342TIP3    H276442   6.388   6.671   5.589  2.6871  0.5267 -1.0696
18343TIP3   OH276443   6.227   6.556  12.837 -0.2443  0.2218  0.2148
18343TIP3    H176444   6.253   6.487  12.777 -0.8196  0.9353 -0.8890
18343TIP3    H276445   6.136   6.536  12.859 -0.2331  0.3086  0.3439
18344TIP3   OH276446   6.367   5.566  12.097 -0.2962  0.6155  0.2659
18344TIP3    H176447   6.362   5.655  12.132  0.0275  0.0861  1.6845
18344TIP3    H276448   6.281   5.529  12.114 -0.3849  0.6029 -0.1991
18345TIP3   OH276449   3.498   1.664  14.723  0.1302 -0.1248  0.1502
18345TIP3    H176450   3.444   1.617  14.786  0.9668 -1.8334 -0.3419
18345TIP3    H276451   3.528   1.742  14.770  1.5008 -1.7998  2.2478
18346TIP3   OH276452   6.701   0.874  10.905  0.0996 -0.7182  0.3158
18346TIP3    H176453   6.682   0.951  10.958 -1.7944 -0.5133 -0.5697
18346TIP3    H276454   6.695   0.905  10.815  2.6017 -1.2047 -0.0857
18347TIP3   OH276455   5.822   4.426   1.825  0.0762  0.1029  0.5277
18347TIP3    H176456   5.886   4.377   1.877  0.1479  0.8827  1.2055
18347TIP3    H276457   5.843   4.518   1.842  0.4853  0.3953 -1.3883
18348TIP3   OH276458   2.388   1.091  15.607  0.9563 -0.4125  0.3106
18348TIP3    H176459   2.455   1.087  15.675 -0.1918 -1.6547  1.4304
18348TIP3    H276460   2.322   1.027  15.634 -1.7292  2.1710  0.4013
18349TIP3   OH276461   6.129   2.114  10.853 -0.1429 -0.0572  0.1896
18349TIP3    H176462   6.150   2.188  10.911  0.7252 -1.0757  1.2391
18349TIP3    H276463   6.192   2.122  10.781 -0.5927  0.6666 -0.1435
18350TIP3   OH276464   0.524   2.732  13.730  0.2475 -0.1131  0.8430
18350TIP3    H176465   0.446   2.788  13.729  1.5319  1.8226  2.3105
18350TIP3    H276466   0.556   2.734  13.639 -1.2043 -0.6798  0.2925
18351TIP3   OH276467   6.599   2.869  14.569  0.1240 -0.2585  0.1359
18351TIP3    H176468   6.608   2.785  14.523  0.5395 -0.1608  0.0389
18351TIP3    H276469   6.618   2.934  14.502 -0.7166 -0.0602  0.0718
18352TIP3   OH276470   4.988   2.287  16.384  0.3144 -0.2530 -0.0904
18352TIP3    H176471   4.985   2.381  16.402  3.0246 -0.0229 -0.4180
18352TIP3    H276472   4.959   2.279  16.293 -0.7716  0.1238  0.2027
18353TIP3   OH276473   5.182   5.214   3.034 -0.0832 -0.5196 -0.1013
18353TIP3    H176474   5.183   5.142   2.970  1.8396  0.0086 -0.7624
18353TIP3    H276475   5.110   5.270   3.006 -0.4319 -1.2363 -0.6951
18354TIP3   OH276476   2.198   3.012   3.468  0.0529  0.0365  0.2860
18354TIP3    H176477   2.227   3.050   3.551 -0.5964 -1.1818  1.1108
18354TIP3    H276478   2.184   3.087   3.411  1.1827  0.8658  1.0450
18355TIP3   OH276479   5.475   1.792   3.423 -0.1936 -0.0987  0.0131
18355TIP3    H176480   5.495   1.864   3.482 -0.7413  0.2970 -0.2728
18355TIP3    H276481   5.505   1.714   3.470  3.9754  0.5225 -1.2254
18356TIP3   OH276482   5.080   6.616  15.770  0.1121  0.2228 -0.1897
18356TIP3    H176483   5.044   6.616  15.859  0.1053 -0.9880 -0.1709
18356TIP3    H276484   5.154   6.676  15.775  0.2677 -0.0200  0.7175
18357TIP3   OH276485   2.670   3.691   2.113  0.0680 -0.4666 -0.0776
18357TIP3    H176486   2.597   3.743   2.080  0.7821  0.4838 -0.1964
18357TIP3    H276487   2.652   3.680   2.207 -0.2431 -0.2760 -0.1157
18358TIP3   OH276488   3.659   5.615   1.356  0.0095 -0.1190 -0.3409
18358TIP3    H176489   3.672   5.610   1.262 -2.2344 -0.5693 -0.6903
18358TIP3    H276490   3.572   5.656   1.366  0.1638 -0.1479  1.5151
18359TIP3   OH276491   2.062   2.551   4.615  0.0365 -0.0348 -0.2030
18359TIP3    H176492   2.053   2.646   4.624  0.1819 -0.0618  0.2228
18359TIP3    H276493   2.046   2.517   4.702 -0.2324 -0.4219 -0.4039
18360TIP3   OH276494   5.736   1.655   3.816  0.7006 -0.0204 -0.1130
18360TIP3    H176495   5.756   1.628   3.906  0.5325 -2.9891 -0.8709
18360TIP3    H276496   5.821   1.659   3.773  0.7255  0.7850 -0.0061
18361TIP3   OH276497   3.433   6.101   0.116 -0.2494  0.4293  0.9455
18361TIP3    H176498   3.511   6.153   0.097  1.1215 -1.5243  0.9753
18361TIP3    H276499   3.466   6.026   0.166 -2.2886  0.0311  1.7637
18362TIP3   OH276500   3.992   1.554   1.149 -0.5737  0.3147  0.6398
18362TIP3    H176501   3.987   1.620   1.080  0.4789  1.6149  1.7529
18362TIP3    H276502   4.070   1.503   1.127 -0.6945  0.2136  0.4411
18363TIP3   OH276503   4.534   5.886   1.283  0.0216  0.3371 -0.6646
18363TIP3    H176504   4.466   5.836   1.238  0.6671 -0.6228 -0.5898
18363TIP3    H276505   4.541   5.846   1.369  1.0292  0.0872 -0.8465
18364TIP3   OH276506   4.787   5.731   0.972 -0.1135  0.2758 -0.0411
18364TIP3    H176507   4.803   5.752   0.880 -0.9465  0.3521 -0.1696
18364TIP3    H276508   4.749   5.811   1.009 -3.2154 -0.8493 -0.5121
18365TIP3   OH276509   2.520   2.306   5.928 -0.6459 -0.1447 -0.7230
18365TIP3    H176510   2.581   2.376   5.952 -0.9428  0.2346 -1.0581
18365TIP3    H276511   2.575   2.228   5.918 -0.2483  0.1410 -0.7948
18366TIP3   OH276512   3.927   2.204  14.142  0.6629 -0.3018  0.6639
18366TIP3    H176513   4.014   2.237  14.122 -0.3862  3.8052  1.9389
18366TIP3    H276514   3.889   2.184  14.056  2.2137 -0.5436 -0.0032
18367TIP3   OH276515   6.555   5.251  13.426 -0.4533  0.2746 -0.1500
18367TIP3    H176516   6.521   5.233  13.338  2.4572 -0.1522 -1.2721
18367TIP3    H276517   6.556   5.166  13.469 -1.6496  0.4458  0.2559
18368TIP3   OH276518   6.520   0.918  16.532 -0.9427  0.9853  0.1485
18368TIP3    H176519   6.594   0.910  16.593 -0.4329  1.3482 -0.4050
18368TIP3    H276520   6.469   0.839  16.545 -0.0665  0.3889  0.0481
18369TIP3   OH276521   0.776   1.711  11.797  0.2998 -0.2242  0.0136
18369TIP3    H176522   0.789   1.642  11.863  0.7970 -0.0108  0.1450
18369TIP3    H276523   0.712   1.770  11.837  0.0020 -0.5168 -0.0274
18370TIP3   OH276524   1.262   2.574  15.524 -0.5420 -0.0787 -0.4000
18370TIP3    H176525   1.344   2.584  15.573 -0.1562  0.2745 -1.1082
18370TIP3    H276526   1.202   2.636  15.565 -0.4971 -0.4238  0.2000
18371TIP3   OH276527   2.453   1.631   5.340  0.9843  0.2113  0.0053
18371TIP3    H176528   2.511   1.667   5.274  1.2763  2.2697  1.2900
18371TIP3    H276529   2.412   1.556   5.298  1.6814  1.0180 -2.2475
18372TIP3   OH276530   1.086   1.377  16.223 -0.6182 -0.3723 -0.1076
18372TIP3    H176531   1.109   1.458  16.269 -0.8797 -0.2037 -0.2773
18372TIP3    H276532   0.999   1.393  16.187 -0.6162 -0.6820 -0.2513
18373TIP3   OH276533   5.291   2.839  11.660  0.1714  0.4592 -0.3474
18373TIP3    H176534   5.235   2.911  11.688 -1.5219 -1.1354  0.6244
18373TIP3    H276535   5.363   2.881  11.613 -0.8312  2.7384  0.0210
18374TIP3   OH276536   5.977   5.149  16.616  0.2105  0.4488  0.0956
18374TIP3    H176537   5.908   5.095  16.578 -0.8446  1.6908  0.1444
18374TIP3    H276538   6.053   5.092  16.622 -0.6981 -0.8465 -0.3555
18375TIP3   OH276539   0.071   2.862   6.026  0.5021  0.3705 -0.4109
18375TIP3    H176540   0.068   2.946   5.981  2.6204 -0.0979 -1.5912
18375TIP3    H276541   0.131   2.877   6.100 -0.2202  0.2442  0.2094
18376TIP3   OH276542   3.702   5.872  13.376  0.3630  0.4172  0.3383
18376TIP3    H176543   3.639   5.881  13.448  0.2831  0.1635  0.3026
18376TIP3    H276544   3.672   5.934  13.310  0.3136  0.4984  0.4371
18377TIP3   OH276545   3.938   5.792  16.330  0.0377  0.6608 -0.1736
18377TIP3    H176546   3.984   5.862  16.376 -0.6912  1.6929 -0.9572
18377TIP3    H276547   3.846   5.803  16.357 -0.3913  1.2460 -1.7844
18378TIP3   OH276548   2.215   2.898  15.918  0.6722  0.1212  0.0324
18378TIP3    H176549   2.125   2.899  15.951  0.6411 -2.5943  0.2812
18378TIP3    H276550   2.210   2.855  15.833  1.6906  0.1384 -0.0592
18379TIP3   OH276551   3.928   5.027  13.291  0.8736 -0.3381  0.0765
18379TIP3    H176552   3.910   5.109  13.337 -0.8392  0.0981 -1.2645
18379TIP3    H276553   3.877   4.961  13.339 -3.2710  0.5706 -2.5671
18380TIP3   OH276554   4.599   1.172   0.059  0.0901 -0.4083 -0.2371
18380TIP3    H176555   4.636   1.258   0.040 -1.2666  0.2217 -0.1725
18380TIP3    H276556   4.505   1.183   0.047 -0.1319 -1.8410 -0.0421
18381TIP3   OH276557   0.047   3.491   5.461 -0.0205 -0.3303  0.1211
18381TIP3    H176558   0.112   3.548   5.502  1.0931 -0.2284 -1.6605
18381TIP3    H276559   0.005   3.546   5.395  0.2580 -1.2274 -0.8327
18382TIP3   OH276560   5.817   6.053  10.916  0.3840  0.0148 -0.1938
18382TIP3    H176561   5.882   6.013  10.974  1.0306  0.1666 -0.8011
18382TIP3    H276562   5.844   6.026  10.828 -1.3959 -1.4165 -0.3638
18383TIP3   OH276563   6.036   3.417   1.787 -0.1184 -0.2586  0.6459
18383TIP3    H176564   5.977   3.486   1.757  1.1386  1.3010  1.5423
18383TIP3    H276565   6.123   3.447   1.760  0.4807 -1.3863  1.2427
18384TIP3   OH276566   6.285   6.310  13.031 -0.1758  0.1953 -0.0138
18384TIP3    H176567   6.235   6.244  12.984  0.4993 -2.1172  2.2663
18384TIP3    H276568   6.285   6.387  12.973 -0.8745 -1.8114 -2.8878
18385TIP3   OH276569   1.699   3.618   3.200 -0.8948 -0.1745  0.4937
18385TIP3    H176570   1.662   3.573   3.276  2.5568  0.6862  2.9396
18385TIP3    H276571   1.736   3.699   3.236  2.9728 -0.8019 -1.5045
18386TIP3   OH276572   5.216   0.381  16.802  0.1406 -0.5887 -0.0177
18386TIP3    H176573   5.227   0.331  16.721  0.1331 -3.2896  1.5517
18386TIP3    H276574   5.286   0.446  16.799  0.6815 -1.1822 -1.7789
18387TIP3   OH276575   1.800   6.641   0.637 -0.2715  0.1272  0.2642
18387TIP3    H176576   1.769   6.708   0.698 -0.1659  0.3082  0.1177
18387TIP3    H276577   1.739   6.568   0.649 -0.5937  0.3793  0.1695
18388TIP3   OH276578   2.114   2.121  12.528  0.9252 -0.1855  0.1043
18388TIP3    H176579   2.034   2.072  12.546  0.6768 -0.5332 -1.7344
18388TIP3    H276580   2.177   2.090  12.594 -0.1321 -0.6683  0.9209
18389TIP3   OH276581   2.889   2.098   4.999 -0.1857 -0.0421  0.3741
18389TIP3    H176582   2.842   2.172   5.037 -0.9137 -0.8783  1.1649
18389TIP3    H276583   2.936   2.059   5.073  1.4044  0.4710 -0.3040
18390TIP3   OH276584   1.795   3.986  16.391  0.0066 -0.5903 -0.0548
18390TIP3    H176585   1.745   4.034  16.325 -0.9890  1.7367  2.2104
18390TIP3    H276586   1.760   3.897  16.388 -1.4802 -0.0048 -1.2250
18391TIP3   OH276587   2.593   5.777  16.361  0.5171  0.4234 -0.2718
18391TIP3    H176588   2.582   5.863  16.402 -1.0095 -0.1906  0.7203
18391TIP3    H276589   2.520   5.725  16.395  0.2081 -0.6628 -2.4556
18392TIP3   OH276590   2.449   2.091  16.436 -0.0453 -0.3305 -0.2152
18392TIP3    H176591   2.481   2.011  16.395  0.0393 -2.1456  3.0359
18392TIP3    H276592   2.364   2.107  16.394  0.3365 -1.5931 -1.5624
18393TIP3   OH276593   0.683   2.930  14.457 -0.2364 -0.1372  0.4978
18393TIP3    H176594   0.709   2.977  14.537 -0.2346  0.4710  0.1456
18393TIP3    H276595   0.598   2.968  14.435 -0.3671 -0.5060  0.3670
18394TIP3   OH276596   1.356   5.285   4.027  0.1341 -0.6358  0.1226
18394TIP3    H176597   1.389   5.372   4.006  0.9895 -0.5824  1.5455
18394TIP3    H276598   1.364   5.278   4.123 -1.7514 -1.5520  0.2579
18395TIP3   OH276599   1.661   5.603  16.081  0.0523  0.1817  0.8910
18395TIP3    H176600   1.638   5.668  16.147  0.0556  0.8657  0.2305
18395TIP3    H276601   1.614   5.631  16.002 -0.2694 -0.8535  0.7102
18396TIP3   OH276602   2.700   3.565   1.381 -0.2085  0.3635  0.1521
18396TIP3    H176603   2.751   3.555   1.301 -0.1147  0.1187  0.2422
18396TIP3    H276604   2.663   3.478   1.398  0.4462  0.2024  0.8273
18397TIP3   OH276605   2.383   4.783   2.117  0.6907 -0.6171 -0.5298
18397TIP3    H176606   2.366   4.877   2.127 -1.0954 -0.7714 -1.6453
18397TIP3    H276607   2.467   4.778   2.073  1.0682  0.4355  0.0332
18398TIP3   OH276608   6.629   1.910  16.181 -0.0882  0.4206  0.1919
18398TIP3    H176609   6.603   1.823  16.210 -0.3767  0.2750 -0.4910
18398TIP3    H276610   6.635   1.904  16.086 -0.1406  1.1530  0.1320
18399TIP3   OH276611   6.679   2.465   0.130  0.1921  0.2927  0.2314
18399TIP3    H176612   6.612   2.468   0.061 -0.1893  0.5408  0.6086
18399TIP3    H276613   6.758   2.496   0.088  0.3797 -1.1629 -0.5620
18400TIP3   OH276614   1.759   5.032   4.130  0.4136  0.2316 -0.3497
18400TIP3    H176615   1.849   5.037   4.098  0.4072  0.4470 -0.3399
18400TIP3    H276616   1.708   5.002   4.055  0.4590  0.3377 -0.4226
18401TIP3   OH276617   5.777   3.582  12.277  0.5936 -0.0061 -0.2985
18401TIP3    H176618   5.774   3.677  12.290  1.1480  0.1814 -1.3547
18401TIP3    H276619   5.706   3.565  12.215  1.0969 -0.1280 -0.8543
18402TIP3   OH276620   1.475   6.730  13.822  0.0578 -0.4479  0.1214
18402TIP3    H176621   1.471   6.664  13.891  2.2462 -1.3638 -0.5322
18402TIP3    H276622   1.508   6.809  13.867 -0.6523 -0.3754  0.5248
18403TIP3   OH276623   4.531   1.151   2.844 -0.7183  0.4412 -0.4328
18403TIP3    H176624   4.466   1.106   2.899 -0.2239  0.4946  0.1975
18403TIP3    H276625   4.487   1.159   2.759 -0.6261 -1.7396 -0.7592
18404TIP3   OH276626   5.499   2.750   0.100  0.1562 -0.2796  0.3848
18404TIP3    H176627   5.583   2.708   0.113  0.7229  1.3198  2.5485
18404TIP3    H276628   5.518   2.844   0.104 -1.8019  0.1359  2.0491
18405TIP3   OH276629   1.703   4.521  10.943 -0.1838  0.1517 -0.2383
18405TIP3    H176630   1.754   4.440  10.943 -1.7505 -0.9736  2.1843
18405TIP3    H276631   1.764   4.588  10.975  0.6282 -0.4514 -0.4909
18406TIP3   OH276632   2.946   3.803   0.733 -0.0590 -0.8088 -0.2101
18406TIP3    H176633   2.949   3.893   0.766 -0.1324 -1.6038  2.1299
18406TIP3    H276634   2.959   3.812   0.639  0.2779  1.6207 -0.0003
18407TIP3   OH276635   4.622   0.359  12.238 -0.0136  0.0468 -0.2525
18407TIP3    H176636   4.612   0.301  12.162 -0.9982 -0.5629  0.3132
18407TIP3    H276637   4.535   0.396  12.251  0.5471  1.4934 -0.4498
18408TIP3   OH276638   1.616   4.502   0.899 -0.2708 -0.3794 -0.1980
18408TIP3    H176639   1.567   4.582   0.879 -0.7411 -0.2970  1.1640
18408TIP3    H276640   1.578   4.471   0.981  0.1046 -1.8490 -0.5500
18409TIP3   OH276641   0.710   4.624  17.112 -0.1282 -0.7782  0.0629
18409TIP3    H176642   0.687   4.538  17.076  1.6404 -0.5222 -1.9105
18409TIP3    H276643   0.754   4.605  17.195 -0.4558 -1.7289  0.0276
18410TIP3   OH276644   4.809   4.561   1.621 -0.2736 -0.2630 -0.3597
18410TIP3    H176645   4.792   4.625   1.552 -3.4193 -0.8952 -0.3058
18410TIP3    H276646   4.846   4.486   1.576 -0.2191  0.1474 -1.0072
18411TIP3   OH276647   1.684   4.372  16.186  0.1525  0.0129 -0.0610
18411TIP3    H176648   1.762   4.370  16.242 -0.6491  0.5668  1.1135
18411TIP3    H276649   1.694   4.453  16.135  0.4347 -0.0216 -0.0632
18412TIP3   OH276650   5.962   1.463   6.446  0.4922  0.2121 -0.5917
18412TIP3    H176651   5.958   1.483   6.539 -2.0118 -0.6495 -0.4363
18412TIP3    H276652   6.037   1.403   6.437 -0.1523 -0.9261  1.1387
18413TIP3   OH276653   0.782   0.011  11.162 -0.3476  0.0031 -0.5289
18413TIP3    H176654   0.690   0.037  11.153  0.3285  2.9573  0.1472
18413TIP3    H276655   0.823   0.035  11.079  0.1328  0.2144 -0.2347
18414TIP3   OH276656   1.892   4.878   3.330  0.7432  0.4553 -0.0120
18414TIP3    H176657   1.817   4.858   3.386 -1.5920  0.3869 -2.8764
18414TIP3    H276658   1.902   4.800   3.275  3.3437  0.2509  0.6230
18415TIP3   OH276659   5.049   4.761  10.943 -0.4793 -0.1694  0.4596
18415TIP3    H176660   5.016   4.672  10.951  0.5172 -0.5445  0.5087
18415TIP3    H276661   5.144   4.752  10.945 -0.3611  1.0210  1.9385
18416TIP3   OH276662   2.255   5.053   1.756 -0.3170 -0.2705  0.1942
18416TIP3    H176663   2.248   5.069   1.850  1.0757 -0.5470  0.3666
18416TIP3    H276664   2.345   5.023   1.743  0.0280  1.2555 -1.4461
18417TIP3   OH276665   1.679   0.098  13.542 -0.0884 -0.2607  0.4380
18417TIP3    H176666   1.605   0.106  13.602 -1.3423 -2.1456 -0.7234
18417TIP3    H276667   1.638   0.080  13.457  1.6816 -2.6019 -0.0175
18418TIP3   OH276668   1.981   4.925   0.073  0.1203 -0.0836  0.2094
18418TIP3    H176669   2.021   4.954   0.155 -0.5133  1.4682 -0.0024
18418TIP3    H276670   1.897   4.887   0.099  0.2827 -0.3641  0.3387
18419TIP3   OH276671   2.211   0.062  11.513  0.2267  0.4329  0.1446
18419TIP3    H176672   2.301   0.077  11.541  0.3260 -0.2214  0.1959
18419TIP3    H276673   2.219   0.028  11.424  0.0085  0.7425  0.0053
18420TIP3   OH276674   1.589   2.296   5.372 -0.2231 -0.2206 -0.3618
18420TIP3    H176675   1.514   2.327   5.321 -1.3872 -0.1788  1.3291
18420TIP3    H276676   1.565   2.311   5.463  1.6941 -0.5598  0.2417
18421TIP3   OH276677   1.871   4.185   2.257 -0.1590 -0.6179  0.2309
18421TIP3    H176678   1.903   4.273   2.276  1.6155 -1.0490 -0.5103
18421TIP3    H276679   1.930   4.153   2.189 -1.1882 -2.1353  0.0159
18422TIP3   OH276680   6.496   6.654  12.218 -0.1787 -0.2449  0.1863
18422TIP3    H176681   6.454   6.738  12.203 -0.7288 -0.8353 -1.8981
18422TIP3    H276682   6.438   6.609  12.280 -0.0921  0.7119  0.9938
18423TIP3   OH276683   3.472   3.890  12.198 -0.3824 -0.2935  0.2612
18423TIP3    H176684   3.491   3.801  12.227 -0.1063 -0.9792 -1.8587
18423TIP3    H276685   3.555   3.923  12.164 -1.2182 -0.6314 -2.3446
18424TIP3   OH276686   2.802   5.878  14.224  0.6396 -0.3988 -0.4350
18424TIP3    H176687   2.751   5.939  14.277  1.3681 -0.3378  0.1990
18424TIP3    H276688   2.794   5.794  14.270  2.0242 -0.1510  0.2769
18425TIP3   OH276689   2.003   2.655  10.807  1.0383  1.1200 -0.2148
18425TIP3    H176690   2.038   2.732  10.761  1.0061  0.9082 -0.6010
18425TIP3    H276691   1.927   2.687  10.854 -0.9933  0.7204 -2.9715
18426TIP3   OH276692   3.483   4.903  12.055 -0.2841  0.0223  0.1086
18426TIP3    H176693   3.434   4.964  12.000 -0.3369 -0.7885 -0.7633
18426TIP3    H276694   3.556   4.874  12.001  0.2532 -0.0232  0.8319
18427TIP3   OH276695   4.803   0.928  11.213  0.0832 -0.1087  0.1759
18427TIP3    H176696   4.849   0.986  11.274 -0.9064  1.9677 -0.9181
18427TIP3    H276697   4.712   0.958  11.217 -0.7810 -2.6011  0.6053
18428TIP3   OH276698   6.058   3.607  14.931 -0.1904  0.5416 -0.6639
18428TIP3    H176699   5.987   3.545  14.916  0.1547  0.6037 -2.8270
18428TIP3    H276700   6.121   3.589  14.861  1.2809  1.4174  0.3752
18429TIP3   OH276701   1.952   4.557  13.504 -0.1126  0.3121 -0.5036
18429TIP3    H176702   1.892   4.489  13.535 -0.8444  0.5478 -1.3505
18429TIP3    H276703   2.003   4.581  13.581  0.6080 -1.6356 -0.3146
18430TIP3   OH276704   4.160   0.193  15.256  0.8556 -0.1363 -0.5461
18430TIP3    H176705   4.168   0.147  15.172  1.4742 -0.0570 -0.5343
18430TIP3    H276706   4.196   0.132  15.320 -2.4825 -1.5540  0.1785
18431TIP3   OH276707   2.774   5.700  13.094  0.0773  0.7093 -0.6528
18431TIP3    H176708   2.853   5.706  13.041 -0.1761 -0.3503 -1.1726
18431TIP3    H276709   2.798   5.740  13.178  1.5226 -0.6255 -0.3857
18432TIP3   OH276710   4.316   0.465   2.895 -0.1671  0.3667  0.1476
18432TIP3    H176711   4.326   0.560   2.885 -2.4970  0.9598  2.2425
18432TIP3    H276712   4.390   0.439   2.950 -0.0850  1.1724  0.4329
18433TIP3   OH276713   4.290   5.754   1.215 -0.5717 -0.8591  0.0996
18433TIP3    H176714   4.224   5.749   1.285 -0.5798 -0.2763  0.1384
18433TIP3    H276715   4.239   5.775   1.137 -0.3676  0.3571  0.2638
18434TIP3   OH276716   0.949   5.665  12.442 -0.3218  0.2271  0.1543
18434TIP3    H176717   0.888   5.628  12.506 -0.2721  0.7945  0.5415
18434TIP3    H276718   1.030   5.677  12.492 -0.7238  2.1009  0.4192
18435TIP3   OH276719   4.436   0.822   6.574  0.2828 -0.2036 -0.2700
18435TIP3    H176720   4.419   0.881   6.500 -1.2037  0.2755  0.4265
18435TIP3    H276721   4.375   0.749   6.560 -1.4972  0.8618  1.5260
18436TIP3   OH276722   4.246   2.219  11.827 -0.3859  0.5976  0.3085
18436TIP3    H176723   4.340   2.201  11.817  0.2424  2.1978  2.5551
18436TIP3    H276724   4.242   2.302  11.874 -2.9601  0.5184  0.3940
18437TIP3   OH276725   2.121   2.182  13.654 -0.4768 -0.5559  0.5165
18437TIP3    H176726   2.192   2.245  13.645 -1.1300 -0.0538 -1.8299
18437TIP3    H276727   2.054   2.212  13.593 -2.0850 -1.8603  1.5584
18438TIP3   OH276728   3.602   4.757  15.517  0.0185 -0.2453 -0.0699
18438TIP3    H176729   3.681   4.724  15.559  0.8825  1.2969 -0.4010
18438TIP3    H276730   3.537   4.688  15.529  0.9289 -0.8499  1.6921
18439TIP3   OH276731   1.262   1.042  12.549  0.2490  0.3346 -0.1388
18439TIP3    H176732   1.246   1.053  12.455 -2.1387  1.2462  0.2929
18439TIP3    H276733   1.266   0.947  12.562  0.7441  0.2042 -1.1633
18440TIP3   OH276734   2.807   2.142   0.253 -0.1034  0.4844  0.1480
18440TIP3    H176735   2.786   2.138   0.160 -0.9879  2.4401  0.2167
18440TIP3    H276736   2.829   2.052   0.277 -2.4770 -0.5895 -1.3478
18441TIP3   OH276737   6.711   1.546   4.137  0.4161  0.3090 -0.4867
18441TIP3    H176738   6.758   1.463   4.145 -1.7047 -1.2900 -3.0996
18441TIP3    H276739   6.683   1.566   4.227  3.1581 -0.3382  0.6312
18442TIP3   OH276740   5.424   5.975  15.947  0.0433 -0.4403  0.4155
18442TIP3    H176741   5.480   5.908  15.985 -0.6665 -1.2634  0.0535
18442TIP3    H276742   5.336   5.953  15.978 -0.1564  0.4957  0.5253
18443TIP3   OH276743   2.827   5.951   3.780  0.2367 -0.7738  0.0931
18443TIP3    H176744   2.905   5.895   3.770  0.8393  0.1897 -0.7872
18443TIP3    H276745   2.862   6.036   3.807 -0.4692 -0.2071 -0.7493
18444TIP3   OH276746   3.915   6.431   3.834  0.3989  0.1310  0.7105
18444TIP3    H176747   3.820   6.418   3.829  0.0663  2.1625  0.9015
18444TIP3    H276748   3.950   6.345   3.857 -1.3412 -0.7845  0.1056
18445TIP3   OH276749   3.043   1.409   1.195  0.4396 -0.1641  0.2603
18445TIP3    H176750   2.953   1.440   1.201  0.1662 -1.2113  2.3107
18445TIP3    H276751   3.037   1.314   1.203  1.7440 -0.2200  0.9593
18446TIP3   OH276752   0.660   4.059   5.553  0.2236 -0.2033  0.7316
18446TIP3    H176753   0.683   3.990   5.615 -0.9867 -2.9306 -1.6367
18446TIP3    H276754   0.742   4.077   5.506 -0.0964 -2.5673 -0.8867
18447TIP3   OH276755   1.310   1.379   4.709  0.5345  0.0673 -0.1375
18447TIP3    H176756   1.257   1.301   4.692 -0.1100  0.9674 -2.5948
18447TIP3    H276757   1.268   1.421   4.784 -0.2429 -0.9165  0.0021
18448TIP3   OH276758   5.468   0.103   3.915  0.2189 -0.6281 -0.6354
18448TIP3    H176759   5.451   0.009   3.921 -1.1545 -0.6179 -3.1138
18448TIP3    H276760   5.386   0.144   3.939  0.5643 -0.0851 -0.3617
18449TIP3   OH276761   4.222   1.508  11.989 -0.2242  0.2378  0.2241
18449TIP3    H176762   4.133   1.522  12.022 -0.4252  0.2319 -0.3095
18449TIP3    H276763   4.237   1.414  12.000 -0.0641  0.3333  0.8517
18450TIP3   OH276764   5.569   6.086  13.622 -0.1584  0.2201  0.0241
18450TIP3    H176765   5.526   6.151  13.567  0.2393 -1.1178 -1.9783
18450TIP3    H276766   5.663   6.102  13.610 -0.0641 -0.4325 -0.1460
18451TIP3   OH276767   2.473   2.355   3.321 -0.3777  0.1091 -0.6008
18451TIP3    H176768   2.493   2.306   3.401 -1.3046  1.4318  0.4804
18451TIP3    H276769   2.404   2.416   3.346 -0.2328  1.0279 -2.2567
18452TIP3   OH276770   0.791   4.030  14.035 -0.4326 -0.5521  0.0106
18452TIP3    H176771   0.764   3.946  14.072 -1.5998  0.2340  0.9940
18452TIP3    H276772   0.732   4.094  14.074  1.0572  0.8660  0.0340
18453TIP3   OH276773   5.178   5.710   5.713  0.7962  0.2453  0.1826
18453TIP3    H176774   5.273   5.707   5.705  0.8731  1.3684  0.4933
18453TIP3    H276775   5.161   5.707   5.807  0.5220  0.0059  0.1276
18454TIP3   OH276776   2.297   1.955   4.566  0.2895  0.6737 -0.4801
18454TIP3    H176777   2.307   2.041   4.607 -0.0212 -0.8318  3.1432
18454TIP3    H276778   2.386   1.921   4.561  0.1318 -0.8699  3.5041
18455TIP3   OH276779   2.840   2.316   2.573 -0.2982 -0.2345  0.2753
18455TIP3    H176780   2.899   2.308   2.498 -0.2199  2.0664 -0.0067
18455TIP3    H276781   2.897   2.307   2.650 -0.0636 -0.7820  0.0406
18456TIP3   OH276782   2.055   6.090  14.070  0.1993 -0.5123  0.5754
18456TIP3    H176783   2.007   6.098  13.987  1.5691  0.4059 -0.1724
18456TIP3    H276784   2.004   6.028  14.121 -0.7512 -1.0269 -0.9177
18457TIP3   OH276785   6.644   3.784   3.521  0.7738  0.1097  0.2833
18457TIP3    H176786   6.731   3.782   3.560  0.8597  1.7185  0.2285
18457TIP3    H276787   6.608   3.869   3.545 -0.8171 -0.5452  0.3470
18458TIP3   OH276788   3.514   4.762   4.459 -0.1707 -0.4765  0.4989
18458TIP3    H176789   3.426   4.788   4.488 -1.0117 -1.9589 -0.5271
18458TIP3    H276790   3.573   4.826   4.498 -1.8692  1.6344 -0.1863
18459TIP3   OH276791   4.590   1.458  11.371  0.1673 -0.3637  0.6896
18459TIP3    H176792   4.514   1.412  11.407 -0.4127  0.2913  0.3304
18459TIP3    H276793   4.665   1.404  11.396 -0.4413 -1.1804  0.7924
18460TIP3   OH276794   0.248   5.541   1.330  0.5192  0.4338 -0.0230
18460TIP3    H176795   0.338   5.542   1.299  1.0850 -0.3401  1.5027
18460TIP3    H276796   0.239   5.457   1.375 -1.1332  0.2624 -0.5761
18461TIP3   OH276797   2.385   6.234  15.608  0.3445  0.6586  0.2688
18461TIP3    H176798   2.337   6.248  15.690  1.1496 -1.1707  1.0858
18461TIP3    H276799   2.458   6.178  15.631  1.8088  1.8010 -1.3347
18462TIP3   OH276800   5.497   2.298  13.194  0.0731 -0.2357 -0.0852
18462TIP3    H176801   5.587   2.276  13.170 -0.2179 -2.5701  0.6669
18462TIP3    H276802   5.501   2.391  13.218  2.0027  0.0424 -1.2216
18463TIP3   OH276803   4.998   2.950  13.910  0.2147  0.3918 -0.2157
18463TIP3    H176804   5.084   2.963  13.870  0.4839  2.5928  0.9176
18463TIP3    H276805   5.015   2.898  13.988  0.2153 -0.7047 -0.9165
18464TIP3   OH276806   2.127   1.943  13.480  0.4326  0.1030  0.2472
18464TIP3    H176807   2.171   2.028  13.486  1.1650 -0.2248 -0.4381
18464TIP3    H276808   2.098   1.937  13.389 -1.3652  0.4641  0.7525
18465TIP3   OH276809   2.606   4.555   4.257 -0.1634  0.1653  0.2059
18465TIP3    H176810   2.689   4.594   4.228  0.8265 -0.8595  1.5349
18465TIP3    H276811   2.604   4.571   4.352 -0.5629 -1.4624  0.4951
18466TIP3   OH276812   5.011   6.222   6.573 -0.3723 -0.3394  1.0735
18466TIP3    H176813   5.078   6.189   6.632 -0.3132 -0.9367  0.6854
18466TIP3    H276814   4.983   6.145   6.523  0.3927  0.3396 -0.4844
18467TIP3   OH276815   0.526   4.058   4.600 -0.0070 -0.5158 -0.0421
18467TIP3    H176816   0.526   4.100   4.686 -1.4597 -1.0473  0.2431
18467TIP3    H276817   0.443   4.083   4.561  0.4740 -0.5945 -1.1532
18468TIP3   OH276818   6.006   2.637   5.865  0.2517  0.4818 -0.7454
18468TIP3    H176819   5.979   2.546   5.852 -2.0977  1.1341 -0.8217
18468TIP3    H276820   5.971   2.684   5.789  0.2954  1.6798 -0.0511
18469TIP3   OH276821   1.641   1.101  15.186 -0.4668  0.0783 -0.4093
18469TIP3    H176822   1.575   1.111  15.118 -0.6576 -1.5679 -0.5126
18469TIP3    H276823   1.622   1.170  15.249 -0.4594  1.4487 -1.8627
18470TIP3   OH276824   4.287   5.734  13.952  0.6256 -0.2200 -0.5204
18470TIP3    H176825   4.367   5.773  13.916 -0.2764  2.4898  0.1676
18470TIP3    H276826   4.232   5.716  13.876  0.7848  0.5656 -0.8298
18471TIP3   OH276827   3.739   5.116   1.708 -0.0737 -0.0891  0.3583
18471TIP3    H176828   3.655   5.071   1.722  0.1663 -0.4415  0.7055
18471TIP3    H276829   3.798   5.075   1.771  0.8982 -1.2871 -1.2611
18472TIP3   OH276830   6.413   0.414   4.033 -0.0569  0.3705 -0.0351
18472TIP3    H176831   6.388   0.430   4.124 -1.1584  0.4923 -0.3448
18472TIP3    H276832   6.425   0.319   4.028 -0.3301  0.3240  0.1589
18473TIP3   OH276833   5.895   3.920   5.111  0.0800  0.7572  0.2843
18473TIP3    H176834   5.872   4.010   5.088  0.8283  0.9798  0.3739
18473TIP3    H276835   5.887   3.872   5.028 -1.2561  0.6940  0.4308
18474TIP3   OH276836   1.613   5.608  10.948 -0.1016 -0.2892  0.3231
18474TIP3    H176837   1.603   5.676  10.882 -2.0038 -0.4302  0.3975
18474TIP3    H276838   1.628   5.528  10.899 -0.1082 -0.1656  0.1190
18475TIP3   OH276839   3.974   0.638   2.187 -0.0709 -0.6071 -0.3501
18475TIP3    H176840   4.069   0.640   2.195 -0.1473 -0.4939  0.7329
18475TIP3    H276841   3.953   0.706   2.124  0.5044  0.0144  0.1185
18476TIP3   OH276842   5.320   3.398   3.770 -0.1301  0.1959 -0.6549
18476TIP3    H176843   5.311   3.343   3.848  2.7712 -0.7018 -0.8426
18476TIP3    H276844   5.375   3.471   3.799 -1.2710  1.3446 -1.2480
18477TIP3   OH276845   6.001   6.309   3.342 -0.0137 -0.0465  0.8586
18477TIP3    H176846   6.001   6.220   3.377 -0.6154 -0.1955  0.5080
18477TIP3    H276847   6.029   6.364   3.415  1.1896 -0.6065  0.8384
18478TIP3   OH276848   1.162   0.119  12.743 -0.2042  0.1651  0.8571
18478TIP3    H176849   1.121   0.072  12.815 -0.3909  0.9907  1.3041
18478TIP3    H276850   1.251   0.137  12.772 -0.8104  2.1028  1.6849
18479TIP3   OH276851   1.046   1.504   6.593  0.2103  0.1142 -0.3581
18479TIP3    H176852   1.092   1.438   6.646 -3.2152 -2.5135 -0.3031
18479TIP3    H276853   1.019   1.571   6.656  0.2662 -0.5342  0.3733
18480TIP3   OH276854   5.779   6.585  15.107 -0.8427 -0.0326  0.6395
18480TIP3    H176855   5.858   6.638  15.095 -2.0209  1.5951 -0.3340
18480TIP3    H276856   5.707   6.646  15.090 -2.2652 -2.1523 -1.4335
18481TIP3   OH276857   2.949   6.740  11.190 -0.1448 -0.3050  0.2845
18481TIP3    H176858   2.884   6.808  11.210  0.6151  0.5859 -0.1754
18481TIP3    H276859   2.927   6.712  11.101 -0.9452 -1.2568  0.7604
18482TIP3   OH276860   3.705   3.394   4.899 -0.4472 -0.2379  0.5948
18482TIP3    H176861   3.683   3.461   4.964 -1.9528 -1.5034  1.4724
18482TIP3    H276862   3.795   3.370   4.920  0.0108  1.2485  0.4688
18483TIP3   OH276863   0.786   2.783  12.134  0.2962 -0.5509 -0.1830
18483TIP3    H176864   0.706   2.735  12.118 -1.5777  2.3532 -0.2910
18483TIP3    H276865   0.779   2.813  12.225  1.1656 -0.0916 -0.2535
18484TIP3   OH276866   3.457   3.101   5.378  0.0460 -0.3419  0.2122
18484TIP3    H176867   3.445   3.079   5.470  0.8249 -0.2071  0.3556
18484TIP3    H276868   3.467   3.197   5.377 -2.9566  0.0745 -0.3643
18485TIP3   OH276869   6.674   3.336  13.748 -0.1708 -0.0915  0.6283
18485TIP3    H176870   6.755   3.285  13.743  0.8026  1.4144  0.5571
18485TIP3    H276871   6.636   3.328  13.660  0.9588  0.8479  0.0336
18486TIP3   OH276872   0.152   5.965   5.548  0.7740  0.3317 -0.0479
18486TIP3    H176873   0.187   5.980   5.460 -0.3099 -2.4678 -1.0829
18486TIP3    H276874   0.223   5.919   5.594  0.5749 -0.1374 -0.2026
18487TIP3   OH276875   5.804   5.920   0.795 -0.4073  0.3333  0.0595
18487TIP3    H176876   5.810   5.997   0.853  1.1069  1.6819 -1.7332
18487TIP3    H276877   5.824   5.955   0.708  0.6868 -2.1713 -0.7772
18488TIP3   OH276878   0.660   2.902  13.958 -0.3726 -0.3387  0.2710
18488TIP3    H176879   0.601   2.876  13.887 -0.6356 -2.6189  1.2490
18488TIP3    H276880   0.748   2.886  13.923 -0.4508 -0.2436  0.0267
18489TIP3   OH276881   6.731   4.842  11.897 -0.1915  0.4972  0.5751
18489TIP3    H176882   6.664   4.910  11.904 -0.0087  0.6727  0.6360
18489TIP3    H276883   6.684   4.760  11.915 -0.2861  0.6733  1.1515
18490TIP3   OH276884   0.643   2.582   4.693  0.3738  0.0572 -0.0805
18490TIP3    H176885   0.610   2.670   4.674  0.5615  0.1637  0.0809
18490TIP3    H276886   0.590   2.524   4.638 -0.9980  0.0885  1.1605
18491TIP3   OH276887   5.279   1.580  12.625 -0.7750  0.2458  0.1933
18491TIP3    H176888   5.304   1.548  12.711 -0.5417  0.0102  0.0411
18491TIP3    H276889   5.204   1.637  12.641 -0.9631 -0.0916  0.5089
18492TIP3   OH276890   5.096   1.373   4.352  0.0037 -0.1277  0.3011
18492TIP3    H176891   5.174   1.349   4.403 -0.8462  0.3708  1.8992
18492TIP3    H276892   5.074   1.461   4.383 -0.1908  0.4554 -1.4115
18493TIP3   OH276893   0.705   1.765  13.117 -0.1656 -0.3834  0.0690
18493TIP3    H176894   0.768   1.733  13.052 -0.2975 -0.3481 -0.0786
18493TIP3    H276895   0.619   1.749  13.076 -0.2346  2.5647 -1.1950
18494TIP3   OH276896   1.633   2.416  16.464  0.8461  0.0786 -0.0246
18494TIP3    H176897   1.722   2.443  16.441  0.0401  1.1746 -2.1925
18494TIP3    H276898   1.577   2.474  16.413 -1.1418 -0.3092  1.6155
18495TIP3   OH276899   5.740   0.788   0.565 -0.1530  0.9331 -0.3572
18495TIP3    H176900   5.686   0.787   0.486 -2.0161  0.3164  0.8555
18495TIP3    H276901   5.707   0.863   0.616 -0.2579  0.2403  0.6307
18496TIP3   OH276902   4.558   6.364   0.195 -0.3116  0.4169  0.1053
18496TIP3    H176903   4.531   6.373   0.286 -1.3082  2.1874 -0.3260
18496TIP3    H276904   4.547   6.270   0.176 -0.4572  0.0933  1.6828
18497TIP3   OH276905   1.857   3.692   5.015  0.2405 -0.1824  0.4258
18497TIP3    H176906   1.934   3.637   5.030  0.2695  0.0854  1.3420
18497TIP3    H276907   1.829   3.671   4.926  0.0894 -1.8639  0.8459
18498TIP3   OH276908   0.692   3.991  11.704 -0.7849  0.0625 -0.0983
18498TIP3    H176909   0.749   4.068  11.695 -0.6092 -0.1240 -0.6564
18498TIP3    H276910   0.731   3.926  11.645 -1.2858 -0.2435 -0.0955
18499TIP3   OH276911   1.737   0.359  14.836  0.1136  0.1155 -0.3714
18499TIP3    H176912   1.730   0.328  14.746 -0.5591 -0.5657 -0.0995
18499TIP3    H276913   1.823   0.329  14.865  0.0767 -0.2112 -0.5887
18500TIP3   OH276914   3.619   3.807  12.840  0.6351 -0.3143  0.3690
18500TIP3    H176915   3.590   3.729  12.888  1.3832 -0.0265  1.3303
18500TIP3    H276916   3.667   3.772  12.765 -0.6690 -0.7745 -0.2847
18501TIP3   OH276917   3.536   1.973   2.365  0.2625  0.0812  0.4369
18501TIP3    H176918   3.565   2.035   2.298  0.4455  0.8095  1.1652
18501TIP3    H276919   3.490   1.905   2.317  0.7885  0.3505 -0.4690
18502TIP3   OH276920   6.166   4.006  12.679  0.0515  0.3544 -0.1899
18502TIP3    H176921   6.217   3.958  12.615 -1.6703 -0.7857 -0.7933
18502TIP3    H276922   6.172   3.954  12.760 -1.0307 -0.4059 -0.5764
18503TIP3   OH276923   5.260   6.586  14.146  0.4563 -0.2325  0.2364
18503TIP3    H176924   5.309   6.504  14.141  0.3232 -0.4209  1.6003
18503TIP3    H276925   5.323   6.649  14.180  0.2641 -0.0370  0.2275
18504TIP3   OH276926   5.324   1.899  16.039 -0.0611 -0.2362 -0.1232
18504TIP3    H176927   5.300   1.831  15.976 -0.4921 -0.3125  0.1235
18504TIP3    H276928   5.245   1.913  16.091  0.4327 -0.5051  0.7090
18505TIP3   OH276929   4.867   5.128   4.326 -0.2465 -0.0943 -0.1427
18505TIP3    H176930   4.897   5.216   4.348  0.7807 -0.7644  1.2211
18505TIP3    H276931   4.946   5.080   4.302 -0.6806 -0.8859 -0.0396
18506TIP3   OH276932   2.896   2.522  11.388 -0.3399  0.2985 -0.4114
18506TIP3    H176933   2.893   2.617  11.403  2.9689  0.2443  1.6905
18506TIP3    H276934   2.871   2.484  11.472 -0.3524 -0.6514 -0.8410
18507TIP3   OH276935   3.742   6.625   5.378 -0.2280  0.7183 -0.5354
18507TIP3    H176936   3.706   6.565   5.444 -0.2863  1.9855  0.6216
18507TIP3    H276937   3.806   6.572   5.332 -1.8667 -0.9089 -1.0881
18508TIP3   OH276938   5.205   1.118   2.996 -0.0357 -0.4853 -0.1965
18508TIP3    H176939   5.221   1.032   2.958 -0.2154 -0.2320 -0.8558
18508TIP3    H276940   5.286   1.166   2.980  0.5657 -0.9251  1.3245
18509TIP3   OH276941   0.484   5.788   4.669  0.5268  0.2650  0.0030
18509TIP3    H176942   0.530   5.872   4.677 -0.1450  0.6769 -0.3525
18509TIP3    H276943   0.404   5.800   4.721  0.1993  0.0154 -0.4408
18510TIP3   OH276944   5.718   2.899  11.890  0.0762 -0.1252 -0.1709
18510TIP3    H176945   5.784   2.922  11.826  0.8843 -0.8099  0.3931
18510TIP3    H276946   5.684   2.815  11.861 -0.0891 -0.0822 -0.1062
18511TIP3   OH276947   3.153   4.523   1.422  0.4502 -0.6249  0.4967
18511TIP3    H176948   3.121   4.475   1.345 -0.3861 -2.3122  1.8484
18511TIP3    H276949   3.107   4.484   1.496 -0.5845  2.5338  1.6888
18512TIP3   OH276950   5.529   4.061  11.642 -0.2626  0.4298 -0.7917
18512TIP3    H176951   5.583   4.095  11.570  1.5522 -1.0992 -0.2513
18512TIP3    H276952   5.466   4.003  11.600  1.2483 -1.0151 -1.1597
18513TIP3   OH276953   4.112   6.603  14.399 -0.1190  0.3143 -0.3091
18513TIP3    H176954   4.115   6.544  14.323 -1.0715 -1.0990  0.7130
18513TIP3    H276955   4.042   6.664  14.378 -0.7028 -0.3613 -0.3895
18514TIP3   OH276956   6.096   5.558  13.571 -0.3501  0.0035 -0.4493
18514TIP3    H176957   6.045   5.576  13.650 -0.8794  0.2272 -0.8392
18514TIP3    H276958   6.178   5.606  13.586 -0.2332 -0.3728  0.1841
18515TIP3   OH276959   0.571   4.267   3.884  0.5427  0.0323 -0.3345
18515TIP3    H176960   0.532   4.224   3.808  0.6482  1.5585 -1.2940
18515TIP3    H276961   0.521   4.234   3.959 -0.9331  0.0297 -1.2832
18516TIP3   OH276962   6.423   1.277  12.941 -0.2248  0.2382 -0.1381
18516TIP3    H176963   6.473   1.313  13.014 -1.5867  1.7799  0.0920
18516TIP3    H276964   6.442   1.183  12.943  2.3507  0.6789  0.1294
18517TIP3   OH276965   3.531   3.561   5.766 -0.0474 -0.7595 -0.2099
18517TIP3    H176966   3.449   3.607   5.782  0.5595 -0.4087  2.1757
18517TIP3    H276967   3.593   3.630   5.742 -0.2753 -0.9678 -1.5016
18518TIP3   OH276968   0.914   4.134  11.968 -0.0997  0.5864 -0.0630
18518TIP3    H176969   0.898   4.069  12.036  0.9150 -0.9451 -1.2271
18518TIP3    H276970   1.005   4.160  11.982  0.8769 -1.4200 -2.1166
18519TIP3   OH276971   2.103   1.694   2.817 -1.0230  0.2520 -0.1029
18519TIP3    H176972   2.021   1.689   2.867 -0.6211 -2.6139  0.4398
18519TIP3    H276973   2.168   1.722   2.882 -0.7702 -2.0838  0.7649
18520TIP3   OH276974   0.276   6.319   3.926  0.4947  0.3652 -0.6571
18520TIP3    H176975   0.299   6.407   3.957  1.7235  0.5845 -2.1035
18520TIP3    H276976   0.207   6.334   3.861  1.5589  0.4084 -1.8128
18521TIP3   OH276977   2.730   2.060  16.896  0.3992  0.1493 -0.1739
18521TIP3    H176978   2.636   2.050  16.882  0.4411  0.3931 -0.6439
18521TIP3    H276979   2.762   1.971  16.907 -0.0953  0.1280  1.3939
18522TIP3   OH276980   6.029   1.018   5.407 -0.3493 -0.6689  0.2430
18522TIP3    H176981   6.007   1.107   5.435 -2.4907 -0.7825 -0.8653
18522TIP3    H276982   6.072   0.979   5.483 -1.9291  0.4319  1.7818
18523TIP3   OH276983   4.081   4.240   4.569  0.3883 -0.2230  0.6069
18523TIP3    H176984   4.006   4.290   4.535 -2.0620 -2.1838  2.6587
18523TIP3    H276985   4.124   4.206   4.491 -0.0939  1.9142 -0.6970
18524TIP3   OH276986   2.623   0.007   3.548 -0.0230  0.0495  0.1138
18524TIP3    H176987   2.613   0.080   3.610  2.4086  0.3326  0.2563
18524TIP3    H276988   2.715  -0.019   3.556 -0.6366 -2.5951 -0.4581
18525TIP3   OH276989   6.438   0.285   2.440  0.1059 -0.2546  0.2242
18525TIP3    H176990   6.488   0.245   2.511 -1.7180 -1.7390  0.7550
18525TIP3    H276991   6.424   0.214   2.377  0.0244  0.5370 -0.6734
18526TIP3   OH276992   5.512   6.568  13.915  0.5447  0.0032 -0.3118
18526TIP3    H176993   5.554   6.654  13.917 -0.8343  0.6819  1.5134
18526TIP3    H276994   5.444   6.577  13.848  1.1086 -0.0497 -0.9093
18527TIP3   OH276995   1.509   3.005  13.960 -0.3605 -0.0999  0.6036
18527TIP3    H176996   1.593   2.965  13.938  0.2537  1.4809 -0.0822
18527TIP3    H276997   1.447   2.967  13.898 -0.3917 -2.0156  1.7457
18528TIP3   OH276998   0.630   3.302  14.465 -0.1061  0.2530  0.1847
18528TIP3    H176999   0.619   3.385  14.420 -0.8311 -0.6138 -1.3015
18528TIP3    H277000   0.725   3.289  14.469 -0.0196  0.2828 -1.2700
18529TIP3   OH277001   4.193   0.867   0.174  0.3625 -0.3958 -0.3640
18529TIP3    H177002   4.219   0.784   0.212 -0.3639  0.5640  2.4992
18529TIP3    H277003   4.171   0.922   0.250  1.0865  2.5000 -2.1048
18530TIP3   OH277004   1.784   5.167  16.432  0.3141  0.0026 -0.1429
18530TIP3    H177005   1.840   5.178  16.355 -1.8240  0.6428 -1.7210
18530TIP3    H277006   1.819   5.229  16.496  2.4667 -0.9284 -0.3424
18531TIP3   OH277007   6.159   5.307   6.103  0.1313 -0.6253 -0.2460
18531TIP3    H177008   6.123   5.222   6.126  0.0861 -0.7701 -0.8514
18531TIP3    H277009   6.252   5.291   6.090  0.5069 -0.2093  1.5511
18532TIP3   OH277010   4.530   1.303   5.965 -0.4642 -0.0880 -0.7988
18532TIP3    H177011   4.606   1.277   5.913 -0.3985 -0.4032 -0.5463
18532TIP3    H277012   4.563   1.375   6.019 -0.3018 -0.3224 -0.5824
18533TIP3   OH277013   5.175   3.240  13.384  0.1690 -0.5054 -0.9386
18533TIP3    H177014   5.145   3.321  13.424 -0.0463 -0.9560 -0.1837
18533TIP3    H277015   5.112   3.174  13.410 -1.0380 -0.5066 -3.5063
18534TIP3   OH277016   1.213   6.048  12.563 -0.2422  0.2066  0.3192
18534TIP3    H177017   1.139   6.096  12.599 -2.5434 -0.3588 -3.1636
18534TIP3    H277018   1.266   6.114  12.519  0.8993  0.4870  2.0461
18535TIP3   OH277019   4.137   6.331  11.583  0.1046  0.3426 -0.8426
18535TIP3    H177020   4.054   6.285  11.590  0.1456  0.3777 -0.0493
18535TIP3    H277021   4.114   6.424  11.587  0.3277  0.3413  1.4219
18536TIP3   OH277022   4.857   1.469   2.047 -0.2199 -0.0588  0.2613
18536TIP3    H177023   4.772   1.499   2.080 -0.8580  0.6181 -1.8851
18536TIP3    H277024   4.916   1.479   2.122 -1.6025  1.3070  1.2350
18537TIP3   OH277025   5.310   3.305   2.495  0.5540 -0.2526  0.2899
18537TIP3    H177026   5.279   3.388   2.459 -1.3579 -0.3209  1.6456
18537TIP3    H277027   5.385   3.282   2.440 -1.9911 -0.2924 -3.5854
18538TIP3   OH277028   2.705   5.720   0.367 -0.3328  0.0601 -0.1940
18538TIP3    H177029   2.773   5.787   0.376  0.7332 -1.0205 -0.1192
18538TIP3    H277030   2.657   5.725   0.450  0.9351 -0.5533  0.5956
18539TIP3   OH277031   2.350   2.664   3.412 -0.4989 -0.2749 -0.1889
18539TIP3    H177032   2.303   2.652   3.495  1.2759 -0.7658  0.7900
18539TIP3    H277033   2.382   2.754   3.415  1.5266 -0.9802  0.7649
18540TIP3   OH277034   4.869   3.128  15.936 -0.5715 -0.0771  0.3777
18540TIP3    H177035   4.961   3.152  15.939 -0.8299  0.9520  0.5850
18540TIP3    H277036   4.826   3.205  15.897 -1.4371 -0.2158  1.0347
18541TIP3   OH277037   6.083   0.540   5.797 -0.0648 -0.2858  0.0453
18541TIP3    H177038   6.079   0.454   5.840  0.7104 -1.1780 -1.5735
18541TIP3    H277039   6.015   0.537   5.731 -0.3750  0.5661  0.3143
18542TIP3   OH277040   0.160   5.790  15.338  0.0036  0.0647 -0.3019
18542TIP3    H177041   0.240   5.746  15.368 -0.5514 -0.7825 -0.0335
18542TIP3    H277042   0.150   5.864  15.398 -0.2792 -0.7525  0.6975
18543TIP3   OH277043   4.046   4.557  12.692 -0.2886 -0.8929  0.1757
18543TIP3    H177044   3.991   4.523  12.621 -1.9884  0.3095  0.8567
18543TIP3    H277045   4.117   4.492  12.700 -1.1671 -2.1039 -1.2426
18544TIP3   OH277046   0.720   2.282  12.551  0.5489 -0.0414 -0.3444
18544TIP3    H177047   0.696   2.240  12.468 -1.5469  1.8718 -0.8148
18544TIP3    H277048   0.792   2.341  12.527  0.3300  0.0847 -0.7153
18545TIP3   OH277049   1.175   6.265  16.143  0.0312 -0.0372  0.7486
18545TIP3    H177050   1.243   6.234  16.203  0.7560 -0.5223 -0.2997
18545TIP3    H277051   1.100   6.208  16.159  0.0425  0.1585  1.5308
18546TIP3   OH277052   2.760   0.392  12.998  0.9134 -0.7306  0.0007
18546TIP3    H177053   2.739   0.483  13.019 -1.9669 -1.0263 -1.0961
18546TIP3    H277054   2.702   0.341  13.054  2.1498 -1.8980  0.2550
18547TIP3   OH277055   5.562   3.798  16.517  0.0757  0.3442  0.1087
18547TIP3    H177056   5.621   3.791  16.442  1.3049  4.0796  0.5342
18547TIP3    H277057   5.475   3.778  16.480  0.8253  0.6306 -1.9866
18548TIP3   OH277058   3.196   3.348  13.076  0.2020  0.4192  0.1509
18548TIP3    H177059   3.226   3.297  13.000 -0.5511  1.1838 -0.6731
18548TIP3    H277060   3.103   3.329  13.081 -0.0773  1.6430 -0.1237
18549TIP3   OH277061   3.920   4.503  13.964 -0.3128 -0.0483 -0.7725
18549TIP3    H177062   3.975   4.438  14.007  0.7136  1.0208 -0.3843
18549TIP3    H277063   3.835   4.462  13.955  0.5469 -1.7850 -1.4121
18550TIP3   OH277064   2.870   1.829   5.858  0.0941 -0.0723 -0.5889
18550TIP3    H177065   2.850   1.812   5.950 -0.8332 -2.2470 -1.1276
18550TIP3    H277066   2.963   1.851   5.857  0.2988 -0.7329  0.7957
18551TIP3   OH277067   3.420   0.797  12.423 -0.0837  0.1053 -0.2243
18551TIP3    H177068   3.452   0.833  12.506 -0.1199 -0.0175 -0.1551
18551TIP3    H277069   3.448   0.859  12.357  1.1537 -0.4731 -0.2880
18552TIP3   OH277070   3.106   2.060  16.287  0.5560  0.2930 -0.2670
18552TIP3    H177071   3.163   2.107  16.226  1.1381 -0.5522 -0.4023
18552TIP3    H277072   3.163   1.993  16.325 -0.3482 -0.5742 -0.4072
18553TIP3   OH277073   3.728   6.233  14.962 -0.0799  0.1188  0.3209
18553TIP3    H177074   3.808   6.205  15.008 -0.0067 -0.3757 -0.0992
18553TIP3    H277075   3.737   6.328  14.954  2.5096 -0.2095 -3.3459
18554TIP3   OH277076   5.006   2.474  15.877  0.0305  0.5002 -0.0556
18554TIP3    H177077   4.990   2.504  15.967  1.9656 -0.3852  0.6237
18554TIP3    H277078   5.064   2.399  15.887 -1.9438 -1.3905 -1.9134
18555TIP3   OH277079   3.255   0.226  13.844 -0.0506 -0.0580  0.2688
18555TIP3    H177080   3.233   0.234  13.937  2.3660  0.1511  0.8830
18555TIP3    H277081   3.344   0.260  13.837 -0.1154 -0.2031 -2.1194
18556TIP3   OH277082   1.671   3.618   0.236  0.8963  0.1410 -0.0377
18556TIP3    H177083   1.727   3.581   0.305  0.5459  0.6591  0.5347
18556TIP3    H277084   1.584   3.621   0.275  0.5326 -0.3163 -0.7969
18557TIP3   OH277085   4.797   4.655   3.850 -0.2750  0.3398 -0.5660
18557TIP3    H177086   4.875   4.657   3.795  1.4416 -1.2820  1.5916
18557TIP3    H277087   4.748   4.579   3.819 -0.0660  0.2983 -0.7953
18558TIP3   OH277088   6.395   5.245   4.914  0.0999  0.2942  0.1449
18558TIP3    H177089   6.430   5.269   5.000  0.2931  0.1861  0.0988
18558TIP3    H277090   6.399   5.327   4.863  0.7078  0.1891  0.0042
18559TIP3   OH277091   0.888   5.519   2.826 -0.5419 -0.2526 -0.2219
18559TIP3    H177092   0.829   5.481   2.761 -2.2024  2.1624 -0.2634
18559TIP3    H277093   0.847   5.602   2.850  1.1688 -0.0136  2.2818
18560TIP3   OH277094   1.015   5.229   6.145 -0.2600  0.3690 -0.2481
18560TIP3    H177095   1.063   5.203   6.066 -0.9119  0.7539 -0.7797
18560TIP3    H277096   1.025   5.154   6.204  0.3430  0.1290 -0.6408
18561TIP3   OH277097   5.635   3.435   3.111  0.3027 -0.1808  0.6603
18561TIP3    H177098   5.616   3.385   3.190 -0.0949 -1.6586 -0.3321
18561TIP3    H277099   5.605   3.379   3.040  0.8698  1.0180 -0.5556
18562TIP3   OH277100   1.956   6.595  12.782  0.3649 -0.1832 -0.1556
18562TIP3    H177101   1.996   6.519  12.824  1.1038 -0.4470 -1.3200
18562TIP3    H277102   1.864   6.590  12.808  1.0718  0.7697  3.0635
18563TIP3   OH277103   0.108   3.161  15.178 -0.6676 -0.1103  0.4650
18563TIP3    H177104   0.124   3.067  15.184 -0.8639 -0.0895  1.5584
18563TIP3    H277105   0.137   3.195  15.263 -0.1889  0.8797 -0.0866
18564TIP3   OH277106   2.264   6.518  12.836 -0.7697 -0.1302 -0.3282
18564TIP3    H177107   2.205   6.442  12.837  1.0134 -1.5880  1.2494
18564TIP3    H277108   2.244   6.565  12.917  0.3762 -0.8004  0.3681
18565TIP3   OH277109   2.836   0.764   3.038 -0.3227  0.2232 -0.3074
18565TIP3    H177110   2.776   0.721   3.098  0.7550 -0.7164  0.1462
18565TIP3    H277111   2.843   0.705   2.963  0.6404 -0.0755  0.0065
18566TIP3   OH277112   4.473   6.445   4.230 -0.0567  0.1081 -0.0055
18566TIP3    H177113   4.535   6.431   4.159 -0.2128 -0.3394 -0.0548
18566TIP3    H277114   4.526   6.443   4.309 -0.0659 -0.6853 -0.0194
18567TIP3   OH277115   0.956   0.370   4.228 -0.0705 -0.6034 -0.1135
18567TIP3    H177116   0.955   0.377   4.323 -0.0618 -0.3806 -0.1309
18567TIP3    H277117   0.942   0.276   4.211  0.6255 -0.7531  0.1173
18568TIP3   OH277118   0.087   1.565  15.473 -0.0018  0.0325 -0.3048
18568TIP3    H177119   0.077   1.537  15.382 -0.7274 -0.0852 -0.2010
18568TIP3    H277120   0.126   1.652  15.468 -0.1035  0.0550 -0.7363
18569TIP3   OH277121   2.243   4.992   6.288 -0.1158 -0.4005  0.0730
18569TIP3    H177122   2.270   4.952   6.206  1.2072 -1.4410  0.9618
18569TIP3    H277123   2.272   4.930   6.355 -2.2946 -0.2127  1.2875
18570TIP3   OH277124   4.885   4.034  17.108 -0.3462  0.0061 -0.4519
18570TIP3    H177125   4.830   3.960  17.083 -2.1817 -0.0094  3.0877
18570TIP3    H277126   4.975   3.999  17.104 -1.0098 -1.7761 -0.8161
18571TIP3   OH277127   6.247   6.291  12.735  0.1825 -0.0386 -0.3375
18571TIP3    H177128   6.189   6.287  12.659 -1.5068 -0.7325  0.9241
18571TIP3    H277129   6.334   6.275  12.700 -0.3615  1.0973 -2.3134
18572TIP3   OH277130   3.848   6.097  12.917 -0.0934  0.3744 -0.4103
18572TIP3    H177131   3.865   6.135  13.003  1.5215  0.7383 -0.8684
18572TIP3    H277132   3.794   6.162  12.872 -1.7701 -0.2300  0.6153
18573TIP3   OH277133   2.357   3.504   3.344 -0.0887  0.4096  0.0612
18573TIP3    H177134   2.373   3.565   3.272 -1.4493  1.5515  0.6558
18573TIP3    H277135   2.398   3.546   3.420 -0.9973  0.5900  0.4659
18574TIP3   OH277136   6.009   0.494  12.340  0.0204 -0.2058 -0.1711
18574TIP3    H177137   6.090   0.499  12.289 -0.2115 -0.5900 -0.5860
18574TIP3    H277138   5.948   0.550  12.292  0.5116  1.4527  1.0640
18575TIP3   OH277139   1.762   4.769  16.385 -0.1053  0.3292 -0.8170
18575TIP3    H177140   1.755   4.796  16.477 -0.9910  1.0129 -1.0712
18575TIP3    H277141   1.677   4.728  16.366 -0.4060  1.3025 -1.6623
18576TIP3   OH277142   1.539   5.522   0.815 -0.7889  0.1381 -0.8753
18576TIP3    H177143   1.487   5.600   0.833 -0.5180  0.1978 -0.3395
18576TIP3    H277144   1.605   5.551   0.752  0.3013  0.7575  0.4920
18577TIP3   OH277145   6.000   6.631  11.563 -0.2036 -0.6651  0.2257
18577TIP3    H177146   6.030   6.715  11.599 -2.8310  0.5451 -0.1548
18577TIP3    H277147   6.064   6.567  11.594  0.3375  1.0372  2.9879
18578TIP3   OH277148   6.427   4.989  15.638 -0.6812  0.6660 -0.0704
18578TIP3    H177149   6.334   5.002  15.660 -0.4414  1.5273  0.4835
18578TIP3    H277150   6.444   5.055  15.570  0.3608  2.9462  2.2284
18579TIP3   OH277151   3.456   4.797   5.986  0.0536 -0.2272 -0.2437
18579TIP3    H177152   3.447   4.761   6.074 -2.8881  2.0551  0.5105
18579TIP3    H277153   3.526   4.744   5.947  0.4157 -2.3577  2.8728
18580TIP3   OH277154   0.745   3.792  14.821  0.3579 -0.3454  0.7041
18580TIP3    H177155   0.761   3.700  14.844 -0.7116  0.0207  3.1866
18580TIP3    H277156   0.833   3.829  14.810  0.9544 -0.9652  2.8203
18581TIP3   OH277157   2.191   6.022  11.746  0.2194 -0.2554  0.1156
18581TIP3    H177158   2.268   6.005  11.801 -0.1962 -1.1866  0.4251
18581TIP3    H277159   2.227   6.032  11.658  0.6590 -1.2220  0.1719
18582TIP3   OH277160   2.611   2.078  14.983  0.0546 -0.6418  0.1849
18582TIP3    H177161   2.532   2.058  15.034  1.2308 -1.2622  1.8468
18582TIP3    H277162   2.638   1.994  14.948  1.7782 -1.0916  2.3861
18583TIP3   OH277163   4.892   0.950   2.202 -0.4196 -0.2860 -0.2580
18583TIP3    H177164   4.949   0.926   2.129 -2.1920  0.1620 -1.8715
18583TIP3    H277165   4.846   1.028   2.172 -0.2943  0.6978  1.8841
18584TIP3   OH277166   5.675   4.413   0.963 -0.1467  0.4317 -0.0101
18584TIP3    H177167   5.624   4.494   0.966 -0.8918 -0.0379  1.9623
18584TIP3    H277168   5.751   4.430   1.018  0.4934  0.2588 -0.8157
18585TIP3   OH277169   3.748   2.256   1.092 -0.1948 -0.1772 -0.1261
18585TIP3    H177170   3.759   2.183   1.153 -2.8712  0.8698  1.8038
18585TIP3    H277171   3.687   2.224   1.026 -0.4233 -0.0643  0.0301
18586TIP3   OH277172   2.704   6.566   0.349  0.1268  0.0730  0.0947
18586TIP3    H177173   2.727   6.659   0.352  2.4009 -0.4025 -0.6249
18586TIP3    H277174   2.708   6.543   0.256 -0.0577 -0.8355  0.2983
18587TIP3   OH277175   1.425   6.135  16.705 -0.0587 -1.1844 -0.1341
18587TIP3    H177176   1.395   6.223  16.725 -0.7485 -1.0689 -1.5499
18587TIP3    H277177   1.382   6.080  16.771  0.1723 -0.5171  0.5943
18588TIP3   OH277178   6.002   3.258   6.015 -0.2562  0.2397 -0.1183
18588TIP3    H177179   6.028   3.309   6.092 -2.8468  0.9668  0.3757
18588TIP3    H277180   6.026   3.168   6.036  1.6644  0.8022  0.2742
18589TIP3   OH277181   4.065   6.636  14.650 -0.2081  0.4256  0.6386
18589TIP3    H177182   4.098   6.621  14.562 -2.1162 -0.9312  0.0797
18589TIP3    H277183   4.120   6.581  14.706 -0.3541 -0.4083 -0.0159
18590TIP3   OH277184   1.681   0.520   4.303  0.5022  0.0534 -0.0329
18590TIP3    H177185   1.721   0.511   4.389 -0.1805 -2.2651  0.1002
18590TIP3    H277186   1.740   0.579   4.256 -0.1726  3.0941  2.5695
18591TIP3   OH277187   4.758   5.555  14.573  0.2147  0.1713 -0.0678
18591TIP3    H177188   4.684   5.512  14.532 -0.5077  1.2557  0.0606
18591TIP3    H277189   4.802   5.601  14.502 -0.9189  1.8820  0.2667
18592TIP3   OH277190   4.894   2.123  16.715 -0.5647 -0.1569 -0.2822
18592TIP3    H177191   4.897   2.075  16.632 -1.0791 -0.3380 -0.1989
18592TIP3    H277192   4.863   2.059  16.779 -1.4875  0.3455 -0.2163
18593TIP3   OH277193   3.036   2.149   3.452 -0.1477  0.0560  0.2801
18593TIP3    H177194   3.066   2.175   3.365  1.4516  1.4542  1.1976
18593TIP3    H277195   2.992   2.227   3.487  1.6548  0.5062  1.7345
18594TIP3   OH277196   2.705   0.522  14.256  0.1670 -0.1938 -0.1228
18594TIP3    H177197   2.771   0.489  14.318  0.4704 -1.0734 -0.8836
18594TIP3    H277198   2.752   0.586  14.203  0.5511 -1.1057 -0.9243
18595TIP3   OH277199   4.462   4.301  15.354  0.2036  0.1095 -0.4719
18595TIP3    H177200   4.477   4.318  15.447  3.2100  0.2427 -0.9002
18595TIP3    H277201   4.475   4.386  15.312 -2.0968  0.2698 -1.0021
18596TIP3   OH277202   0.460   0.921   4.131  0.6064 -0.2698 -0.1530
18596TIP3    H177203   0.405   0.957   4.201 -0.3080  0.8585 -1.3926
18596TIP3    H277204   0.524   0.991   4.113  0.6390 -0.4198 -0.6388
18597TIP3   OH277205   3.034   4.807   4.094  0.2432 -0.5783  0.0728
18597TIP3    H177206   2.971   4.874   4.119  0.0993 -0.5604 -0.3379
18597TIP3    H277207   3.108   4.856   4.057 -0.5924 -0.6941 -1.8964
18598TIP3   OH277208   3.830   4.702   3.953 -0.1888  0.4229 -0.3946
18598TIP3    H177209   3.814   4.780   4.007 -1.4801  0.1797 -0.3819
18598TIP3    H277210   3.800   4.727   3.865  0.6065  0.3596 -0.6919
18599TIP3   OH277211   2.399   6.072   5.107 -0.3889 -0.4287 -0.0731
18599TIP3    H177212   2.392   5.984   5.142 -0.4173 -1.5536 -2.6573
18599TIP3    H277213   2.445   6.061   5.023 -0.0827  2.0538 -0.3162
18600TIP3   OH277214   0.009   0.537  14.407 -0.1217 -0.4753 -0.5220
18600TIP3    H177215  -0.050   0.493  14.346 -0.4110  0.3465 -0.8447
18600TIP3    H277216   0.094   0.534  14.363  0.0042 -1.2937 -0.2410
18601TIP3   OH277217   5.934   0.696   6.552  0.3155 -0.1402 -0.3373
18601TIP3    H177218   6.014   0.666   6.509  0.2473  0.8319 -1.1540
18601TIP3    H277219   5.942   0.791   6.556 -0.4489 -0.0890  0.2847
18602TIP3   OH277220   5.818   2.338   5.194  0.0879  0.5427  0.0774
18602TIP3    H177221   5.891   2.368   5.248  2.3261 -3.0470 -0.6470
18602TIP3    H277222   5.854   2.336   5.105 -2.0535  1.8437 -0.9151
18603TIP3   OH277223   3.995   4.951  14.091  0.6051 -0.0207 -0.2395
18603TIP3    H177224   4.085   4.981  14.105  0.4857 -0.2854  1.3824
18603TIP3    H277225   3.972   4.907  14.173 -0.3864 -1.5684 -1.2837
18604TIP3   OH277226   3.500   6.119  15.882  0.1589  0.3006 -0.1036
18604TIP3    H177227   3.518   6.131  15.975 -2.8265  0.8007  0.5232
18604TIP3    H277228   3.458   6.033  15.877 -1.4970  1.1086 -0.6387
18605TIP3   OH277229   6.656   5.030  13.152  0.0986  0.4607 -0.1709
18605TIP3    H177230   6.742   5.036  13.112 -0.2348 -0.4982 -1.0750
18605TIP3    H277231   6.598   5.001  13.081 -0.5857 -0.9249  0.9088
18606TIP3   OH277232   3.894   3.706  12.402 -0.4101  0.1600 -0.4057
18606TIP3    H177233   3.868   3.633  12.458 -0.7514  0.1133 -0.6170
18606TIP3    H277234   3.962   3.670  12.345 -1.5421 -0.3984 -1.4519
18607TIP3   OH277235   4.495   4.531  16.745  0.0534  0.0774  0.5678
18607TIP3    H177236   4.513   4.495  16.832 -0.8806  0.6937  1.0212
18607TIP3    H277237   4.434   4.603  16.760  0.5852  0.7837 -0.5089
18608TIP3   OH277238   5.199   3.466   0.109  0.4056  0.4581 -0.0346
18608TIP3    H177239   5.257   3.540   0.126 -0.6774  2.0680 -2.6237
18608TIP3    H277240   5.114   3.495   0.144  0.6818 -1.1621  2.1869
18609TIP3   OH277241   5.235   1.641  15.918  0.1556  0.5738  0.4559
18609TIP3    H177242   5.273   1.593  15.990 -1.3037 -0.0970  0.8228
18609TIP3    H277243   5.257   1.590  15.840  0.1223  0.2589  0.6508
18610TIP3   OH277244   4.029   1.093  12.463  0.5355  0.7857  0.1345
18610TIP3    H177245   3.966   1.144  12.514  1.0212  0.0639  1.5166
18610TIP3    H277246   3.979   1.019  12.429  0.3389  0.9343  0.1020
18611TIP3   OH277247   0.235   1.418   0.098  0.2069 -0.0143  0.1203
18611TIP3    H177248   0.278   1.461   0.023 -0.8757 -1.2770 -1.2946
18611TIP3    H277249   0.142   1.436   0.085  0.0201  0.0430  1.3973
18612TIP3   OH277250   3.458   2.334  15.910 -0.1792  0.1452 -0.6111
18612TIP3    H177251   3.536   2.379  15.940  0.2853 -0.8231 -0.3159
18612TIP3    H277252   3.485   2.242  15.901 -1.4070 -0.3064  0.0202
18613TIP3   OH277253   4.187   0.607   1.917 -0.3397  0.3950  0.5239
18613TIP3    H177254   4.268   0.656   1.928 -0.4852  0.4147  1.5843
18613TIP3    H277255   4.118   0.668   1.945 -0.7575  0.4905 -0.6596
18614TIP3   OH277256   4.562   1.346  15.563  0.0343 -0.2901  0.3226
18614TIP3    H177257   4.651   1.311  15.554 -0.3865 -0.9936 -1.4660
18614TIP3    H277258   4.569   1.437  15.535  0.1291 -0.4482 -0.1784
18615TIP3   OH277259   0.596   3.144  13.550 -0.0153 -0.0521 -0.6462
18615TIP3    H177260   0.661   3.089  13.594  0.0811  0.0836 -0.6207
18615TIP3    H277261   0.647   3.203  13.495 -0.0088  1.1188  0.5479
18616TIP3   OH277262   0.910   4.913  12.119 -0.1008 -0.2797  0.6020
18616TIP3    H177263   0.983   4.894  12.178 -0.0222  0.8490  0.8930
18616TIP3    H277264   0.838   4.937  12.178 -0.6075 -1.0049  0.3032
18617TIP3   OH277265   1.651   6.355   5.028  0.1207 -0.1440 -0.4423
18617TIP3    H177266   1.665   6.419   5.098  0.0930 -0.8119  0.1865
18617TIP3    H277267   1.563   6.373   4.996 -0.1329 -0.2787  0.1702
18618TIP3   OH277268   5.261   2.155  16.364  0.6354  0.5217 -0.2445
18618TIP3    H177269   5.181   2.204  16.379 -0.0924 -0.6004 -0.3850
18618TIP3    H277270   5.232   2.070  16.332  1.9145  0.5819 -1.7068
18619TIP3   OH277271   4.142   0.808   1.651 -0.2341  0.0667 -0.0859
18619TIP3    H177272   4.122   0.902   1.650  0.4489  0.2239  0.4884
18619TIP3    H277273   4.108   0.777   1.735  0.1066 -0.0714  0.0021
18620TIP3   OH277274   5.428   5.294  16.099  0.0242 -0.0628  0.6696
18620TIP3    H177275   5.373   5.281  16.177 -0.4919  1.0829  0.5128
18620TIP3    H277276   5.513   5.320  16.135  0.1795 -0.8244  0.8813
18621TIP3   OH277277   0.238   1.553   1.626  0.0931 -0.4967 -0.6691
18621TIP3    H177278   0.160   1.546   1.680  2.7768 -3.4318  3.4547
18621TIP3    H277279   0.286   1.628   1.662  0.8263 -1.0284 -0.4984
18622TIP3   OH277280   2.425   0.988   3.675 -0.0048 -0.0335  0.1554
18622TIP3    H177281   2.467   0.977   3.589  1.9528  0.0087  1.0400
18622TIP3    H277282   2.484   0.943   3.736 -2.1422 -1.4162  1.3263
18623TIP3   OH277283   5.686   3.032   6.790  0.4861  0.5352 -0.4250
18623TIP3    H177284   5.756   2.990   6.841  1.6942  2.2835 -0.5463
18623TIP3    H277285   5.607   2.983   6.813  1.1698  0.5046  2.2706
18624TIP3   OH277286   4.379   3.991   1.801  0.4918 -0.8696  0.3791
18624TIP3    H177287   4.429   4.001   1.882  0.7964 -1.0274  0.2113
18624TIP3    H277288   4.340   4.077   1.787  2.7852  0.0585 -0.8420
18625TIP3   OH277289   3.681   5.657  13.215 -1.0010  0.1587 -0.1885
18625TIP3    H177290   3.697   5.628  13.305  1.5456  1.4070 -0.1417
18625TIP3    H277291   3.637   5.741  13.224 -0.4853  0.4216 -0.0815
18626TIP3   OH277292   2.524   0.571   2.383  0.3000  0.1277  0.4619
18626TIP3    H177293   2.482   0.604   2.303 -0.5631 -0.3519  0.7004
18626TIP3    H277294   2.541   0.478   2.364  0.5163  0.1276  0.6633
18627TIP3   OH277295   6.694   1.940   3.649 -0.4257  0.0415  0.1825
18627TIP3    H177296   6.701   1.942   3.554 -1.4609 -0.0678  0.0846
18627TIP3    H277297   6.658   1.853   3.668  0.9170 -0.4104  0.7782
18628TIP3   OH277298   0.954   0.101  12.229  0.0861 -0.2500 -0.3521
18628TIP3    H177299   1.000   0.035  12.281  1.0748  0.4348 -0.3280
18628TIP3    H277300   0.900   0.148  12.292  0.3060 -0.2552 -0.1576
18629TIP3   OH277301   5.434   5.130  11.829 -0.0820  0.0685 -0.0044
18629TIP3    H177302   5.474   5.134  11.743 -3.8768 -1.6578 -2.0862
18629TIP3    H277303   5.378   5.208  11.834 -0.4575 -0.2284  0.6068
18630TIP3   OH277304   0.165   1.240   6.046  0.6244 -0.1896  0.3931
18630TIP3    H177305   0.077   1.202   6.046  0.6596 -0.3149 -0.6407
18630TIP3    H277306   0.220   1.172   6.085 -0.2281  1.3061  4.6969
18631TIP3   OH277307   2.947   4.272  15.733  0.9773 -0.0163 -0.8575
18631TIP3    H177308   2.890   4.349  15.741  2.2536  0.8411  0.4127
18631TIP3    H277309   2.887   4.197  15.741  0.0328  0.8473  0.6588
18632TIP3   OH277310   6.763   3.225  13.274 -0.0447 -0.4293 -0.6847
18632TIP3    H177311   6.838   3.191  13.323  0.7495  2.1457  0.0862
18632TIP3    H277312   6.783   3.206  13.183  1.9253  0.7431 -0.5566
18633TIP3   OH277313   6.260   1.301  12.228  0.7102 -0.0423 -0.1775
18633TIP3    H177314   6.233   1.210  12.241 -0.7712  0.3787 -0.1043
18633TIP3    H277315   6.324   1.318  12.297  1.6920 -1.2719 -0.7415
18634TIP3   OH277316   5.358   3.812   4.354 -0.1942 -0.2363 -0.2805
18634TIP3    H177317   5.271   3.805   4.392  0.3697 -0.4992  1.0073
18634TIP3    H277318   5.411   3.852   4.423  0.8778 -0.7963 -0.7549
18635TIP3   OH277319   4.386   4.283  16.602 -0.2404  0.3557 -0.1232
18635TIP3    H177320   4.427   4.357  16.645  0.3907  0.7794 -1.4072
18635TIP3    H277321   4.322   4.322  16.542 -0.1677 -0.1568 -0.5434
18636TIP3   OH277322   5.468   3.791  12.500 -0.1079  0.3923  0.5024
18636TIP3    H177323   5.448   3.839  12.581 -2.8439 -1.0195  0.7814
18636TIP3    H277324   5.437   3.702  12.517 -1.5001  0.2280 -2.3458
18637TIP3   OH277325   3.881   6.216   0.992 -0.3248 -0.1404 -0.3513
18637TIP3    H177326   3.940   6.193   0.920  0.7459 -2.0223  1.0413
18637TIP3    H277327   3.927   6.284   1.041  0.6476 -1.4397  0.5972
18638TIP3   OH277328   4.133   1.063   2.053  0.5121  0.1697  0.4465
18638TIP3    H177329   4.229   1.068   2.052  0.6254  0.6325 -3.6599
18638TIP3    H277330   4.114   0.971   2.039  0.6569  0.5704 -3.4769
18639TIP3   OH277331   5.628   4.306   3.979 -0.0282  0.3299 -0.4695
18639TIP3    H177332   5.698   4.271   4.034  0.9945  2.6662 -0.1893
18639TIP3    H277333   5.548   4.291   4.030  0.6731  0.6784  0.7703
18640TIP3   OH277334   0.394   4.983  12.470  0.2408  0.4916  0.2568
18640TIP3    H177335   0.461   5.050  12.477  0.2262  0.4994  0.3272
18640TIP3    H277336   0.414   4.937  12.388  0.7507  0.0458  0.6187
18641TIP3   OH277337   5.410   1.380  15.059 -0.1292  0.3814  0.0205
18641TIP3    H177338   5.449   1.332  14.986  2.5677  2.1682  0.1768
18641TIP3    H277339   5.344   1.435  15.017  0.5246  0.4912 -0.9100
18642TIP3   OH277340   1.776   0.503   4.814 -0.7447  0.3126 -0.2338
18642TIP3    H177341   1.708   0.533   4.755  0.9992  1.8455 -1.6111
18642TIP3    H277342   1.851   0.561   4.796  1.4266 -2.1727  0.1412
18643TIP3   OH277343   6.157   0.910   6.709 -0.7110  0.0264 -0.0478
18643TIP3    H177344   6.086   0.954   6.663 -0.8770 -0.0287  0.1551
18643TIP3    H277345   6.114   0.860   6.779 -0.3608  1.1472  1.0073
18644TIP3   OH277346   1.417   3.478   5.081 -0.1136  0.0874 -0.0034
18644TIP3    H177347   1.381   3.397   5.044 -0.4851  0.0684  0.3872
18644TIP3    H277348   1.497   3.494   5.031  0.0270 -0.5882 -0.0023
18645TIP3   OH277349   3.589   3.722   4.130  0.5482 -0.2986  0.0628
18645TIP3    H177350   3.539   3.708   4.049 -0.9655  0.6734  0.7971
18645TIP3    H277351   3.528   3.766   4.189  1.5224 -1.2649  1.8688
18646TIP3   OH277352   2.783   3.260  16.656  0.0995 -0.1382 -0.4309
18646TIP3    H177353   2.862   3.311  16.635  0.4157 -0.0699  0.8279
18646TIP3    H277354   2.732   3.260  16.575  1.2428  0.0902 -1.1772
18647TIP3   OH277355   0.133   4.928   0.316 -0.0839 -0.3154  0.3865
18647TIP3    H177356   0.083   4.864   0.366 -0.6306 -0.1536  0.0563
18647TIP3    H277357   0.176   4.982   0.382 -0.6806 -0.1972  0.6829
18648TIP3   OH277358   1.426   3.314  16.312 -0.6239  0.1023 -0.3480
18648TIP3    H177359   1.487   3.279  16.247 -2.3725 -0.4484 -1.8139
18648TIP3    H277360   1.390   3.237  16.355 -2.0570  0.2081 -1.2641
18649TIP3   OH277361   3.544   3.914   3.286  0.3041 -0.4839 -0.3135
18649TIP3    H177362   3.469   3.859   3.310 -0.0628  0.2489  0.2890
18649TIP3    H277363   3.620   3.865   3.317 -0.1591  0.5235  2.7960
18650TIP3   OH277364   2.777   3.152   3.943 -0.3502  0.3793 -0.3485
18650TIP3    H177365   2.689   3.138   3.910 -0.2157  1.1090 -1.0538
18650TIP3    H277366   2.765   3.197   4.026 -0.6535 -0.2104 -0.0662
18651TIP3   OH277367   6.694   3.033  10.862  0.1277  0.0821 -0.0387
18651TIP3    H177368   6.650   3.108  10.823 -0.7544 -0.8520 -0.8987
18651TIP3    H277369   6.726   2.982  10.787 -0.0916 -0.8588  0.4878
18652TIP3   OH277370   4.618   0.206  11.453 -0.1927 -0.0623 -0.2465
18652TIP3    H177371   4.581   0.281  11.407 -1.0046  0.0014  0.4642
18652TIP3    H277372   4.668   0.159  11.387 -0.8668  0.3231 -1.0526
18653TIP3   OH277373   5.258   6.628  14.465  0.4579 -0.5074 -0.0447
18653TIP3    H177374   5.209   6.642  14.546 -0.6963  0.2357 -0.8408
18653TIP3    H277375   5.212   6.557  14.421  1.4789 -1.3699  0.2204
18654TIP3   OH277376   4.637   0.982   2.037  0.1276  0.5418 -0.3729
18654TIP3    H177377   4.543   0.984   2.055  0.0832 -0.9838 -0.3080
18654TIP3    H277378   4.667   1.070   2.059 -1.2347  0.9708 -0.1156
18655TIP3   OH277379   1.449   5.738  13.331  0.4762  0.3836  0.2640
18655TIP3    H177380   1.357   5.762  13.318  0.3465 -1.1533 -2.4828
18655TIP3    H277381   1.492   5.821  13.353 -1.6923  0.9189  2.9415
18656TIP3   OH277382   3.053   1.293  16.450  0.3433  0.3887 -0.0255
18656TIP3    H177383   2.994   1.220  16.467  0.5832  0.2068  0.0262
18656TIP3    H277384   3.138   1.264  16.482  0.4819  0.6158 -0.1802
18657TIP3   OH277385   5.129   2.447   0.790 -0.2681 -0.1565 -0.0440
18657TIP3    H177386   5.065   2.517   0.801 -1.4379 -1.1387 -0.3333
18657TIP3    H277387   5.098   2.399   0.713  0.8815 -0.6069 -0.2415
18658TIP3   OH277388   4.783   6.590   5.627  0.2149  0.4513  0.0713
18658TIP3    H177389   4.717   6.618   5.691 -0.9183 -0.0273 -0.8458
18658TIP3    H277390   4.867   6.612   5.668 -0.4799  0.4563  1.5731
18659TIP3   OH277391   0.846   4.580  16.396  0.1886 -0.1664 -0.1844
18659TIP3    H177392   0.899   4.525  16.454 -0.6260  1.7427  2.5743
18659TIP3    H277393   0.862   4.669  16.427 -2.3934  0.7100 -1.1556
18660TIP3   OH277394   4.191   5.979   1.458 -0.3439 -0.6050  0.5788
18660TIP3    H177395   4.103   5.946   1.439 -0.0870 -1.0621  0.1516
18660TIP3    H277396   4.209   6.040   1.387 -1.1421  1.1619  1.7980
18661TIP3   OH277397   1.966   6.010   2.879 -0.3159  0.1936  0.1933
18661TIP3    H177398   2.039   6.059   2.916 -0.9258  0.7118  0.7434
18661TIP3    H277399   1.888   6.055   2.912 -0.9352  1.6842 -2.9384
18662TIP3   OH277400   1.828   1.680   5.841  0.5542 -0.3690 -0.0262
18662TIP3    H177401   1.824   1.585   5.830  0.4517 -0.1532 -2.2498
18662TIP3    H277402   1.920   1.702   5.826  0.3732 -0.0159 -0.6540
18663TIP3   OH277403   3.440   1.165  13.977  0.1164 -0.7494  0.0834
18663TIP3    H177404   3.388   1.099  13.932 -0.7832  0.6410 -0.9602
18663TIP3    H277405   3.399   1.248  13.955  2.9226  0.4682 -1.0561
18664TIP3   OH277406   0.623   0.926  15.232 -0.5388 -0.5287 -0.1024
18664TIP3    H177407   0.623   0.838  15.271  1.7907 -0.5308  0.0753
18664TIP3    H277408   0.708   0.963  15.257 -0.6200  1.0069 -1.8485
18665TIP3   OH277409   4.591   0.666  11.753 -0.1008  0.6533 -0.0623
18665TIP3    H177410   4.617   0.758  11.765  0.2601  0.4562  0.7276
18665TIP3    H277411   4.629   0.641  11.669  1.0054  0.8261  0.3586
18666TIP3   OH277412   4.118   2.053  16.836 -0.0917  0.4819  0.6228
18666TIP3    H177413   4.091   1.985  16.775  1.3743  0.7978 -0.4499
18666TIP3    H277414   4.099   2.017  16.923 -1.3342 -0.3727  0.0145
18667TIP3   OH277415   6.168   4.808  12.602 -0.0368 -0.0783 -0.0605
18667TIP3    H177416   6.195   4.898  12.618  1.6067 -0.2298 -1.6286
18667TIP3    H277417   6.073   4.813  12.589 -0.0045  1.3851  0.0842
18668TIP3   OH277418   5.875   1.247   3.935  0.0357  0.5111 -0.9029
18668TIP3    H177419   5.873   1.219   4.027 -0.2147  2.5805 -0.2445
18668TIP3    H277420   5.912   1.335   3.937 -1.3966  1.2015 -2.6152
18669TIP3   OH277421   1.176   6.070   5.604 -0.1722  0.3434  0.2751
18669TIP3    H177422   1.250   6.014   5.627 -0.2311  0.4969  0.8588
18669TIP3    H277423   1.173   6.135   5.674 -0.8406  0.3515  0.2483
18670TIP3   OH277424   4.360   4.000  16.232  0.6919  0.2544  0.3224
18670TIP3    H177425   4.313   3.983  16.314 -0.1146 -0.2111 -0.2296
18670TIP3    H277426   4.367   4.095  16.228 -0.8928  0.3791  0.0421
18671TIP3   OH277427   2.728   6.232  12.428 -0.0188  0.8429  0.0167
18671TIP3    H177428   2.788   6.180  12.482  0.5785 -0.1409 -1.5325
18671TIP3    H277429   2.783   6.302  12.393 -0.0172  0.5431 -0.5824
18672TIP3   OH277430   4.189   3.327   5.688  0.0865  0.0843  0.7784
18672TIP3    H177431   4.123   3.388   5.654  0.1197 -0.9203 -1.2524
18672TIP3    H277432   4.142   3.270   5.748 -0.5320  0.3750  0.5740
18673TIP3   OH277433   2.511   0.826  13.946  0.2560 -0.5075  0.2743
18673TIP3    H177434   2.578   0.800  14.009  1.6847 -1.3426 -1.4816
18673TIP3    H277435   2.432   0.835  13.998  1.2775 -1.4818  2.1286
18674TIP3   OH277436   5.464   4.502  16.802 -0.5617  0.0121 -0.3102
18674TIP3    H177437   5.377   4.484  16.765 -0.4402  1.7972 -1.5638
18674TIP3    H277438   5.462   4.594  16.825  0.1723 -0.5101  2.0872
18675TIP3   OH277439   5.211   4.637   4.160 -0.4745  0.0441 -0.2525
18675TIP3    H177440   5.256   4.669   4.082 -1.1109 -1.0130 -1.0805
18675TIP3    H277441   5.150   4.707   4.183 -0.9020  0.0045 -1.2275
18676TIP3   OH277442   1.003   2.082   0.825 -0.3002  0.1682  0.0784
18676TIP3    H177443   0.947   2.040   0.759  1.1641 -1.0387 -0.4579
18676TIP3    H277444   1.024   2.011   0.886 -1.8112  1.3100  2.0379
18677TIP3   OH277445   1.257   1.045  15.147 -0.2372 -0.7000  0.3692
18677TIP3    H177446   1.166   1.067  15.131  0.1131 -0.3814 -1.4052
18677TIP3    H277447   1.271   1.065  15.239 -1.7524 -0.0149  0.4753
18678TIP3   OH277448   5.491   6.065  15.317  0.2292  0.1647  0.2098
18678TIP3    H177449   5.490   6.018  15.234 -2.4297 -2.0157  1.3275
18678TIP3    H277450   5.442   6.145  15.300 -0.8669 -0.5706 -0.2004
18679TIP3   OH277451   2.610   3.916   0.875 -0.8616  0.1079 -0.1632
18679TIP3    H177452   2.516   3.901   0.864 -0.8381  0.2608 -0.5852
18679TIP3    H277453   2.619   4.012   0.871 -0.5351  0.0460 -1.4528
18680TIP3   OH277454   1.308   6.419  11.777 -0.1083  0.0809  0.3147
18680TIP3    H177455   1.235   6.381  11.727 -0.7521 -0.9096  1.9374
18680TIP3    H277456   1.269   6.495  11.822  0.3495  0.6818 -0.2817
18681TIP3   OH277457   6.139   1.548  13.304  0.1251  0.7025 -0.2980
18681TIP3    H177458   6.117   1.491  13.378 -1.6862  1.4167 -0.2247
18681TIP3    H277459   6.150   1.635  13.344 -0.3980  1.0030 -0.7934
18682TIP3   OH277460   0.652   1.302   0.930 -0.1102 -0.6494 -0.6610
18682TIP3    H177461   0.695   1.387   0.938 -1.6696  0.3543 -2.1583
18682TIP3    H277462   0.652   1.267   1.018 -0.3506  1.3986  0.2090
18683TIP3   OH277463   3.445   5.480   1.950 -0.0514  0.1506 -0.0476
18683TIP3    H177464   3.358   5.445   1.965 -0.0055  0.4750  1.0870
18683TIP3    H277465   3.463   5.463   1.858 -0.3427 -2.0805  0.2631
18684TIP3   OH277466   0.393   3.729  11.952  0.3200  0.2182 -0.4523
18684TIP3    H177467   0.336   3.715  11.877 -0.8632  1.0091  0.2572
18684TIP3    H277468   0.443   3.808  11.930  0.2822  0.2053 -0.5846
18685TIP3   OH277469   0.779   1.638  16.273  0.1004 -0.4287 -0.0490
18685TIP3    H177470   0.714   1.582  16.230  0.4528 -1.2845  0.4958
18685TIP3    H277471   0.760   1.630  16.366 -0.1764  0.8080  0.0221
18686TIP3   OH277472   0.405   3.413  13.641 -0.0158  0.0769 -0.1739
18686TIP3    H177473   0.371   3.495  13.605 -1.2335 -0.4126 -0.1824
18686TIP3    H277474   0.500   3.421  13.633 -0.1263  1.3792 -0.3951
18687TIP3   OH277475   6.511   1.076  10.930 -0.1958  0.0901 -0.5172
18687TIP3    H177476   6.534   1.125  10.851 -0.3650 -0.3852 -0.8646
18687TIP3    H277477   6.416   1.080  10.935 -0.1736  0.3464 -0.1806
18688TIP3   OH277478   5.295   1.455   4.088  0.3725 -0.2822 -0.4174
18688TIP3    H177479   5.288   1.534   4.140 -0.2628  0.7195 -1.9611
18688TIP3    H277480   5.384   1.424   4.104 -0.1792 -0.7337  2.1864
18689TIP3   OH277481   5.546   6.557  15.898  0.3789 -0.0885  0.3687
18689TIP3    H177482   5.557   6.520  15.986 -0.6725 -1.4911 -0.0633
18689TIP3    H277483   5.632   6.547  15.857  0.3789 -1.1717  0.6051
18690TIP3   OH277484   6.518   4.933  16.308 -0.0996  0.1000 -0.5576
18690TIP3    H177485   6.452   4.896  16.249 -0.3397 -2.3506  1.0598
18690TIP3    H277486   6.478   5.012  16.343 -1.4170 -0.3190 -1.0514
18691TIP3   OH277487   2.949   3.628   2.621 -0.0312 -0.1721  0.4908
18691TIP3    H177488   2.915   3.627   2.531  0.2000 -0.9334  0.4025
18691TIP3    H277489   3.039   3.660   2.612 -0.4353  1.0313  0.6212
18692TIP3   OH277490   3.534   5.246   3.452  0.0342 -0.0193 -0.2310
18692TIP3    H177491   3.507   5.308   3.520  0.4373  1.2472 -1.1724
18692TIP3    H277492   3.541   5.162   3.497 -0.7447  0.5708  1.0486
18693TIP3   OH277493   2.086   2.364  11.268  0.3336  0.0917 -0.5969
18693TIP3    H177494   2.035   2.410  11.201 -0.7137 -0.2760 -0.0709
18693TIP3    H277495   2.035   2.374  11.348  1.0411 -0.3868 -0.0765
18694TIP3   OH277496   0.234   2.405   3.241  1.2505  0.1613 -0.3660
18694TIP3    H177497   0.254   2.341   3.310  1.5308 -0.9583 -1.4509
18694TIP3    H277498   0.319   2.436   3.211  1.1594  3.2370  2.0170
18695TIP3   OH277499   6.152   1.750   1.479 -0.0964  0.0566  0.1576
18695TIP3    H177500   6.160   1.725   1.571  1.4734  1.0983  0.3365
18695TIP3    H277501   6.187   1.839   1.475 -1.9734  0.8107 -1.1179
18696TIP3   OH277502   4.321   5.204   0.214  0.4621 -0.0017  0.4502
18696TIP3    H177503   4.228   5.223   0.206  0.2173 -0.0661  2.4687
18696TIP3    H277504   4.329   5.111   0.193 -0.4248 -0.6910  2.7941
18697TIP3   OH277505   5.262   0.115   5.514  0.8238 -0.2002 -0.7913
18697TIP3    H177506   5.188   0.115   5.575  1.4314 -0.2277 -0.0422
18697TIP3    H277507   5.248   0.037   5.460  0.6464 -0.5592 -0.2325
18698TIP3   OH277508   4.979   3.232   0.661  0.2676 -0.3475  0.1534
18698TIP3    H177509   4.920   3.293   0.706  0.7053  0.0053  0.2512
18698TIP3    H277510   5.014   3.283   0.587 -0.8111 -1.0610 -0.8836
18699TIP3   OH277511   4.576   3.701   2.168  0.1520 -0.4473  0.1236
18699TIP3    H177512   4.527   3.681   2.247  0.2216 -0.2417  0.2186
18699TIP3    H277513   4.561   3.794   2.153 -0.6371 -0.6872 -0.6361
18700TIP3   OH277514   5.393   1.057   1.862 -0.4963 -0.7808 -0.6049
18700TIP3    H177515   5.397   1.009   1.779  2.1618  0.1253 -1.0850
18700TIP3    H277516   5.358   1.143   1.838  0.0044 -0.6144 -0.7419
18701TIP3   OH277517   4.897   1.841   4.972  0.3291 -0.2093  0.3454
18701TIP3    H177518   4.850   1.782   5.031 -0.6233  0.2666  0.0895
18701TIP3    H277519   4.936   1.784   4.906  0.1870 -0.6287  0.6252
18702TIP3   OH277520   1.481   1.381   3.317 -0.2952  0.2372  0.3835
18702TIP3    H177521   1.435   1.409   3.396  1.4884  0.4971  1.4021
18702TIP3    H277522   1.512   1.463   3.277 -1.4471  0.1351 -0.8077
18703TIP3   OH277523   4.639   2.260  15.644  0.2472  0.0618 -0.0422
18703TIP3    H177524   4.547   2.266  15.617  0.5498 -1.4701 -1.6538
18703TIP3    H277525   4.688   2.275  15.563  1.5003  1.9912  0.9975
18704TIP3   OH277526   1.163   4.843   0.213  0.1529 -0.5418  0.0111
18704TIP3    H177527   1.226   4.814   0.279 -0.2073 -1.1548  0.0995
18704TIP3    H277528   1.078   4.818   0.250 -0.1510  0.3862 -0.0513
18705TIP3   OH277529   2.467   2.133  12.208 -0.2663 -0.7112 -0.0942
18705TIP3    H177530   2.530   2.198  12.176  1.7474 -2.5695 -0.1091
18705TIP3    H277531   2.425   2.175  12.283 -0.2017  1.1798 -1.0600
18706TIP3   OH277532   5.253   3.329   4.277 -0.6483  0.3526 -0.2217
18706TIP3    H177533   5.271   3.290   4.191 -0.9797  0.6684 -0.4424
18706TIP3    H277534   5.288   3.418   4.270 -0.1060  0.1731  0.1956
18707TIP3   OH277535   0.533   1.224  12.109  0.1949 -0.3851 -0.2286
18707TIP3    H177536   0.604   1.170  12.074  0.7686  0.7284 -0.8027
18707TIP3    H277537   0.559   1.240  12.200 -0.0616 -1.1940 -0.0011
18708TIP3   OH277538   3.700   3.189  14.404  0.0598 -0.9204 -0.6196
18708TIP3    H177539   3.651   3.214  14.326 -0.9886 -0.1534  0.2631
18708TIP3    H277540   3.792   3.194  14.377 -0.2762 -0.3822 -1.7121
18709TIP3   OH277541   1.155   2.678  11.371  0.3886  0.1901  0.3361
18709TIP3    H177542   1.201   2.596  11.356  0.8515  0.6682 -1.0768
18709TIP3    H277543   1.064   2.653  11.382  0.2164 -0.4061 -1.9842
18710TIP3   OH277544   0.100   1.989  11.126  0.6143  0.2974  0.0715
18710TIP3    H177545   0.084   2.084  11.126  0.2257  0.2510  1.4616
18710TIP3    H277546   0.033   1.953  11.069  0.1357  0.7758  0.3242
18711TIP3   OH277547   2.389   5.311   1.385  0.3201  0.4999  0.2629
18711TIP3    H177548   2.441   5.257   1.326 -0.1073  0.7597 -0.3586
18711TIP3    H277549   2.300   5.275   1.380 -0.1332  1.6643 -0.7020
18712TIP3   OH277550   1.459   3.590   4.801 -0.0363 -0.3910 -0.1715
18712TIP3    H177551   1.427   3.588   4.711  1.1329 -0.0514 -0.6065
18712TIP3    H277552   1.429   3.674   4.835  2.3490  1.0515 -1.3575
18713TIP3   OH277553   6.262   1.013  12.583 -0.1583 -0.1473  0.1011
18713TIP3    H177554   6.216   1.026  12.666 -0.0678  2.4633 -0.1527
18713TIP3    H277555   6.194   0.988  12.521 -1.1553  2.4224  0.0113
18714TIP3   OH277556   2.005   2.137   6.565  0.3371 -0.7421 -0.5501
18714TIP3    H177557   2.071   2.111   6.501  0.3306 -2.0691 -0.0467
18714TIP3    H277558   2.053   2.191   6.628  0.4816  0.0256 -1.3018
18715TIP3   OH277559   2.767   5.403   2.881  0.2582 -0.4421  0.1434
18715TIP3    H177560   2.783   5.482   2.932  1.4064  0.1104 -0.9943
18715TIP3    H277561   2.672   5.391   2.884  0.2764 -0.4255  2.3277
18716TIP3   OH277562   2.416   6.373   2.920 -0.4711 -0.2451  0.2811
18716TIP3    H177563   2.320   6.377   2.927 -0.5916 -1.8309  0.0253
18716TIP3    H277564   2.436   6.412   2.836 -0.7070  1.7138  1.0777
18717TIP3   OH277565   0.468   0.616   3.510  0.4397 -0.0513 -0.0307
18717TIP3    H177566   0.383   0.660   3.503  1.0162  1.0187 -0.5542
18717TIP3    H277567   0.526   0.667   3.454  1.2323 -1.2853 -0.3839
18718TIP3   OH277568   2.668   5.174   0.130 -0.2866 -0.4250  0.1392
18718TIP3    H177569   2.710   5.141   0.210 -0.9999  0.2307  0.8102
18718TIP3    H277570   2.633   5.259   0.156 -0.2809 -0.0676 -0.9676
18719TIP3   OH277571   0.465   1.045  10.602 -0.1032  0.2134  0.1659
18719TIP3    H177572   0.399   0.976  10.608 -0.1151  0.3253  1.3850
18719TIP3    H277573   0.432   1.115  10.657  0.3266  0.8690 -0.3949
18720TIP3   OH277574   5.966   2.470   3.256  0.4662  0.4540 -0.2883
18720TIP3    H177575   6.022   2.493   3.331 -0.1552 -1.7951  0.9843
18720TIP3    H277576   5.902   2.541   3.251  1.2936  1.2905  0.4922
18721TIP3   OH277577   6.559   0.396   2.171 -0.1425  0.5106 -0.4058
18721TIP3    H177578   6.470   0.368   2.147  0.3359  0.0260 -1.7392
18721TIP3    H277579   6.552   0.490   2.183 -0.4180  0.8556 -2.8050
18722TIP3   OH277580   1.008   6.555   0.370  0.2167 -0.0989  0.1604
18722TIP3    H177581   0.936   6.498   0.395  0.5096  0.0823  1.4989
18722TIP3    H277582   1.084   6.519   0.416  0.3511  1.5109  1.3074
18723TIP3   OH277583   0.515   4.940   0.870  0.2655  0.0981  0.0495
18723TIP3    H177584   0.553   4.921   0.956 -1.1110 -1.2927  0.3969
18723TIP3    H277585   0.470   5.023   0.881  1.7149  0.8948  0.1122
18724TIP3   OH277586   4.505   3.594  13.894 -0.1189  0.5029 -0.4596
18724TIP3    H177587   4.468   3.679  13.870  0.8427  1.4793  1.3298
18724TIP3    H277588   4.455   3.568  13.972  0.7623  0.2886  0.0394
18725TIP3   OH277589   1.203   5.560  16.780 -0.1479 -0.2885 -0.2701
18725TIP3    H177590   1.279   5.599  16.738  0.1178 -0.5658 -0.0523
18725TIP3    H277591   1.135   5.628  16.776  0.1842  0.0451 -0.2538
18726TIP3   OH277592   2.416   3.055   2.422 -0.4700  0.2490  0.6028
18726TIP3    H177593   2.356   2.984   2.402 -0.4587  0.0330  1.3025
18726TIP3    H277594   2.360   3.126   2.453 -0.2880 -0.5819  3.0736
18727TIP3   OH277595   2.588   3.155   1.255 -0.2344 -0.0455 -0.3846
18727TIP3    H177596   2.640   3.183   1.331  1.1048 -2.5442 -0.2533
18727TIP3    H277597   2.647   3.097   1.206 -1.6498  0.1251 -2.4215
18728TIP3   OH277598   0.847   0.408  13.770  1.0216 -0.3406  0.0710
18728TIP3    H177599   0.928   0.385  13.814  2.0368 -0.7681 -1.9132
18728TIP3    H277600   0.863   0.496  13.734  1.3298 -1.1208 -1.8304
18729TIP3   OH277601   2.771   2.467   0.013 -0.7730 -0.0593 -0.3149
18729TIP3    H177602   2.834   2.471   0.085 -0.2788  0.9956 -0.7911
18729TIP3    H277603   2.782   2.378  -0.022  1.1741  0.4005 -0.9956
18730TIP3   OH277604   5.092   6.144  16.164 -0.4137 -1.5605  0.7765
18730TIP3    H177605   4.998   6.162  16.163 -0.1229  0.5024 -2.5005
18730TIP3    H277606   5.130   6.217  16.214 -0.2713  0.5920 -2.2131
18731TIP3   OH277607   4.835   3.915   3.507 -0.1698 -0.0633  0.1968
18731TIP3    H177608   4.778   3.992   3.505  0.7203  0.6557  1.2355
18731TIP3    H277609   4.784   3.849   3.554 -1.3862 -0.5232 -1.6690
18732TIP3   OH277610   1.166   2.533   2.638 -0.2005 -0.3022  0.3662
18732TIP3    H177611   1.128   2.454   2.675  0.1676 -0.8700 -0.4311
18732TIP3    H277612   1.097   2.570   2.583 -1.6060  1.8181  3.2668
18733TIP3   OH277613   0.032   3.114   3.568  0.1710 -0.0137  0.2790
18733TIP3    H177614   0.050   3.028   3.608  0.2132 -0.9364 -1.5993
18733TIP3    H277615  -0.018   3.093   3.489  0.4159  1.6904 -0.3636
18734TIP3   OH277616   0.062   0.655  14.663  0.5321  0.3457  0.4416
18734TIP3    H177617   0.048   0.622  14.574 -0.2974 -2.3662  1.4995
18734TIP3    H277618   0.150   0.625  14.686  0.2122 -0.1418  1.0250
18735TIP3   OH277619   3.284   3.589  14.245 -0.0214  0.4704 -0.3893
18735TIP3    H177620   3.360   3.646  14.254 -1.2480  2.0716  0.2874
18735TIP3    H277621   3.307   3.511  14.296  0.6411  1.5167  0.9942
18736TIP3   OH277622   4.477   3.647  17.036  0.4434  0.4966  0.2342
18736TIP3    H177623   4.508   3.556  17.038  0.0800  0.3369 -0.6058
18736TIP3    H277624   4.389   3.641  16.999  0.7490  1.2629 -0.6718
18737TIP3   OH277625   4.566   0.555   5.017 -0.1664  0.6147  0.1875
18737TIP3    H177626   4.640   0.572   4.959 -0.3838 -0.8395 -0.5450
18737TIP3    H277627   4.510   0.495   4.969 -1.7668  1.5550  0.7928
18738TIP3   OH277628   2.471   1.822   0.057  0.0036 -0.1686  1.1686
18738TIP3    H177629   2.498   1.731   0.063 -0.4228 -0.2865  1.4098
18738TIP3    H277630   2.392   1.826   0.111 -0.5447  0.1187  0.3656
18739TIP3   OH277631   3.075   5.675  17.013  0.1524  0.4905  0.0635
18739TIP3    H177632   3.058   5.607  16.948  1.6251 -0.7436  0.9200
18739TIP3    H277633   2.988   5.710  17.034 -1.0720 -3.0232  1.5992
18740TIP3   OH277634   6.686   1.396   3.782  0.7572 -0.5187  0.5700
18740TIP3    H177635   6.730   1.344   3.714 -0.5062 -2.0096  0.8604
18740TIP3    H277636   6.628   1.335   3.826  0.8249  0.6523  2.3890
18741TIP3   OH277637   1.632   5.743  12.437 -0.2458  0.2589 -0.7404
18741TIP3    H177638   1.637   5.802  12.362  0.9313  0.3830 -0.5883
18741TIP3    H277639   1.627   5.800  12.513 -0.1154  0.1518 -0.6506
18742TIP3   OH277640   4.675   4.132  13.831 -0.0912 -0.0895  0.1821
18742TIP3    H177641   4.706   4.057  13.780  0.7066  0.9447 -0.9042
18742TIP3    H277642   4.588   4.151  13.795  1.1346  1.6917 -2.0939
18743TIP3   OH277643   1.922   4.578   4.242 -0.8184 -0.6118  0.7078
18743TIP3    H177644   1.843   4.611   4.284 -0.2060 -0.8999  2.1638
18743TIP3    H277645   1.956   4.513   4.304 -0.8683 -2.4511 -1.1125
18744TIP3   OH277646   4.220   3.405   0.578 -0.6118  0.5292 -0.0102
18744TIP3    H177647   4.127   3.424   0.571 -0.8331 -0.4455  0.0438
18744TIP3    H277648   4.231   3.321   0.533  0.1241  0.3165  0.5383
18745TIP3   OH277649   5.322   2.458   4.858 -0.1116 -0.1327  0.8288
18745TIP3    H177650   5.274   2.382   4.889 -2.2839  0.7334 -0.1717
18745TIP3    H277651   5.311   2.456   4.763 -1.5606  2.1760  0.8595
18746TIP3   OH277652   5.789   2.179  14.061  0.5510 -0.0566  0.0885
18746TIP3    H177653   5.738   2.173  13.981 -0.5463 -0.5924  0.7945
18746TIP3    H277654   5.808   2.088  14.085  2.3189  0.1407 -0.4325
18747TIP3   OH277655   0.915   0.016   0.250  0.2640 -0.0114 -0.1571
18747TIP3    H177656   0.988   0.056   0.298 -0.9278  2.7724 -0.4446
18747TIP3    H277657   0.924   0.050   0.161 -0.4274 -1.0574 -0.6436
18748TIP3   OH277658   5.221   5.371   4.207  0.6489 -0.1633 -0.5553
18748TIP3    H177659   5.314   5.390   4.191  1.1133 -0.3364  1.6259
18748TIP3    H277660   5.220   5.331   4.294 -1.2312 -2.2850 -1.4546
18749TIP3   OH277661   0.428   1.543   2.417  0.4796 -0.1246  0.7555
18749TIP3    H177662   0.422   1.448   2.417  2.2964 -0.2795  1.7393
18749TIP3    H277663   0.469   1.564   2.501  3.7621  1.2322 -1.0152
18750TIP3   OH277664   5.779   2.361   6.515  0.1944 -0.6048  0.4159
18750TIP3    H177665   5.713   2.370   6.584  0.1899 -1.2522  0.5017
18750TIP3    H277666   5.737   2.394   6.436 -0.0282 -0.4703  0.5894
18751TIP3   OH277667   0.016   0.972  16.040 -0.5999  0.3178 -0.0661
18751TIP3    H177668  -0.050   0.950  16.105  0.3800 -1.1366  0.4941
18751TIP3    H277669   0.065   0.891  16.028  1.2977  1.4190 -0.1897
18752TIP3   OH277670   2.548   6.157   2.352  0.3541 -0.0946  0.1010
18752TIP3    H177671   2.542   6.063   2.339 -0.2147  0.0760 -0.9869
18752TIP3    H277672   2.461   6.190   2.332  0.6491  0.7061  0.0787
18753TIP3   OH277673   4.660   3.311  11.408  1.0453 -0.2965  0.2205
18753TIP3    H177674   4.692   3.391  11.367  0.3244 -0.6792 -1.1812
18753TIP3    H277675   4.568   3.330  11.429  1.0006 -0.6045  0.3100
18754TIP3   OH277676   6.509   3.197  14.248  0.1416  0.7952  0.1889
18754TIP3    H177677   6.437   3.230  14.195  1.0817 -0.6760 -2.1355
18754TIP3    H277678   6.571   3.269  14.254 -0.2129  1.1390 -0.2703
18755TIP3   OH277679   0.407   3.923   3.025 -0.4811 -0.7234 -0.2888
18755TIP3    H177680   0.343   3.995   3.028 -2.4939 -2.4048 -0.2910
18755TIP3    H277681   0.408   3.897   2.933 -0.9704 -1.6658 -0.0420
18756TIP3   OH277682   5.356   6.351  11.176  0.6212 -0.3183 -0.1355
18756TIP3    H177683   5.358   6.428  11.232  0.4515 -1.1910  1.1034
18756TIP3    H277684   5.355   6.277  11.236 -0.4189 -1.2744 -1.2697
18757TIP3   OH277685   6.506   3.374   5.437 -0.3852 -0.3131 -0.0265
18757TIP3    H177686   6.525   3.307   5.371  0.9084 -2.5880  2.5135
18757TIP3    H277687   6.588   3.422   5.446 -0.3157 -0.5298  0.4899
18758TIP3   OH277688   0.430   0.622  12.025 -0.0933 -0.0136  0.1580
18758TIP3    H177689   0.415   0.579  11.940  0.0497 -1.4765  0.8419
18758TIP3    H277690   0.501   0.684  12.008  3.5981 -3.7594  0.1882
18759TIP3   OH277691   1.336   2.034   5.062  0.3184 -1.1700 -0.0692
18759TIP3    H177692   1.363   2.106   5.005 -0.1681 -0.6357  0.3589
18759TIP3    H277693   1.265   2.072   5.115  1.5909 -1.2748  1.7707
18760TIP3   OH277694   2.276   0.754  13.163 -0.2506  0.3453  0.4728
18760TIP3    H177695   2.303   0.727  13.076 -1.2602 -0.3865  0.3603
18760TIP3    H277696   2.181   0.766  13.156 -0.5000 -0.6706  1.6789
18761TIP3   OH277697   2.473   5.102   2.870  0.1635 -0.2509  0.2558
18761TIP3    H177698   2.453   5.093   2.963 -0.2102  0.6230  0.2610
18761TIP3    H277699   2.411   5.167   2.838  0.6653 -0.1271 -0.4822
18762TIP3   OH277700   0.966   3.793   4.361 -0.4366 -0.2703 -0.2492
18762TIP3    H177701   0.976   3.715   4.306  0.5587 -0.6131  0.3800
18762TIP3    H277702   0.967   3.866   4.299 -0.4926 -0.7157 -0.7817
18763TIP3   OH277703   0.935   2.374  11.909  0.3292 -0.1122  0.6523
18763TIP3    H177704   0.854   2.329  11.884 -0.6424  0.2015  2.9210
18763TIP3    H277705   0.943   2.446  11.847 -1.7910  0.5129  1.0132
18764TIP3   OH277706   2.765   5.008  16.823  0.1132  0.5752  0.4338
18764TIP3    H177707   2.776   5.034  16.914 -1.3291  0.6856  0.6060
18764TIP3    H277708   2.688   4.950  16.824  0.9865 -0.6514 -0.4959
18765TIP3   OH277709   0.487   3.344  13.321 -0.0383  0.1778 -0.4500
18765TIP3    H177710   0.419   3.329  13.256  0.7124 -0.5958 -1.0796
18765TIP3    H277711   0.455   3.300  13.400 -0.0949 -0.5367 -0.8613
18766TIP3   OH277712   3.216   4.157   4.379  0.3525 -0.7573  0.2150
18766TIP3    H177713   3.121   4.141   4.379  0.1307  0.2066  2.7788
18766TIP3    H277714   3.252   4.083   4.428  0.6246  0.1998  1.4872
18767TIP3   OH277715   5.597   1.152   1.600  0.0268  0.1508  0.2269
18767TIP3    H177716   5.506   1.179   1.590  0.0714  0.4214  0.5417
18767TIP3    H277717   5.627   1.135   1.511 -0.3343  0.0588  0.1244
18768TIP3   OH277718   3.884   2.184   3.212 -0.4600 -0.1536 -0.1382
18768TIP3    H177719   3.915   2.271   3.188  0.1323 -0.4063 -0.2793
18768TIP3    H277720   3.867   2.141   3.129 -0.3845 -0.3114 -0.0704
18769TIP3   OH277721   0.816   4.744   5.735  0.2503 -0.5841 -0.1155
18769TIP3    H177722   0.848   4.678   5.674  0.6943  0.9196 -1.5743
18769TIP3    H277723   0.736   4.778   5.694  0.7230  0.6659 -0.0479
18770TIP3   OH277724   6.343   4.280   5.813 -0.4943  0.4459 -0.1893
18770TIP3    H177725   6.253   4.250   5.823 -0.1724 -0.6534 -0.3922
18770TIP3    H277726   6.337   4.375   5.813 -1.5460  0.3958  0.7513
18771TIP3   OH277727   1.792   5.463   5.867 -0.1326  0.5892 -0.6334
18771TIP3    H177728   1.861   5.422   5.814  1.1474  2.7497 -0.7455
18771TIP3    H277729   1.748   5.389   5.909  0.8223 -1.0036 -2.2697
18772TIP3   OH277730   3.318   4.431   5.776 -0.4792  0.0931 -0.4868
18772TIP3    H177731   3.306   4.521   5.746 -1.8285 -0.1190 -0.6496
18772TIP3    H277732   3.231   4.403   5.803 -0.2177 -1.4106 -1.1136
18773TIP3   OH277733   4.943   1.395   4.808  0.1201 -0.0602 -0.2083
18773TIP3    H177734   5.011   1.359   4.751  1.2645 -0.2466  1.2297
18773TIP3    H277735   4.932   1.329   4.877 -0.0556  0.8841  0.6922
18774TIP3   OH277736   1.514   4.028   5.670  0.4101 -0.2322 -0.2496
18774TIP3    H177737   1.525   4.011   5.764  1.3188 -0.3216 -0.3597
18774TIP3    H277738   1.512   3.941   5.630 -1.2958 -0.2477 -0.2047
18775TIP3   OH277739   0.939   4.385   1.123 -0.1281  0.1183 -0.2040
18775TIP3    H177740   0.882   4.317   1.088 -0.8868  1.0463 -0.8200
18775TIP3    H277741   0.983   4.421   1.046 -0.9314  1.3928 -0.0895
18776TIP3   OH277742   2.935   0.044  14.324 -0.5094 -0.0703  0.7831
18776TIP3    H177743   2.862   0.004  14.371 -0.6135 -1.3886 -0.4189
18776TIP3    H277744   2.959  -0.021  14.258  1.4327  0.5529  0.8207
18777TIP3   OH277745   6.752   1.238   5.521  0.0121  0.6423  0.0087
18777TIP3    H177746   6.800   1.279   5.592  1.6278 -0.0465 -0.6331
18777TIP3    H277747   6.765   1.296   5.446  2.5219 -0.9943 -0.9722
18778TIP3   OH277748   0.716   0.295   4.631 -0.0107  0.3229 -0.2722
18778TIP3    H177749   0.796   0.335   4.596 -0.5625  1.9667  0.2533
18778TIP3    H277750   0.724   0.304   4.726 -0.7839  0.4154 -0.2112
18779TIP3   OH277751   5.434   6.797   0.666 -0.5452  0.1163  0.0540
18779TIP3    H177752   5.438   6.707   0.634 -0.1297 -0.2468  1.0716
18779TIP3    H277753   5.369   6.840   0.611 -1.4347 -1.0628  0.1573
18780TIP3   OH277754   3.160   0.630  11.510  0.0595  0.3790  0.1792
18780TIP3    H177755   3.240   0.681  11.525  0.9025 -1.1202  1.0585
18780TIP3    H277756   3.146   0.584  11.592 -1.6223  0.4464 -0.0429
18781TIP3   OH277757   1.002   1.508   6.309  0.3575 -0.1118 -0.0177
18781TIP3    H177758   1.006   1.497   6.404 -0.0305 -1.8144 -0.1692
18781TIP3    H277759   1.068   1.449   6.274  0.9797  0.9979 -0.8134
18782TIP3   OH277760   3.037   5.448  16.295 -0.1367  0.2905  0.4621
18782TIP3    H177761   3.093   5.518  16.260  1.9834  0.0499  3.0295
18782TIP3    H277762   2.949   5.485  16.296  0.3170  1.5927 -1.4448
18783TIP3   OH277763   3.284   1.730  13.932  0.6896 -0.0899  0.0256
18783TIP3    H177764   3.310   1.818  13.962  1.0289  0.2109 -1.0898
18783TIP3    H277765   3.194   1.720  13.961  0.9074  0.2892  0.8788
18784TIP3   OH277766   5.415   3.642   3.033 -0.3359 -0.2838  0.0492
18784TIP3    H177767   5.449   3.704   2.969  0.5360 -0.1606  0.6193
18784TIP3    H277768   5.458   3.559   3.012 -2.3175 -1.0221 -1.4062
18785TIP3   OH277769   4.757   6.244  11.641 -0.0958  0.1226 -0.7860
18785TIP3    H177770   4.697   6.303  11.595  0.4090  0.8513 -0.5328
18785TIP3    H277771   4.832   6.299  11.664  0.3140 -0.5818 -0.3905
18786TIP3   OH277772   3.190   3.708  15.531  0.1476  0.0923 -0.1087
18786TIP3    H177773   3.102   3.688  15.500 -0.8912  1.5706  1.6484
18786TIP3    H277774   3.192   3.673  15.620  0.3532  2.3328  0.8283
18787TIP3   OH277775   4.651   3.813  11.592 -0.0517 -0.0688 -0.1081
18787TIP3    H177776   4.695   3.729  11.604 -1.2041 -0.7694 -0.5924
18787TIP3    H277777   4.588   3.797  11.521 -1.0265  0.8940  0.5037
18788TIP3   OH277778   2.079   6.652  10.859 -0.2226 -0.3259 -0.0664
18788TIP3    H177779   2.096   6.684  10.770  1.6942  1.4644  0.8604
18788TIP3    H277780   2.002   6.701  10.888  0.3303  0.5721 -0.0729
18789TIP3   OH277781   3.546   3.885  14.603  0.0969 -0.1097  0.4675
18789TIP3    H177782   3.512   3.926  14.523 -0.5740 -0.4042  0.5953
18789TIP3    H277783   3.638   3.912  14.606  0.0423  0.1870 -0.2220
18790TIP3   OH277784   3.161   4.960  15.072 -0.4354  0.6913  0.8682
18790TIP3    H177785   3.123   4.873  15.057  0.4674  0.3677  0.3143
18790TIP3    H277786   3.157   5.003  14.986  1.7324  0.0900  0.3956
18791TIP3   OH277787   3.786   5.277   2.557  0.0926  0.4074 -0.0734
18791TIP3    H177788   3.793   5.258   2.650 -1.4577  0.2518  0.0413
18791TIP3    H277789   3.703   5.323   2.548 -1.5484 -2.5696 -1.7954
18792TIP3   OH277790   0.306   3.037   2.722  0.6172 -0.1730  1.0653
18792TIP3    H177791   0.384   3.020   2.775  0.6900 -2.0775  0.3949
18792TIP3    H277792   0.337   3.034   2.632 -0.0222  0.3040  0.8207
18793TIP3   OH277793   2.311   3.662  17.032 -0.5587  0.1190 -0.7069
18793TIP3    H177794   2.365   3.591  16.996 -0.1421 -0.2514  0.6043
18793TIP3    H277795   2.289   3.716  16.956  0.1560 -0.7241 -1.5395
18794TIP3   OH277796   1.245   5.337   1.778 -0.0701  0.2392  0.2883
18794TIP3    H177797   1.321   5.289   1.812  0.1835 -0.5918 -1.3711
18794TIP3    H277798   1.275   5.373   1.695 -1.3172  0.4153 -0.1030
18795TIP3   OH277799   5.177   6.724  12.760  0.0476 -0.4447 -0.2657
18795TIP3    H177800   5.187   6.629  12.759  0.0163 -0.4546 -1.9618
18795TIP3    H277801   5.113   6.741  12.829 -1.0217 -1.7851 -0.8814
18796TIP3   OH277802   3.776   5.152  16.752  0.4853  0.5335 -0.3091
18796TIP3    H177803   3.782   5.168  16.658 -0.4517 -0.4604 -0.5549
18796TIP3    H277804   3.684   5.168  16.773  0.5702  0.1990  0.3209
18797TIP3   OH277805   2.214   3.620  12.240  0.8104 -0.5702  0.2461
18797TIP3    H177806   2.257   3.589  12.160 -0.8220  0.4719 -1.0947
18797TIP3    H277807   2.211   3.543  12.297 -0.2243 -2.0536 -1.7062
18798TIP3   OH277808   2.714   5.711  16.739  0.3669  0.1073 -0.4358
18798TIP3    H177809   2.618   5.713  16.735  0.1755 -1.1803  1.8896
18798TIP3    H277810   2.738   5.630  16.695  0.5162  0.9618 -1.9964
18799TIP3   OH277811   5.654   0.772   1.420  0.3085 -0.0340 -0.4528
18799TIP3    H177812   5.702   0.780   1.502  0.9744 -0.8066 -0.7578
18799TIP3    H277813   5.630   0.862   1.396  0.1998  0.2037  0.5231
18800TIP3   OH277814   5.360   2.567   2.889  0.1532  0.8242 -0.0644
18800TIP3    H177815   5.411   2.520   2.955  1.9241  1.9054 -0.6004
18800TIP3    H277816   5.279   2.591   2.933 -1.1245 -3.0646  0.1193
18801TIP3   OH277817   5.709   0.761   3.524 -0.2461 -0.9327  0.1562
18801TIP3    H177818   5.628   0.746   3.573 -1.3104  0.8885 -0.8891
18801TIP3    H277819   5.742   0.844   3.558  0.8186 -1.3222  0.0897
18802TIP3   OH277820   2.883   6.766  12.062  0.1675  0.1425 -0.6038
18802TIP3    H177821   2.835   6.849  12.069  1.7203  0.9657  1.1714
18802TIP3    H277822   2.968   6.791  12.027  0.9648 -0.5299  0.7662
18803TIP3   OH277823   5.283   1.837  11.412 -0.3424  0.5897  0.0213
18803TIP3    H177824   5.356   1.868  11.358  0.8190 -0.6032  0.8379
18803TIP3    H277825   5.233   1.779  11.355  0.3536  0.0539 -0.0513
18804TIP3   OH277826   3.769   4.047  12.333 -0.0432  0.2802 -0.1572
18804TIP3    H177827   3.754   4.129  12.380 -2.6405  0.1257 -0.5820
18804TIP3    H277828   3.741   4.065  12.243  0.4010 -0.7682 -0.5218
18805TIP3   OH277829   5.442   6.393   5.490 -0.2363  0.0163 -0.3492
18805TIP3    H177830   5.464   6.485   5.507  1.0869 -0.3125 -0.1559
18805TIP3    H277831   5.521   6.357   5.450 -0.8966 -0.9365 -0.8351
18806TIP3   OH277832   5.540   2.626  13.746  0.6406  0.1364 -0.0635
18806TIP3    H177833   5.596   2.660  13.816  0.4512 -0.1408  0.2289
18806TIP3    H277834   5.589   2.643  13.666  0.5268  1.1573  0.0622
18807TIP3   OH277835   4.419   5.573   5.992 -0.0369 -0.7610  0.1882
18807TIP3    H177836   4.463   5.527   6.064  0.2131 -1.3564 -0.3378
18807TIP3    H277837   4.487   5.629   5.955 -0.0454 -0.7837  0.1384
18808TIP3   OH277838   5.745   6.368  12.814  0.1982 -0.3073 -0.0392
18808TIP3    H177839   5.777   6.384  12.725  1.0949 -0.8476  0.1722
18808TIP3    H277840   5.665   6.420  12.820  0.8773  0.8553 -0.6969
18809TIP3   OH277841   4.233   6.172  14.904 -0.2645  0.3451  0.0139
18809TIP3    H177842   4.305   6.234  14.894  0.1177  0.0672  0.9869
18809TIP3    H277843   4.258   6.098  14.848  0.4151  0.0705  0.6682
18810TIP3   OH277844   1.680   4.637  15.193  0.5437  0.3371  0.4964
18810TIP3    H177845   1.687   4.671  15.283 -1.1667 -0.5930  1.0353
18810TIP3    H277846   1.630   4.556  15.203  0.1554  0.3226 -1.3273
18811TIP3   OH277847   2.449   5.181  12.727 -0.3123 -0.5495 -0.7073
18811TIP3    H177848   2.458   5.241  12.653 -0.2486 -0.9844 -1.0576
18811TIP3    H277849   2.529   5.193  12.778 -0.6052  0.1564 -0.4025
18812TIP3   OH277850   5.891   1.183   5.614  0.6714  0.0096  0.2516
18812TIP3    H177851   5.824   1.249   5.599  0.6048 -0.4382 -1.7721
18812TIP3    H277852   5.913   1.191   5.706 -1.6881  0.6222  0.8298
18813TIP3   OH277853   1.570   5.111   0.622  0.2169  0.1420 -0.0684
18813TIP3    H177854   1.595   5.177   0.557 -0.4126  0.7268  0.2728
18813TIP3    H277855   1.600   5.147   0.706  0.3204 -0.2428  0.0606
18814TIP3   OH277856   2.821   1.736  15.077 -0.3340  0.1176  0.1744
18814TIP3    H177857   2.785   1.752  14.990  1.1022 -0.8641 -0.6435
18814TIP3    H277858   2.769   1.664  15.112  0.5081 -1.0138 -0.8235
18815TIP3   OH277859   2.531   3.998  16.270  0.2102 -0.2840 -0.7733
18815TIP3    H177860   2.607   4.006  16.328 -0.1974 -1.5516 -0.0171
18815TIP3    H277861   2.567   3.961  16.189  0.3456 -1.4311 -0.2151
18816TIP3   OH277862   0.490   2.340   2.356  0.9300  0.0420  0.0399
18816TIP3    H177863   0.435   2.328   2.279 -0.3408 -0.6292  1.0094
18816TIP3    H277864   0.508   2.251   2.386 -2.1972  0.1846  2.9276
18817TIP3   OH277865   2.080   1.558   2.033  0.2857  0.7215  0.1977
18817TIP3    H177866   2.109   1.544   1.943 -0.1931 -0.8073  0.2548
18817TIP3    H277867   2.069   1.470   2.069 -1.7569  1.2536  1.0402
18818TIP3   OH277868   1.697   0.625  16.006  0.6774 -0.0859 -0.4319
18818TIP3    H177869   1.703   0.651  16.098  0.8489  0.4927 -0.6031
18818TIP3    H277870   1.787   0.629  15.973  0.5032  0.6390 -0.8640
18819TIP3   OH277871   0.296   2.467  11.039 -0.0095  0.1429  0.5649
18819TIP3    H177872   0.275   2.560  11.028  1.3643  0.5483  1.0470
18819TIP3    H277873   0.362   2.466  11.109  0.3992 -1.1377  0.1892
18820TIP3   OH277874   6.401   3.141  16.263 -0.2611 -0.4936 -0.9802
18820TIP3    H177875   6.315   3.137  16.221 -0.9597 -0.2740  0.3730
18820TIP3    H277876   6.414   3.053  16.298 -0.3691 -0.2679 -0.3686
18821TIP3   OH277877   2.565   2.289  11.179  0.2912  0.1532  0.4672
18821TIP3    H177878   2.608   2.324  11.256  2.4561  1.5103 -1.2468
18821TIP3    H277879   2.629   2.298  11.108 -1.4074 -1.4278 -1.4427
18822TIP3   OH277880   6.383   2.428  14.432  0.6444  0.1026 -0.2054
18822TIP3    H177881   6.476   2.416  14.447  0.0140 -1.3117  4.3629
18822TIP3    H277882   6.345   2.341  14.446 -1.4980  1.0699  0.4875
18823TIP3   OH277883   3.024   4.109  13.026 -0.8308 -0.1155  0.0121
18823TIP3    H177884   3.116   4.136  13.035 -0.4243 -1.1601 -0.8729
18823TIP3    H277885   2.974   4.188  13.050  0.2956  0.7922 -0.5217
18824TIP3   OH277886   4.706   2.185   2.172 -0.0131  0.0922  0.6883
18824TIP3    H177887   4.703   2.264   2.226 -0.0303 -0.4685  1.5212
18824TIP3    H277888   4.768   2.206   2.102 -1.1155  1.3638  0.0480
18825TIP3   OH277889   2.847   4.490   5.191  0.1897 -0.5559 -0.1593
18825TIP3    H177890   2.757   4.523   5.184  0.4862  0.4386  0.4568
18825TIP3    H277891   2.875   4.514   5.279  0.5394 -2.2583  0.2285
18826TIP3   OH277892   3.200   1.063   2.038 -0.3143  0.0682  0.2750
18826TIP3    H177893   3.293   1.057   2.059 -0.3185 -0.2215  0.2097
18826TIP3    H277894   3.186   0.996   1.971 -0.9455 -1.1667  1.6041
18827TIP3   OH277895   5.926   5.245   0.991 -0.0119 -0.4417  0.2651
18827TIP3    H177896   5.831   5.255   0.996 -0.0444 -0.8469  0.4648
18827TIP3    H277897   5.953   5.225   1.081  0.2737 -0.2329  0.2284
18828TIP3   OH277898   2.553   6.096  15.983 -0.8404  0.3693 -0.3589
18828TIP3    H177899   2.537   6.189  16.002  0.1343  0.8196 -1.5657
18828TIP3    H277900   2.539   6.052  16.066 -0.2429  1.7487  0.5191
18829TIP3   OH277901   5.189   0.929   0.605 -0.9550 -0.1808  0.1514
18829TIP3    H177902   5.174   0.854   0.663 -1.6763  1.1271  1.7391
18829TIP3    H277903   5.163   0.897   0.518 -2.7563 -1.3128  1.0326
18830TIP3   OH277904   6.239   0.058  12.385  0.8313 -1.0059  0.3489
18830TIP3    H177905   6.305   0.043  12.453  2.8914  0.2708 -1.2446
18830TIP3    H277906   6.262   0.143  12.347 -2.0943 -0.2400  0.0452
18831TIP3   OH277907   0.871   5.192   2.778 -0.1974  0.3847  0.9260
18831TIP3    H177908   0.928   5.262   2.810 -0.0199  0.3270  0.7368
18831TIP3    H277909   0.783   5.224   2.796 -0.2459  1.7962 -1.3862
18832TIP3   OH277910   0.877   3.707   3.404  0.5504  0.2241 -0.0414
18832TIP3    H177911   0.873   3.648   3.478  0.6978 -1.4135 -1.2887
18832TIP3    H277912   0.954   3.679   3.355 -0.5577  0.0571 -1.7762
18833TIP3   OH277913   5.939   4.265   2.010  0.0699 -0.2354  0.3210
18833TIP3    H177914   5.877   4.283   2.080 -1.3091  0.4047 -1.0173
18833TIP3    H277915   5.981   4.183   2.034 -2.4960 -1.5750  0.4736
18834TIP3   OH277916   6.302   4.333  17.090 -0.1655 -0.4608  0.3877
18834TIP3    H177917   6.393   4.307  17.074 -0.5798 -1.9103  0.2343
18834TIP3    H277918   6.272   4.277  17.161 -0.9675 -0.0351  0.4054
18835TIP3   OH277919   2.277   3.069  14.483 -0.2201 -0.2243 -0.4159
18835TIP3    H177920   2.241   3.125  14.551 -0.1765  0.4565 -0.9501
18835TIP3    H277921   2.266   2.980  14.517  0.7302  0.1461  0.9358
18836TIP3   OH277922   0.650   0.983   2.288 -0.4319  0.0026  0.2362
18836TIP3    H177923   0.740   0.959   2.308  0.3601  2.3912 -0.1868
18836TIP3    H277924   0.644   0.977   2.193 -1.0745 -1.2027  0.3361
18837TIP3   OH277925   2.535   3.531   2.875 -0.2028 -0.6056 -0.8866
18837TIP3    H177926   2.593   3.601   2.844 -1.9484 -0.0243 -3.0247
18837TIP3    H277927   2.576   3.450   2.844  0.5910 -0.4002 -0.4251
18838TIP3   OH277928   0.778   0.299  17.008  0.1519  0.7803 -0.1181
18838TIP3    H177929   0.742   0.325  16.923 -2.1620  3.4590  1.5150
18838TIP3    H277930   0.860   0.347  17.016 -0.3818  1.7211 -0.2337
18839TIP3   OH277931   0.473   6.724  16.835  0.6588  0.1848 -0.1200
18839TIP3    H177932   0.379   6.714  16.823  0.5746  1.1948 -0.4006
18839TIP3    H277933   0.488   6.706  16.928 -0.2707  2.9157  0.6460
18840TIP3   OH277934   0.980   5.375   4.300 -0.2212  0.0100  0.1344
18840TIP3    H177935   1.003   5.313   4.370 -0.2718 -0.4929 -0.2913
18840TIP3    H277936   1.020   5.458   4.328  0.1792 -0.3038  0.5201
18841TIP3   OH277937   2.209   5.161  17.176 -0.2663 -0.0282  0.3993
18841TIP3    H177938   2.122   5.170  17.137  0.3209  1.0457 -0.7558
18841TIP3    H277939   2.249   5.089  17.128 -0.3144 -0.1358  0.5211
18842TIP3   OH277940   1.832   3.322   6.118 -0.5189  0.4132 -0.1547
18842TIP3    H177941   1.833   3.255   6.187  2.4777  2.5078  2.1128
18842TIP3    H277942   1.768   3.386   6.148  1.2725  1.6708  1.2492
18843TIP3   OH277943   0.447   0.464  12.251 -0.3599  0.1090 -0.3934
18843TIP3    H177944   0.403   0.524  12.190 -0.9225 -0.1969 -0.2981
18843TIP3    H277945   0.528   0.440  12.206  1.4848  3.3380  0.8416
18844TIP3   OH277946   1.474   1.359  11.256  0.2052  0.0170 -0.1100
18844TIP3    H177947   1.487   1.399  11.170  0.9732  3.2738  1.3799
18844TIP3    H277948   1.423   1.423  11.305  3.4258  0.3747  3.1933
18845TIP3   OH277949   3.669   0.020   1.468 -0.1584 -0.2277  0.0242
18845TIP3    H177950   3.617  -0.036   1.525  0.3307  0.1895  0.9040
18845TIP3    H277951   3.608   0.052   1.402 -0.2123 -2.7870 -1.3070
18846TIP3   OH277952   0.986   1.768  12.109  0.4428  0.2978 -0.2442
18846TIP3    H177953   0.970   1.704  12.178  1.6061  0.4851  0.2140
18846TIP3    H277954   0.954   1.726  12.029  0.7201 -0.6463  0.1315
18847TIP3   OH277955   4.424   1.937  12.029  0.6805  0.1507  0.4668
18847TIP3    H177956   4.499   1.891  12.065  1.5481 -0.1019 -1.5490
18847TIP3    H277957   4.461   1.997  11.964 -0.8670 -0.3742 -0.9868
18848TIP3   OH277958   6.377   2.040   1.735  0.0938  0.0651 -0.0653
18848TIP3    H177959   6.287   2.057   1.761 -0.0524 -0.7486 -0.0028
18848TIP3    H277960   6.372   2.019   1.642  0.5832  2.7146 -0.7642
18849TIP3   OH277961   1.905   4.221   3.637  0.6479  0.1015 -0.5335
18849TIP3    H177962   1.868   4.162   3.571 -0.5419 -0.1960  0.3630
18849TIP3    H277963   1.834   4.281   3.658  0.5758 -0.5737  1.3569
18850TIP3   OH277964   3.755   2.682   1.501  0.7129 -0.4618 -0.4363
18850TIP3    H177965   3.665   2.712   1.509  1.1572  0.7543  0.2406
18850TIP3    H277966   3.749   2.602   1.449 -0.6215  0.3451 -1.6118
18851TIP3   OH277967   0.931   4.685  11.668 -0.8519  0.0652 -0.6153
18851TIP3    H177968   0.924   4.619  11.737 -2.2226 -1.1176 -1.8396
18851TIP3    H277969   0.894   4.764  11.708 -0.6741 -0.3131  0.3356
18852TIP3   OH277970   0.415   1.277   2.487 -0.1790  0.1749  0.1192
18852TIP3    H177971   0.332   1.270   2.534 -0.7039 -0.3220 -0.8478
18852TIP3    H277972   0.447   1.187   2.482 -1.4438 -0.2203 -2.7040
18853TIP3   OH277973   1.974   3.552  15.017  0.6664 -0.0852 -0.3362
18853TIP3    H177974   1.945   3.547  14.926  0.8159  1.1737 -0.4727
18853TIP3    H277975   2.068   3.536  15.013  0.7833  0.5971 -0.4978
18854TIP3   OH277976   2.296   5.840  16.227 -0.2008 -0.1603  0.3159
18854TIP3    H177977   2.303   5.745  16.239  2.9585 -0.2537 -1.1809
18854TIP3    H277978   2.274   5.852  16.135  3.3544  0.4031 -0.6209
18855TIP3   OH277979   1.035   1.185  15.049 -0.2516 -0.1261  0.4894
18855TIP3    H177980   1.090   1.260  15.024 -1.9436  1.0007 -0.0881
18855TIP3    H277981   0.987   1.215  15.126  0.6949 -1.4885  1.6495
18856TIP3   OH277982   6.154   3.752  12.911 -0.0123 -0.4635 -0.1057
18856TIP3    H177983   6.234   3.805  12.909  0.0047 -0.4941 -1.8446
18856TIP3    H277984   6.083   3.816  12.913  0.0421 -0.4197  0.4616
18857TIP3   OH277985   5.713   2.565  13.103  0.5302 -0.0537 -0.5499
18857TIP3    H177986   5.772   2.535  13.173  0.9163  0.0980 -0.8073
18857TIP3    H277987   5.719   2.497  13.036  2.6705  1.3167 -1.8633
18858TIP3   OH277988   4.436   6.185   3.223 -0.2411  0.4907  0.0473
18858TIP3    H177989   4.497   6.202   3.295  0.5608  0.6414 -0.6563
18858TIP3    H277990   4.489   6.147   3.154 -1.1069 -0.1741 -0.2794
18859TIP3   OH277991   3.152   3.817  14.400 -0.2852  0.2748  0.0272
18859TIP3    H177992   3.164   3.745  14.338 -1.1856  0.8047 -0.7976
18859TIP3    H277993   3.152   3.895  14.345  0.5268  0.8960  0.8987
18860TIP3   OH277994   1.354   6.781   1.973  0.4774  0.3835 -0.6174
18860TIP3    H177995   1.378   6.758   2.062  0.2382 -0.6600 -0.8064
18860TIP3    H277996   1.370   6.875   1.967 -0.0853  0.5824  0.6956
18861TIP3   OH277997   0.224   4.086   5.475 -0.0345  0.3175  0.6687
18861TIP3    H177998   0.184   4.066   5.391  0.1607  0.3837  0.5593
18861TIP3    H277999   0.202   4.011   5.531 -0.3487  0.3767  0.6230
18862TIP3   OH278000   0.229   3.818   1.862  0.1061 -0.5041  0.4224
18862TIP3    H178001   0.158   3.820   1.799 -0.6409  0.5359  1.2788
18862TIP3    H278002   0.288   3.889   1.835  1.7100 -2.3181 -1.2190
18863TIP3   OH278003   0.053   4.808   2.664  0.0017  0.3840  0.1444
18863TIP3    H178004   0.121   4.875   2.666  1.3292 -0.7837 -2.0707
18863TIP3    H278005   0.014   4.816   2.577 -1.6504 -0.0301  0.8023
18864TIP3   OH278006   1.386   0.853   5.027  0.5024  0.0225 -0.2970
18864TIP3    H178007   1.350   0.765   5.018  1.5249 -0.4416  0.0393
18864TIP3    H278008   1.475   0.840   5.061  0.3077  1.2349  0.7525
18865TIP3   OH278009   5.491   2.708   3.647  0.8017  0.6911 -0.0501
18865TIP3    H178010   5.514   2.800   3.630 -1.4623  1.2277 -0.5600
18865TIP3    H278011   5.443   2.682   3.569 -1.1172 -0.0003  1.3044
18866TIP3   OH278012   4.220   3.582   0.105 -0.5684 -0.0927 -0.1906
18866TIP3    H178013   4.285   3.600   0.174  0.4792 -1.2943 -0.8257
18866TIP3    H278014   4.206   3.666   0.063  0.7468  0.1619 -0.1670
18867TIP3   OH278015   4.046   5.921  14.413  0.9246 -0.2460  0.4629
18867TIP3    H178016   4.104   5.845  14.421 -0.1425 -1.0170  1.1650
18867TIP3    H278017   4.020   5.921  14.321  1.4315 -0.3400  0.3144
18868TIP3   OH278018   4.820   0.573  16.206 -0.3947  0.3358  0.0110
18868TIP3    H178019   4.786   0.562  16.295  1.5006  0.9487  0.8659
18868TIP3    H278020   4.785   0.499  16.158 -0.5105 -0.6865  1.5854
18869TIP3   OH278021   4.685   5.458  11.527 -0.1858 -0.4832 -0.1513
18869TIP3    H178022   4.728   5.377  11.501  0.5910  0.1228 -0.8052
18869TIP3    H278023   4.744   5.527  11.497 -0.7440  0.3237  0.5527
18870TIP3   OH278024   6.113   1.022   1.942 -0.7040 -0.5959  0.0310
18870TIP3    H178025   6.030   1.070   1.948 -1.7591 -2.1481 -1.1558
18870TIP3    H278026   6.148   1.046   1.856 -1.4725 -2.1946 -0.7785
18871TIP3   OH278027   4.879   0.972  13.635  0.7021 -0.5495 -0.5395
18871TIP3    H178028   4.886   0.922  13.716 -0.2967  1.4769  0.9059
18871TIP3    H278029   4.964   1.016  13.625  0.1671  0.8405  0.6354
18872TIP3   OH278030   0.296   4.126  12.461 -0.2679  0.3138  0.4639
18872TIP3    H178031   0.226   4.125  12.526 -0.6285 -0.8293  0.0748
18872TIP3    H278032   0.331   4.037  12.461 -0.5503  0.1671 -1.1907
18873TIP3   OH278033   2.674   4.166  11.781 -0.2785 -0.0040  0.1115
18873TIP3    H178034   2.733   4.241  11.792 -0.5498  0.0309  1.6176
18873TIP3    H278035   2.729   4.090  11.796 -0.3016 -0.0371  0.0265
18874TIP3   OH278036   6.351   3.697   1.037 -0.1792 -0.2522 -0.4466
18874TIP3    H178037   6.362   3.774   0.981 -0.6324  0.8870  0.9599
18874TIP3    H278038   6.346   3.733   1.126 -1.3415 -1.8235  0.1662
18875TIP3   OH278039   5.217   0.932   3.221 -0.1459  0.9538  0.0372
18875TIP3    H178040   5.175   1.008   3.180 -0.6968  0.1340 -0.9727
18875TIP3    H278041   5.164   0.913   3.298 -0.0679  1.5121  0.2344
18876TIP3   OH278042   3.903   3.799  14.919  0.3966  0.6374  0.1476
18876TIP3    H178043   3.984   3.755  14.895  0.7391  1.6058 -0.5151
18876TIP3    H278044   3.845   3.729  14.949  1.7570  0.0190  1.4488
18877TIP3   OH278045   2.918   4.737  12.958  0.3384  0.1089  0.5527
18877TIP3    H178046   2.914   4.777  12.871 -0.6368  0.5270  0.7779
18877TIP3    H278047   2.897   4.645  12.943  1.8369 -0.1991  0.1358
18878TIP3   OH278048   6.649   6.375  13.076 -0.3933 -0.2419 -0.5666
18878TIP3    H178049   6.623   6.286  13.052  1.3527 -0.3277 -2.4359
18878TIP3    H278050   6.603   6.431  13.013 -0.6657  0.0991 -0.0693
18879TIP3   OH278051   0.430   2.521   2.554 -0.7359  0.0728 -0.0648
18879TIP3    H178052   0.482   2.591   2.516  0.4979 -0.7634  0.0126
18879TIP3    H278053   0.438   2.448   2.492  1.1639 -1.2458  1.5930
18880TIP3   OH278054   2.743   2.560  15.922 -0.0977 -0.5410  0.2060
18880TIP3    H178055   2.747   2.494  15.854  0.5522 -1.7365  1.3547
18880TIP3    H278056   2.808   2.532  15.987  0.3059  1.3024  0.6737
18881TIP3   OH278057   5.277   3.283   2.766  0.1944  0.0258 -0.0588
18881TIP3    H178058   5.275   3.306   2.673 -0.3327 -0.5238 -0.1896
18881TIP3    H278059   5.185   3.268   2.788  0.4158 -0.7712  0.3195
18882TIP3   OH278060   6.519   2.476  11.969  0.0451 -0.7352 -0.1956
18882TIP3    H178061   6.484   2.564  11.960  0.9964 -0.2866  0.3152
18882TIP3    H278062   6.458   2.431  12.027 -0.5871 -0.4979 -0.6685
18883TIP3   OH278063   2.134   6.561   0.792 -0.8098  0.3213 -0.3816
18883TIP3    H178064   2.165   6.648   0.767  0.4048  0.0389  0.0821
18883TIP3    H278065   2.051   6.577   0.837 -1.0146  1.1606 -1.0330
18884TIP3   OH278066   5.938   0.046   2.027  0.2752  0.0979 -0.2908
18884TIP3    H178067   5.938  -0.050   2.026 -2.1476  0.0231 -1.3586
18884TIP3    H278068   5.998   0.071   1.956  1.1403 -0.5924  0.1768
18885TIP3   OH278069   2.697   4.423   6.057 -0.4027  0.0429 -0.0945
18885TIP3    H178070   2.692   4.371   5.977  1.0769 -1.0928  0.5154
18885TIP3    H278071   2.666   4.365   6.126  0.7738  0.1116  0.5198
18886TIP3   OH278072   5.888   4.131  10.844  0.2246  0.1057  0.5518
18886TIP3    H178073   5.808   4.088  10.873 -1.9216  3.2234 -0.2453
18886TIP3    H278074   5.882   4.132  10.749 -0.0462  2.3996  0.5391
18887TIP3   OH278075   1.475   2.018  16.758  0.1253 -0.0837 -0.2202
18887TIP3    H178076   1.482   2.114  16.764 -0.4133 -0.1068  1.0618
18887TIP3    H278077   1.427   1.993  16.837 -1.8222 -1.1959 -1.6685
18888TIP3   OH278078   2.512   2.128  10.711  0.0039 -0.3233  0.4715
18888TIP3    H178079   2.605   2.122  10.689 -0.1777 -1.7699 -0.0211
18888TIP3    H278080   2.466   2.110  10.629 -0.7237  0.7397  0.6332
18889TIP3   OH278081   5.046   3.723   2.074  0.9032  0.3525  0.2015
18889TIP3    H178082   4.955   3.721   2.042  1.1221  4.5657 -1.2592
18889TIP3    H278083   5.077   3.633   2.063 -2.6864 -1.0091 -0.3115
18890TIP3   OH278084   4.954   1.471   0.972  0.4282 -0.2570  0.7899
18890TIP3    H178085   5.008   1.524   0.915 -1.7128  0.7673 -0.4249
18890TIP3    H278086   4.990   1.383   0.965  0.4171 -0.1106 -1.9655
18891TIP3   OH278087   3.054   2.494  11.879 -0.2750  0.0829 -0.0749
18891TIP3    H178088   3.017   2.503  11.967 -1.5750 -0.2721 -0.5669
18891TIP3    H278089   3.147   2.517  11.890 -0.3588 -0.1819  1.4239
18892TIP3   OH278090   5.274   0.352  13.286  0.3616 -0.5587  0.7221
18892TIP3    H178091   5.182   0.375  13.278  0.8037  0.8574 -0.7502
18892TIP3    H278092   5.299   0.381  13.374 -0.1585  0.7378  0.4572
18893TIP3   OH278093   1.276   6.756  16.233  0.2748  0.5614 -0.2190
18893TIP3    H178094   1.368   6.763  16.209  0.1870  1.1887 -0.3921
18893TIP3    H278095   1.258   6.836  16.284  0.2585 -0.3635  1.2880
18894TIP3   OH278096   0.835   3.640   0.579 -0.1044  0.0917 -0.1427
18894TIP3    H178097   0.855   3.676   0.665  1.3787  0.3191 -0.5620
18894TIP3    H278098   0.885   3.559   0.574 -0.6998 -0.2585 -0.5344
18895TIP3   OH278099   3.921   1.882   6.549 -0.0654 -0.0916  0.1503
18895TIP3    H178100   4.003   1.842   6.522  0.4343 -0.9895  2.7095
18895TIP3    H278101   3.856   1.847   6.488  1.2795 -0.1528 -1.2935
18896TIP3   OH278102   6.094   0.068  14.846 -0.1893  0.3593 -0.2860
18896TIP3    H178103   6.075   0.131  14.776 -0.4700  1.5932  0.8651
18896TIP3    H278104   6.177   0.028  14.821 -1.5370 -1.1793 -2.6658
18897TIP3   OH278105   2.214   5.821  12.278 -0.0629 -0.0105  0.0495
18897TIP3    H178106   2.274   5.751  12.252  0.7621  0.7091 -0.0361
18897TIP3    H278107   2.256   5.901  12.246 -0.7055  0.5743  0.6453
18898TIP3   OH278108   2.576   4.687   1.948 -0.1133  0.2583 -0.5798
18898TIP3    H178109   2.599   4.604   1.990 -1.3007  0.1127 -0.1911
18898TIP3    H278110   2.660   4.724   1.920  0.6117 -0.0987  1.0575
18899TIP3   OH278111   0.587   3.893  15.730  0.1442  0.2241 -0.1680
18899TIP3    H178112   0.611   3.800  15.724 -0.0354  0.2309 -1.3522
18899TIP3    H278113   0.495   3.895  15.703  0.0198  0.6971  0.2864
18900TIP3   OH278114   3.964   0.635   0.036 -0.1385  0.5313  0.0237
18900TIP3    H178115   3.925   0.674  -0.042 -1.8254 -0.4019  0.3480
18900TIP3    H278116   4.058   0.648   0.025 -0.4215  1.5248 -1.5471
18901TIP3   OH278117   0.700   4.226  13.215  0.2891  0.3605  0.3987
18901TIP3    H178118   0.716   4.142  13.259  0.1193  0.8179  1.3564
18901TIP3    H278119   0.647   4.202  13.138 -2.6494 -0.1095  2.4089
18902TIP3   OH278120   0.383   1.190  11.094 -0.2846 -0.1273 -0.4867
18902TIP3    H178121   0.454   1.254  11.092 -0.1924 -0.1050  1.4611
18902TIP3    H278122   0.308   1.238  11.127 -0.7573 -0.5698 -0.8883
18903TIP3   OH278123   0.517   1.850  17.061 -0.0280 -0.3233  0.3640
18903TIP3    H178124   0.459   1.875  16.989 -0.0927 -0.3647  0.4016
18903TIP3    H278125   0.575   1.926  17.073 -1.4441  0.6114  1.7341
18904TIP3   OH278126   3.473   2.449   3.096 -0.3191 -0.0887 -0.4892
18904TIP3    H178127   3.550   2.501   3.120 -0.2478  1.7605 -4.0507
18904TIP3    H278128   3.508   2.366   3.065  0.2073  0.3899 -1.2016
18905TIP3   OH278129   4.378   0.934   0.855 -0.6360 -0.4552  0.0784
18905TIP3    H178130   4.460   0.959   0.812 -1.5726  0.3008 -1.3662
18905TIP3    H278131   4.401   0.857   0.907  1.6019  1.3379  1.9728
18906TIP3   OH278132   2.013   1.690  11.990 -0.4509  0.1453  0.2353
18906TIP3    H178133   1.995   1.761  12.052  1.3279 -0.1288  1.1352
18906TIP3    H278134   2.003   1.610  12.042  2.1874 -0.0574  0.6045
18907TIP3   OH278135   6.000   4.931   5.933  0.0142 -0.6909  0.6165
18907TIP3    H178136   5.916   4.889   5.955 -0.9593  1.8976  2.2830
18907TIP3    H278137   6.030   4.968   6.016  1.4220  0.8089 -0.5106
18908TIP3   OH278138   4.525   3.474  11.112  0.1976  0.5398 -0.1614
18908TIP3    H178139   4.505   3.406  11.048 -1.1138  0.2180  0.5662
18908TIP3    H278140   4.616   3.499  11.092  0.6690 -1.3210 -0.5132
18909TIP3   OH278141   0.622   4.239  16.270 -0.0911 -0.0041 -0.2585
18909TIP3    H178142   0.608   4.194  16.187 -1.8027  1.7878 -1.0197
18909TIP3    H278143   0.712   4.217  16.295  0.2912 -0.9605 -2.3339
18910TIP3   OH278144   6.754   0.913   3.850 -0.3016  0.1029 -0.2630
18910TIP3    H178145   6.732   0.845   3.786 -0.0650  1.4437 -1.8314
18910TIP3    H278146   6.849   0.903   3.864 -0.3904 -0.3241  0.0414
18911TIP3   OH278147   3.769   5.874  16.636 -0.0883 -0.0443  0.2314
18911TIP3    H178148   3.747   5.801  16.693  1.2485 -1.4263 -0.9388
18911TIP3    H278149   3.696   5.879  16.574  0.6295 -1.5593 -0.7665
18912TIP3   OH278150   2.205   3.904  11.979 -0.2259  0.1527  0.2190
18912TIP3    H178151   2.220   3.828  11.924  0.8165  0.4957  0.0063
18912TIP3    H278152   2.239   3.978  11.928  0.9731  0.4517  1.3807
18913TIP3   OH278153   0.487   0.502  10.969  0.2842 -0.8134  0.1258
18913TIP3    H178154   0.452   0.493  10.880  0.6790 -2.6829  0.1081
18913TIP3    H278155   0.522   0.591  10.973 -2.3431  0.3619 -0.5936
18914TIP3   OH278156   4.573   2.044  14.794  0.1230  0.5839 -0.1641
18914TIP3    H178157   4.624   2.110  14.841 -0.5301  0.6775  0.4440
18914TIP3    H278158   4.482   2.065  14.816 -0.0572 -1.1757  0.9279
18915TIP3   OH278159   1.752   5.922   1.810 -0.1524  0.2183 -0.3913
18915TIP3    H178160   1.822   5.870   1.771 -0.8527 -0.6877 -0.4785
18915TIP3    H278161   1.711   5.966   1.736 -0.3878 -0.1405 -0.4755
18916TIP3   OH278162   4.443   4.788   3.972  0.5808  0.0219 -0.0236
18916TIP3    H178163   4.468   4.856   3.909  1.9482 -1.5665 -1.2705
18916TIP3    H278164   4.503   4.715   3.955  0.0372 -1.0335  2.1594
18917TIP3   OH278165   0.856   3.518   3.629 -0.0541  0.1320  0.2000
18917TIP3    H178166   0.762   3.521   3.617 -0.1106  0.2971  0.6612
18917TIP3    H278167   0.869   3.535   3.723  0.3712 -0.9653  0.3471
18918TIP3   OH278168   6.446   0.302  13.919 -0.2847 -0.0775 -0.7224
18918TIP3    H178169   6.481   0.256  13.995  1.3876 -1.0686 -2.0391
18918TIP3    H278170   6.380   0.243  13.882 -1.5784  0.6816  0.2636
18919TIP3   OH278171   3.435   3.285  15.561  0.2254  0.5544  0.0527
18919TIP3    H178172   3.441   3.190  15.547 -2.5619 -0.1902  2.7552
18919TIP3    H278173   3.379   3.316  15.490 -0.5752 -0.2340  0.3135
18920TIP3   OH278174   1.099   3.610   3.292 -0.2735  0.0273 -0.5466
18920TIP3    H178175   1.095   3.552   3.369 -0.2263 -1.1154 -1.3800
18920TIP3    H278176   1.132   3.554   3.221 -2.3973  0.4199 -1.9415
18921TIP3   OH278177   2.822   2.752   2.192  0.3990  0.4615 -0.6588
18921TIP3    H178178   2.815   2.725   2.100  1.5121 -4.0718  0.3261
18921TIP3    H278179   2.736   2.731   2.230  0.9201 -0.7082 -0.0843
18922TIP3   OH278180   4.996   1.740  16.207  0.5003  0.5415  0.5695
18922TIP3    H178181   4.963   1.808  16.148 -0.0805 -0.1055  0.1198
18922TIP3    H278182   4.925   1.676  16.211  1.8024 -1.0645 -0.6793
18923TIP3   OH278183   1.332   5.614   3.462  0.0844  0.0577  0.0837
18923TIP3    H178184   1.260   5.566   3.420 -1.4904  0.5699  2.0543
18923TIP3    H278185   1.350   5.565   3.542 -0.0876  1.5418  1.0557
18924TIP3   OH278186   4.955   6.543   2.952  0.3242  0.4634  0.6825
18924TIP3    H178187   4.948   6.539   3.048  0.4885  1.7708  0.7616
18924TIP3    H278188   4.877   6.496   2.921  0.4471 -0.2760  1.4441
18925TIP3   OH278189   0.934   3.635  11.711  0.4117 -0.2452  0.3360
18925TIP3    H178190   0.975   3.717  11.738  2.5206 -0.9260 -0.5118
18925TIP3    H278191   0.973   3.616  11.626 -0.2634 -1.9563  0.3613
18926TIP3   OH278192   5.156   4.187  17.166 -0.1266 -0.9740  0.0650
18926TIP3    H178193   5.160   4.147  17.253 -1.2969 -2.6104 -0.5638
18926TIP3    H278194   5.190   4.119  17.108 -1.4869 -0.7940 -0.9788
18927TIP3   OH278195   1.953   1.653  13.675 -0.2388  0.0952 -0.2986
18927TIP3    H178196   1.886   1.590  13.700 -1.5096 -0.3327 -4.1756
18927TIP3    H278197   2.029   1.599  13.651  0.9201  0.4918  2.1058
18928TIP3   OH278198   2.627   4.572  11.081 -0.0987  0.1509 -0.7048
18928TIP3    H178199   2.556   4.605  11.026 -0.6578 -0.4210 -0.3393
18928TIP3    H278200   2.631   4.633  11.154 -1.7768 -1.0434  0.4745
18929TIP3   OH278201   6.233   6.605  13.476 -0.2455  0.5210 -0.3898
18929TIP3    H178202   6.200   6.564  13.556 -1.8460  1.5072 -0.4928
18929TIP3    H278203   6.192   6.555  13.405  0.6333  0.0769 -0.5982
18930TIP3   OH278204   0.040   1.712   2.570  0.2892  0.2655  0.1393
18930TIP3    H178205   0.019   1.775   2.501 -2.8460  1.1336  1.7053
18930TIP3    H278206   0.038   1.626   2.527 -2.4815  0.7099 -0.7722
18931TIP3   OH278207   5.413   4.477   2.148  0.7152  0.1985  0.0026
18931TIP3    H178208   5.332   4.484   2.200  0.4909  3.1584 -0.5892
18931TIP3    H278209   5.382   4.459   2.059  0.7754  0.2965 -0.0375
18932TIP3   OH278210   5.256   0.714   1.877  0.1535  0.2425  0.3284
18932TIP3    H178211   5.289   0.624   1.888  3.4194  1.0547 -1.5788
18932TIP3    H278212   5.308   0.765   1.939 -3.0694  0.7484  2.9058
18933TIP3   OH278213   2.986   1.948  16.697 -0.5155 -0.0634  0.1330
18933TIP3    H178214   2.962   1.929  16.788 -0.1639 -0.4492  0.1483
18933TIP3    H278215   3.076   1.916  16.689 -0.4716  0.1634 -0.2912
18934TIP3   OH278216   0.903   0.715  11.831  0.0360 -0.1944  0.3006
18934TIP3    H178217   0.931   0.736  11.742 -0.6412  0.7111  0.2860
18934TIP3    H278218   0.975   0.663  11.868  0.0479 -1.1416 -0.9794
18935TIP3   OH278219   0.832   3.957  12.625  0.3384  0.0914  0.4131
18935TIP3    H178220   0.746   3.942  12.664  0.1076 -0.0663 -0.1534
18935TIP3    H278221   0.818   3.950  12.531  0.2616  3.4400  0.0277
18936TIP3   OH278222   2.916   1.063  16.313 -0.1595  0.1945 -0.4357
18936TIP3    H178223   2.884   1.015  16.236  0.1078  1.2667 -1.2335
18936TIP3    H278224   2.874   1.149  16.307 -2.6808 -0.6434  2.3592
18937TIP3   OH278225   4.758   6.453   2.276  0.1810  0.3029 -0.1277
18937TIP3    H178226   4.729   6.366   2.250  0.2063  0.2658 -0.0311
18937TIP3    H278227   4.817   6.481   2.205  0.9020 -0.1372  0.2853
18938TIP3   OH278228   3.063   5.904  11.878  0.1051 -0.2731 -0.3334
18938TIP3    H178229   3.153   5.871  11.886 -0.1677 -1.0012 -0.1688
18938TIP3    H278230   3.040   5.932  11.966 -0.5214 -1.9652  0.0750
18939TIP3   OH278231   0.016   4.350   0.700  0.2664  0.0803  0.2057
18939TIP3    H178232   0.081   4.411   0.732 -0.1503  0.7810 -0.2601
18939TIP3    H278233  -0.053   4.350   0.766  0.2879  0.0817  0.2277
18940TIP3   OH278234   5.307   5.622  16.780  0.3443  0.4683 -0.4841
18940TIP3    H178235   5.378   5.675  16.744  1.1298 -0.3108 -0.1078
18940TIP3    H278236   5.338   5.597  16.867  0.5267 -1.5775 -1.0794
18941TIP3   OH278237   6.099   3.726   3.162 -0.3915 -0.6212 -0.3864
18941TIP3    H178238   6.029   3.681   3.115 -1.6197 -0.9855  1.6766
18941TIP3    H278239   6.139   3.658   3.216  0.7459 -0.1448 -0.5961
18942TIP3   OH278240   3.242   6.166  15.424 -0.0629 -0.3754  0.6236
18942TIP3    H178241   3.296   6.104  15.472 -0.1272 -1.2331 -0.3512
18942TIP3    H278242   3.272   6.252  15.452  0.9658 -0.8433  1.0043
18943TIP3   OH278243   2.606   3.567  17.117  0.8404  0.2905 -0.0599
18943TIP3    H178244   2.589   3.502  17.049 -1.2209  0.1773  0.4835
18943TIP3    H278245   2.654   3.637  17.073 -0.8928  0.4674 -1.7996
18944TIP3   OH278246   2.578   6.322   1.530  0.3003  0.1364 -0.1959
18944TIP3    H178247   2.514   6.376   1.576 -0.2594 -0.5245 -0.1993
18944TIP3    H278248   2.608   6.259   1.596 -0.1221 -0.4779 -0.5807
18945TIP3   OH278249   0.886   0.744  11.382  0.1397  0.2397  0.3018
18945TIP3    H178250   0.900   0.814  11.318 -0.5171  0.9146  0.8792
18945TIP3    H278251   0.910   0.664  11.335  1.1922  0.8696 -0.2688
18946TIP3   OH278252   2.027   1.252  12.089  0.3010  0.1504 -0.0898
18946TIP3    H178253   2.036   1.281  12.180  2.9044  0.2737 -0.3268
18946TIP3    H278254   2.105   1.284  12.046  0.7235 -2.6391 -1.6329
18947TIP3   OH278255   2.118   5.076  10.982 -0.7088 -0.2596 -0.2736
18947TIP3    H178256   2.063   5.153  10.963  1.3552  1.4155  0.0954
18947TIP3    H278257   2.207   5.111  10.986  0.2739 -2.6290  0.4125
18948TIP3   OH278258   1.815   4.511   2.372 -0.3157 -0.4831  0.0616
18948TIP3    H178259   1.750   4.559   2.321 -1.1433 -0.2803  1.2497
18948TIP3    H278260   1.865   4.579   2.417 -2.1279 -0.6265  2.5261
18949TIP3   OH278261   3.489   2.236   1.842 -0.5121  0.1801 -0.3989
18949TIP3    H178262   3.442   2.284   1.910 -0.7257  1.5501 -1.4687
18949TIP3    H278263   3.582   2.255   1.859 -0.5520  0.3472 -0.3689
18950TIP3   OH278264   6.091   5.356   2.958 -0.1549  0.2502  0.2356
18950TIP3    H178265   6.084   5.293   3.030 -1.0675  1.1817  0.9948
18950TIP3    H278266   6.064   5.439   2.997 -2.8722  0.3997 -1.7219
18951TIP3   OH278267   3.518   5.663   4.880 -0.0417 -0.4072 -0.7112
18951TIP3    H178268   3.512   5.726   4.809  1.2920  2.1103  1.2441
18951TIP3    H278269   3.441   5.679   4.935  0.9869  0.6049  0.5246
18952TIP3   OH278270   4.535   3.399   6.129  0.2826  0.5423 -0.5949
18952TIP3    H178271   4.514   3.463   6.196  1.3288  0.8726 -0.5567
18952TIP3    H278272   4.511   3.442   6.047  1.0483  1.0369 -0.5755
18953TIP3   OH278273   2.308   0.054   3.535  0.1416 -0.2519 -0.9020
18953TIP3    H178274   2.317   0.143   3.571 -1.1147  0.5479 -2.4285
18953TIP3    H278275   2.397   0.019   3.535  0.5154  0.5684  0.7563
18954TIP3   OH278276   1.756   5.403   4.488  0.4786  0.0607 -0.6465
18954TIP3    H178277   1.810   5.482   4.488 -1.4747  1.5053 -1.4317
18954TIP3    H278278   1.707   5.408   4.570 -1.1617  0.8654 -1.6038
18955TIP3   OH278279   3.101   4.438   6.412  0.0798 -0.0432  0.1070
18955TIP3    H178280   3.183   4.487   6.415  0.3478 -0.2303 -2.4720
18955TIP3    H278281   3.033   4.504   6.407  0.3174  0.1336 -1.2061
18956TIP3   OH278282   1.604   3.696  12.408 -0.3179  0.0279  0.2066
18956TIP3    H178283   1.699   3.693  12.396 -0.2631 -2.2646  0.7679
18956TIP3    H278284   1.589   3.768  12.470  0.9221  1.0130 -0.5908
18957TIP3   OH278285   5.046   6.721   0.882  0.2982 -0.0672  0.0371
18957TIP3    H178286   5.031   6.735   0.976 -1.4373  1.4123 -0.4100
18957TIP3    H278287   4.962   6.690   0.849  0.6920  0.0923 -1.1582
18958TIP3   OH278288   0.865   5.757  12.134 -0.3095  0.1506  0.6830
18958TIP3    H178289   0.889   5.685  12.076  1.6869  0.5474  0.9437
18958TIP3    H278290   0.902   5.733  12.219 -1.7882  0.3405  1.4049
18959TIP3   OH278291   5.668   2.898  15.991  0.6162 -0.4159  1.1532
18959TIP3    H178292   5.645   2.809  16.018 -0.9847 -0.7404 -0.9916
18959TIP3    H278293   5.674   2.893  15.896  2.2532  1.4236  1.1169
18960TIP3   OH278294   0.010   6.338   4.978 -0.2515 -0.2232 -0.2931
18960TIP3    H178295   0.055   6.268   4.931 -0.0918 -0.8315  0.7373
18960TIP3    H278296   0.079   6.401   5.000  0.4038 -1.6814  2.2551
18961TIP3   OH278297   4.771   5.356  13.262  0.3695  0.7808 -0.5033
18961TIP3    H178298   4.712   5.381  13.191  0.6491  1.5332 -0.4845
18961TIP3    H278299   4.829   5.432  13.272 -1.2419  1.7779  2.2219
18962TIP3   OH278300   5.908   5.004  15.436  0.1003 -0.0748 -0.0561
18962TIP3    H178301   5.957   5.029  15.358 -0.5631  2.5942  0.2920
18962TIP3    H278302   5.819   5.032  15.419 -0.2202 -0.1330  1.3514
18963TIP3   OH278303   2.985   6.505  12.002 -0.5116  0.0351 -0.3856
18963TIP3    H178304   3.041   6.492  12.078 -2.2781 -2.6047  0.6100
18963TIP3    H278305   2.920   6.568  12.031 -1.8719 -1.8182  0.8089
18964TIP3   OH278306   3.192   6.091  13.377  0.3479  0.1006 -0.2584
18964TIP3    H178307   3.261   6.156  13.394 -0.4956  0.7237  0.8294
18964TIP3    H278308   3.180   6.046  13.460  0.0461 -0.6173 -0.6830
18965TIP3   OH278309   2.942   0.237   3.397 -0.2919 -0.1410  0.1256
18965TIP3    H178310   2.963   0.241   3.490  1.2914  1.8702 -0.2706
18965TIP3    H278311   2.876   0.306   3.384 -1.1820 -1.0048 -0.1258
18966TIP3   OH278312   1.294   6.153  16.405 -0.2911 -0.0125 -0.2547
18966TIP3    H178313   1.201   6.158  16.428 -0.9910  0.0272 -2.7725
18966TIP3    H278314   1.339   6.193  16.479 -2.4781  2.4277 -0.1111
18967TIP3   OH278315   3.357   1.725  13.682  0.1556  0.5271  0.2396
18967TIP3    H178316   3.325   1.718  13.772 -4.0328  1.6018 -0.9513
18967TIP3    H278317   3.398   1.811  13.678  0.2134  0.5503  1.0628
18968TIP3   OH278318   3.849   3.122  16.811  0.1781  0.4561  0.1637
18968TIP3    H178319   3.891   3.066  16.746 -0.3758 -0.6616  0.7383
18968TIP3    H278320   3.767   3.077  16.832 -0.2821  1.4931  0.6472
18969TIP3   OH278321   4.988   4.082  13.227 -0.0217 -0.1126  0.7347
18969TIP3    H178322   5.019   4.001  13.188 -0.7856 -0.6732  1.2772
18969TIP3    H278323   5.027   4.083  13.315 -1.5380 -0.8594  1.4530
18970TIP3   OH278324   4.636   5.730   4.162  0.3446 -0.2260  0.5285
18970TIP3    H178325   4.696   5.655   4.155 -1.6116 -2.0446  2.0688
18970TIP3    H278326   4.669   5.781   4.235  1.6672  0.4639 -0.5033
18971TIP3   OH278327   0.796   5.767   2.828 -0.1320  0.0953  0.2878
18971TIP3    H178328   0.723   5.821   2.797  1.1420  2.0000  0.4268
18971TIP3    H278329   0.806   5.789   2.920  1.0395  0.4066  0.1097
18972TIP3   OH278330   2.945   0.505   5.292  0.4000 -0.0844 -0.1633
18972TIP3    H178331   3.030   0.545   5.274 -0.6734  1.2682 -2.8492
18972TIP3    H278332   2.883   0.555   5.239 -2.0007 -1.4716  1.1330
18973TIP3   OH278333   1.210   6.412   2.175 -0.1133 -0.8027  0.4791
18973TIP3    H178334   1.283   6.470   2.193  0.1191 -1.8870  3.9010
18973TIP3    H278335   1.132   6.464   2.194 -0.0120 -0.8656  1.0884
18974TIP3   OH278336   5.856   1.634   1.516  0.5844 -0.7573 -0.2272
18974TIP3    H178337   5.898   1.720   1.517  1.1884 -1.0350  1.1616
18974TIP3    H278338   5.867   1.601   1.606 -2.1669 -1.0695  0.0710
18975TIP3   OH278339   0.284   0.195  12.449 -0.0343  0.5369 -0.8010
18975TIP3    H178340   0.340   0.271  12.464 -1.0163  1.4216 -1.4386
18975TIP3    H278341   0.195   0.231  12.449 -0.5881 -0.7709 -0.1634
18976TIP3   OH278342   1.240   4.226   5.708  0.8730  0.6181  0.8571
18976TIP3    H178343   1.234   4.321   5.709  1.3381  0.6518  0.5747
18976TIP3    H278344   1.278   4.202   5.793  2.2588  0.7983  0.3196
18977TIP3   OH278345   6.481   2.250  10.966  0.2357  0.8894  0.7658
18977TIP3    H178346   6.498   2.196  10.889 -0.4403 -0.1897  1.3547
18977TIP3    H278347   6.391   2.280  10.955  0.0051  0.4157  1.3071
18978TIP3   OH278348   4.952   5.114  12.834 -0.1199 -0.1898  0.4022
18978TIP3    H178349   4.981   5.125  12.925 -1.6230 -1.0429  1.0300
18978TIP3    H278350   4.885   5.046  12.839  0.4333 -0.9122 -1.5083
18979TIP3   OH278351   4.787   0.575   3.025  0.1125 -0.2473 -0.1281
18979TIP3    H178352   4.789   0.637   2.952 -0.1443 -1.7240 -1.4647
18979TIP3    H278353   4.873   0.533   3.023 -0.0761 -0.6509  0.1009
18980TIP3   OH278354   5.643   0.554   1.219 -0.2488 -0.1326  0.2554
18980TIP3    H178355   5.722   0.548   1.164 -0.7452  0.4487 -0.5500
18980TIP3    H278356   5.668   0.613   1.290 -0.2311  0.8280 -0.5232
18981TIP3   OH278357   2.612   1.479  16.517 -0.0203 -0.4804 -0.1750
18981TIP3    H178358   2.577   1.411  16.574  0.1858  1.2550  2.1731
18981TIP3    H278359   2.706   1.458  16.511  0.1100 -0.2363  0.8244
18982TIP3   OH278360   1.008   3.344  12.838  0.0237 -0.0367  0.6802
18982TIP3    H178361   0.925   3.388  12.822  0.3346  0.0940 -0.7091
18982TIP3    H278362   1.067   3.379  12.771  0.3546 -2.3240 -0.3455
18983TIP3   OH278363   1.293   1.154   3.478  0.4439 -0.2187 -0.2144
18983TIP3    H178364   1.218   1.136   3.421  0.3022 -0.0675 -0.0741
18983TIP3    H278365   1.268   1.230   3.529  1.7238  1.5252 -2.0314
18984TIP3   OH278366   4.644   1.956   0.877  0.2710  0.4888 -0.1849
18984TIP3    H178367   4.633   1.865   0.850  0.5806  0.1663  0.7504
18984TIP3    H278368   4.731   1.980   0.846  0.4303  0.2730  0.0899
18985TIP3   OH278369   0.024   5.222  11.559  0.1882  0.1541 -0.0386
18985TIP3    H178370  -0.045   5.284  11.582 -1.7607 -0.8049 -2.7754
18985TIP3    H278371  -0.007   5.138  11.593  0.3437 -0.1548 -0.6470
18986TIP3   OH278372   3.062   6.560  15.128 -0.0080  0.4341  0.9054
18986TIP3    H178373   3.044   6.467  15.133  1.2984  0.1425  0.6139
18986TIP3    H278374   3.085   6.585  15.218 -0.9600  0.6216  1.1058
18987TIP3   OH278375   2.371   0.379  13.314  0.1067 -0.0713 -0.3006
18987TIP3    H178376   2.327   0.444  13.260 -1.7835 -1.4252 -0.5126
18987TIP3    H278377   2.300   0.325  13.350  1.4269 -0.5425  1.8185
18988TIP3   OH278378   0.216   5.986   3.553 -0.3962 -0.1055 -0.0993
18988TIP3    H178379   0.240   6.060   3.497 -0.6564 -0.7203 -1.0389
18988TIP3    H278380   0.129   5.960   3.522 -0.6329 -0.3280  0.7341
18989TIP3   OH278381   6.671   5.874   4.538 -0.3582 -0.3151 -0.0013
18989TIP3    H178382   6.682   5.969   4.534 -0.1181 -0.3284  0.3564
18989TIP3    H278383   6.634   5.857   4.624  1.2679 -0.6971  0.6685
18990TIP3   OH278384   2.121   2.718  11.073 -0.4678  0.0239  0.0045
18990TIP3    H178385   2.064   2.679  11.006 -2.2167 -0.1649  1.5248
18990TIP3    H278386   2.173   2.782  11.026 -0.7150 -1.0139 -1.7638
18991TIP3   OH278387   0.804   2.333  16.607 -1.0994 -0.1219 -0.5720
18991TIP3    H178388   0.888   2.369  16.577 -1.1144  0.3459 -0.0579
18991TIP3    H278389   0.742   2.406  16.598 -1.2358 -0.1641  0.0144
18992TIP3   OH278390   2.881   3.678  15.143 -0.4626  0.0566  0.4409
18992TIP3    H178391   2.833   3.660  15.062 -1.0990  1.0280  0.5819
18992TIP3    H278392   2.843   3.619  15.208  0.8518 -1.5696 -0.2136
18993TIP3   OH278393   0.794   4.494  12.768 -0.2312 -0.2106  0.0363
18993TIP3    H178394   0.746   4.494  12.686 -0.2761  1.3446  0.0309
18993TIP3    H278395   0.735   4.535  12.831  1.0060  1.6996  0.0384
18994TIP3   OH278396   5.759   6.016  15.413  0.4947  0.1566  0.2006
18994TIP3    H178397   5.665   6.032  15.406  0.5672  0.3201 -0.4695
18994TIP3    H278398   5.796   6.056  15.334  1.1995  0.6741  0.7802
18995TIP3   OH278399   6.261   1.903   2.860 -0.1824  0.1577  0.9971
18995TIP3    H178400   6.226   1.846   2.928 -1.0060 -0.3563  0.1572
18995TIP3    H278401   6.356   1.897   2.871 -0.1405 -2.5851  0.0240
18996TIP3   OH278402   4.229   1.041   3.679 -0.3252 -0.0761  0.0797
18996TIP3    H178403   4.311   1.090   3.672  0.7190 -1.6847  0.4953
18996TIP3    H278404   4.238   0.970   3.616 -1.1868 -0.5748  0.5022
18997TIP3   OH278405   3.745   1.032  12.080  0.2613 -0.3191  0.3448
18997TIP3    H178406   3.836   1.003  12.091  1.1012  1.0067 -2.3518
18997TIP3    H278407   3.734   1.041  11.986 -2.2277  1.0252  0.6962
18998TIP3   OH278408   5.742   6.160  14.801 -0.2180 -0.4353 -0.7580
18998TIP3    H178409   5.802   6.234  14.788  2.4390 -2.3123  0.0282
18998TIP3    H278410   5.662   6.200  14.837 -0.0197  2.3264 -3.0219
18999TIP3   OH278411   3.001   1.406  15.685  0.1273 -0.0133 -0.1026
18999TIP3    H178412   2.971   1.364  15.765 -0.3283 -0.4296 -0.4883
18999TIP3    H278413   3.049   1.483  15.715 -1.1648  0.5745  0.5273
19000TIP3   OH278414   4.908   2.172  12.420  0.5322 -0.6575 -0.1887
19000TIP3    H178415   4.818   2.177  12.388  0.6845 -0.2846 -0.5704
19000TIP3    H278416   4.899   2.168  12.516  0.0841 -1.4795 -0.2572
19001TIP3   OH278417   0.848   1.340   1.396  0.0623 -0.3649  0.1054
19001TIP3    H178418   0.913   1.407   1.374  0.9153 -0.9244  0.8363
19001TIP3    H278419   0.819   1.306   1.311  0.1547  0.4125 -0.2505
19002TIP3   OH278420   2.813   4.234   0.580  0.5051 -0.2461  0.2052
19002TIP3    H178421   2.849   4.231   0.492 -0.1863  0.4847 -0.1174
19002TIP3    H278422   2.752   4.160   0.584 -0.3075  0.3805 -0.3261
19003TIP3   OH278423   3.021   2.322   2.362  0.3214  0.1504  0.1595
19003TIP3    H178424   3.071   2.258   2.311 -0.2526  0.8816 -1.3978
19003TIP3    H278425   2.996   2.389   2.298  0.4728  1.6848  1.6198
19004TIP3   OH278426   3.214   4.181  11.361 -0.3491  0.3840  0.2812
19004TIP3    H178427   3.232   4.255  11.303 -0.2181  0.9726  1.0583
19004TIP3    H278428   3.122   4.191  11.385 -0.9586 -0.9458 -1.3241
19005TIP3   OH278429   6.264   0.946  13.211 -0.0527  0.3740  0.0817
19005TIP3    H178430   6.196   1.012  13.197 -0.4025 -0.0186 -0.1075
19005TIP3    H278431   6.241   0.906  13.295 -0.1186  0.1724 -0.0310
19006TIP3   OH278432   1.866   1.958  12.564 -0.5754 -0.1195  0.1601
19006TIP3    H178433   1.825   2.043  12.580 -0.2744 -0.2880  1.9677
19006TIP3    H278434   1.796   1.904  12.526 -0.7893  0.8764 -0.9180
19007TIP3   OH278435   5.809   2.084  12.139 -0.6007 -0.0043 -0.1519
19007TIP3    H178436   5.778   2.052  12.224  0.1175  0.1598  0.1828
19007TIP3    H278437   5.782   2.175  12.136 -1.1669 -0.1806 -0.3665
19008TIP3   OH278438   5.432   5.833  11.107 -0.3900  0.2184 -0.2536
19008TIP3    H178439   5.486   5.911  11.091 -1.2548  1.4486  2.3362
19008TIP3    H278440   5.494   5.769  11.141 -0.3021  1.2847  1.7312
19009TIP3   OH278441   3.360   2.769   5.376 -0.1046 -0.1258  0.5870
19009TIP3    H178442   3.378   2.752   5.283  0.3827 -1.1947  0.8636
19009TIP3    H278443   3.318   2.689   5.407 -1.0610  0.5565  1.0943
19010TIP3   OH278444   3.629   5.724  15.225 -0.4812  0.4866  0.1978
19010TIP3    H178445   3.575   5.672  15.285  0.3780 -0.2811  0.3269
19010TIP3    H278446   3.648   5.804  15.273  1.0516 -0.5336  1.4281
19011TIP3   OH278447   0.223   5.166   4.733 -0.2222 -0.4676 -0.3235
19011TIP3    H178448   0.240   5.148   4.826 -2.9575 -0.4506  0.2681
19011TIP3    H278449   0.299   5.131   4.688  0.3015 -2.2867  1.7833
19012TIP3   OH278450   4.157   4.874   5.540 -0.0631 -0.5731 -0.2525
19012TIP3    H178451   4.063   4.872   5.560  0.2113  0.1487  1.2699
19012TIP3    H278452   4.167   4.949   5.482 -0.6429 -1.6978 -1.8880
19013TIP3   OH278453   2.154   0.327   3.391 -0.4960  1.0594  0.0399
19013TIP3    H178454   2.173   0.293   3.479  2.3036  0.0322 -0.8516
19013TIP3    H278455   2.174   0.421   3.397  1.7506  0.6389  0.0693
19014TIP3   OH278456   2.793   1.361  15.458  0.2523  0.1453  0.3158
19014TIP3    H178457   2.717   1.357  15.516 -0.3869  1.2244 -0.4177
19014TIP3    H278458   2.868   1.366  15.517 -0.3491  0.5801  1.0530
19015TIP3   OH278459   2.683   3.896  12.071  0.2643  0.3810 -0.1378
19015TIP3    H178460   2.654   3.870  11.983 -1.8636  0.4495  0.4717
19015TIP3    H278461   2.777   3.883  12.070 -0.0553 -2.8091 -1.4205
19016TIP3   OH278462   0.407   0.756  11.704  0.6017  0.0764 -0.0201
19016TIP3    H178463   0.479   0.792  11.652 -0.5441  0.6142 -1.2898
19016TIP3    H278464   0.431   0.665  11.720  1.7054  0.3399 -0.1342
19017TIP3   OH278465   3.058   3.598  11.884 -0.5464 -0.3604  0.4317
19017TIP3    H178466   3.069   3.675  11.939  0.8127 -1.0113  1.1408
19017TIP3    H278467   3.147   3.571  11.862 -1.0262 -0.9498 -0.9286
19018TIP3   OH278468   6.589   2.245   5.776  0.1594  0.3311  0.1441
19018TIP3    H178469   6.545   2.252   5.860  1.3530  0.0208  0.8247
19018TIP3    H278470   6.536   2.184   5.725  0.7210 -1.4393  1.5794
19019TIP3   OH278471   6.600   2.131   1.867  0.3182  0.3478  0.2854
19019TIP3    H178472   6.523   2.110   1.814  0.4524  1.3832 -0.3566
19019TIP3    H278473   6.617   2.223   1.848  0.7540  0.5721  1.6656
19020TIP3   OH278474   6.781   6.646  13.943  0.3115 -0.0815  0.1933
19020TIP3    H178475   6.860   6.605  13.979  1.4968  0.5216 -1.5727
19020TIP3    H278476   6.790   6.738  13.968  0.4893  0.0972 -0.5078
19021TIP3   OH278477   3.587   2.698   0.038 -0.7154  0.7220 -0.2444
19021TIP3    H178478   3.565   2.664  -0.049  0.1011  0.8491 -0.5069
19021TIP3    H278479   3.582   2.621   0.095  1.4097  0.0521 -0.8908
19022TIP3   OH278480   6.207   2.657  15.580 -0.0915  0.3820 -0.4318
19022TIP3    H178481   6.171   2.586  15.634 -1.5604  0.7235 -0.9200
19022TIP3    H278482   6.140   2.725  15.583  0.3527  0.8952 -1.6968
19023TIP3   OH278483   0.469   3.184   1.535  0.2753 -0.1006  0.2578
19023TIP3    H178484   0.435   3.137   1.611 -1.2951  1.4796  0.5738
19023TIP3    H278485   0.444   3.128   1.461 -0.6436 -0.3025  0.6975
19024TIP3   OH278486   0.445   1.029  14.776 -0.0316 -0.6770  0.5958
19024TIP3    H178487   0.483   1.114  14.794  2.3296 -1.6529  0.5338
19024TIP3    H278488   0.456   0.980  14.858  0.3795 -1.5255  0.0368
19025TIP3   OH278489   6.512   6.187   2.892 -0.0321 -0.4358 -0.0044
19025TIP3    H178490   6.467   6.103   2.891 -2.0531  0.5891 -0.5551
19025TIP3    H278491   6.442   6.252   2.885  1.4894  1.2947  0.0148
19026TIP3   OH278492   1.829   1.301   6.215 -1.0910 -0.1477 -0.2374
19026TIP3    H178493   1.824   1.209   6.189 -1.8709 -0.6619  1.6033
19026TIP3    H278494   1.879   1.300   6.297  1.0682  1.3768 -1.4353
19027TIP3   OH278495   5.576   4.053   6.155 -0.5096 -0.0999 -0.1553
19027TIP3    H178496   5.532   4.034   6.238 -0.9435  1.1415 -0.0795
19027TIP3    H278497   5.653   3.997   6.155 -1.1172 -0.9662  0.5493
19028TIP3   OH278498   1.074   5.694   3.055 -0.2028  0.7384  0.3300
19028TIP3    H178499   1.057   5.764   2.992  0.6816 -0.6237 -1.5082
19028TIP3    H278500   0.997   5.637   3.048  1.2869 -1.1909 -2.1217
19029TIP3   OH278501   3.077   6.596  16.560 -0.6279  0.1398 -0.1001
19029TIP3    H178502   3.019   6.626  16.630 -1.6069  1.5432 -1.4378
19029TIP3    H278503   3.085   6.672  16.502 -0.5114 -1.2221 -1.9395
19030TIP3   OH278504   4.008   4.984   0.888 -0.6155  0.3686  0.2569
19030TIP3    H178505   4.009   5.070   0.847 -1.4698  0.4702  0.4278
19030TIP3    H278506   3.931   4.985   0.944 -0.5287 -0.4452  0.4092
19031TIP3   OH278507   0.235   4.821  14.257 -0.3549  0.3453  0.8588
19031TIP3    H178508   0.226   4.800  14.164  0.0942 -2.4380  1.3644
19031TIP3    H278509   0.255   4.915  14.258 -1.8954  0.8177 -1.7193
19032TIP3   OH278510   3.856   0.884  12.377 -0.1130 -0.5305  0.2597
19032TIP3    H178511   3.905   0.840  12.307  0.2989  0.4376 -0.0807
19032TIP3    H278512   3.785   0.824  12.398 -1.4052 -0.0641 -2.3313
19033TIP3   OH278513   4.662   5.090  10.968 -0.2457 -0.0598  0.8587
19033TIP3    H178514   4.691   5.020  11.026 -0.3950 -0.7561  0.1048
19033TIP3    H278515   4.636   5.161  11.028 -0.6993 -0.8723  1.6556
19034TIP3   OH278516   5.841   2.560  16.727  0.1224  0.3765  0.2474
19034TIP3    H178517   5.756   2.595  16.702 -0.2805  0.3139  1.4652
19034TIP3    H278518   5.860   2.494  16.661 -0.6492  0.5795 -0.1885
19035TIP3   OH278519   0.038   4.090  12.585  0.3307  0.7786 -0.1183
19035TIP3    H178520  -0.003   4.006  12.566  0.9425  0.7643 -1.4551
19035TIP3    H278521  -0.015   4.154  12.538 -0.8834  1.3415  1.8833
19036TIP3   OH278522   5.304   2.047   6.166 -0.4616  0.8592  0.5619
19036TIP3    H178523   5.233   1.990   6.195 -0.8828  1.2273  0.2640
19036TIP3    H278524   5.263   2.107   6.105  0.7831 -1.2548 -2.6029
19037TIP3   OH278525   0.794   2.537   1.936  0.0453 -0.4301  0.1676
19037TIP3    H178526   0.723   2.496   1.886  1.1875  2.4041 -4.3784
19037TIP3    H278527   0.869   2.480   1.923  0.3141  0.2462 -1.4828
19038TIP3   OH278528   6.597   2.934  13.788 -0.0283  0.0132 -0.1239
19038TIP3    H178529   6.641   2.878  13.852 -0.8450 -0.4782  0.0157
19038TIP3    H278530   6.532   2.983  13.839 -1.2663 -0.9851 -0.6743
19039TIP3   OH278531   1.416   5.984  12.780  0.3246 -0.3533  1.0644
19039TIP3    H178532   1.336   5.993  12.728  1.2342  0.8973 -0.1904
19039TIP3    H278533   1.403   5.903  12.830 -1.4088 -0.5583  0.3519
19040TIP3   OH278534   1.853   0.982  13.360 -0.2955  0.0323  0.0695
19040TIP3    H178535   1.765   0.978  13.399  0.4786  0.2415  1.9610
19040TIP3    H278536   1.909   0.937  13.423  1.1881  1.1922 -0.3717
19041TIP3   OH278537   2.354   0.798   1.846 -0.4042  0.5204  0.1776
19041TIP3    H178538   2.351   0.878   1.898 -2.8885  0.6103  0.0246
19041TIP3    H278539   2.319   0.731   1.904  1.0677 -0.3638  0.0923
19042TIP3   OH278540   4.392   4.148  11.288  0.2501 -0.4222 -0.3535
19042TIP3    H178541   4.388   4.086  11.215 -1.2317  0.5273 -1.1293
19042TIP3    H278542   4.301   4.175  11.302  0.7467  0.8952  0.5603
19043TIP3   OH278543   3.742   4.842   3.714  0.1104  0.9236 -0.0778
19043TIP3    H178544   3.689   4.876   3.786  0.1487 -0.0892  0.4420
19043TIP3    H278545   3.680   4.830   3.641 -0.4988 -0.6423  0.6488
19044TIP3   OH278546   0.910   1.756  12.885  0.3596 -0.2182  0.4417
19044TIP3    H178547   0.882   1.713  12.804 -1.0979  2.1945 -0.4536
19044TIP3    H278548   0.978   1.699  12.920 -0.0436 -2.1464 -1.6601
19045TIP3   OH278549   3.795   4.388   5.656 -0.3673  0.2185 -0.4034
19045TIP3    H178550   3.778   4.444   5.580 -0.5497  0.7696  0.0411
19045TIP3    H278551   3.852   4.440   5.712  1.1560 -0.8311 -0.9213
19046TIP3   OH278552   2.443   2.262  14.285  0.0562 -0.8085  0.3411
19046TIP3    H178553   2.446   2.239  14.192 -0.4606 -0.1079  0.1413
19046TIP3    H278554   2.530   2.239  14.318  0.2129 -1.1516 -0.2939
19047TIP3   OH278555   2.404   0.428  16.563 -0.2791 -0.6450  0.5538
19047TIP3    H178556   2.434   0.337  16.573 -1.9954 -1.3772 -0.5238
19047TIP3    H278557   2.324   0.421  16.511  0.4920  1.6381 -1.1024
19048TIP3   OH278558   0.810   1.652   3.205 -0.1979  0.0010  0.4303
19048TIP3    H178559   0.797   1.635   3.112 -1.0849  0.4471  0.4671
19048TIP3    H278560   0.885   1.712   3.208  0.6569 -1.0271  0.0935
19049TIP3   OH278561   5.751   3.362   5.355 -0.4075 -0.2217 -0.5957
19049TIP3    H178562   5.819   3.336   5.293 -0.7885 -0.3027 -0.9850
19049TIP3    H278563   5.792   3.352   5.441  0.0307 -0.3903 -0.8196
19050TIP3   OH278564   0.064   3.918  16.486 -0.3329 -0.2864 -0.2694
19050TIP3    H178565   0.128   3.950  16.549 -0.9234  0.3337  0.0344
19050TIP3    H278566   0.067   3.981  16.414 -0.2109 -0.5592 -0.5030
19051TIP3   OH278567   1.560   0.944  16.391 -0.0969 -0.1108  0.1445
19051TIP3    H178568   1.592   0.976  16.475  1.3244  0.1349 -0.4661
19051TIP3    H278569   1.483   0.997  16.372  0.3990  0.7858  0.6254
19052TIP3   OH278570   1.753   5.404  11.260  0.3532  0.0676 -0.0386
19052TIP3    H178571   1.826   5.441  11.211  0.0949  0.6808  0.0250
19052TIP3    H278572   1.704   5.352  11.197  1.1155 -0.7521  0.0309
19053TIP3   OH278573   6.271   3.424   1.035  0.0645 -0.2439 -0.4090
19053TIP3    H178574   6.194   3.397   1.085 -0.7777  1.4344 -0.7308
19053TIP3    H278575   6.262   3.380   0.950  0.3483 -1.3373  0.1029
19054TIP3   OH278576   0.873   5.294  10.682  0.6881  0.3329  0.5110
19054TIP3    H178577   0.791   5.283  10.634  1.0838  1.3959 -0.4617
19054TIP3    H278578   0.858   5.370  10.738  0.7559  0.0545  0.9123
19055TIP3   OH278579   5.407   0.775  14.579  0.6458 -0.1218  0.0373
19055TIP3    H178580   5.371   0.707  14.636  0.7979  0.1059  0.4072
19055TIP3    H278581   5.346   0.778  14.505  0.1773 -0.0838  0.4202
19056TIP3   OH278582   3.167   2.396  13.237 -0.3743 -0.1806 -0.5422
19056TIP3    H178583   3.089   2.353  13.271  0.3397  0.0936  1.5765
19056TIP3    H278584   3.181   2.470  13.295  0.5277  0.7728 -1.9116
19057TIP3   OH278585   1.738   1.974  16.750 -0.1955  0.2539  0.0922
19057TIP3    H178586   1.643   1.981  16.765 -0.1413  1.5621 -0.0635
19057TIP3    H278587   1.765   2.064  16.730  0.8799 -0.3017 -1.0365
19058TIP3   OH278588   5.791   1.969   2.272 -0.1905 -0.5268 -0.0855
19058TIP3    H178589   5.827   1.890   2.313  1.8331  0.5141  0.2802
19058TIP3    H278590   5.858   1.996   2.209 -1.1224  0.5680 -0.6418
19059TIP3   OH278591   1.341   1.431   3.904  1.0358  0.1073 -0.5559
19059TIP3    H178592   1.319   1.523   3.920 -2.2535 -0.9061  1.8554
19059TIP3    H278593   1.313   1.415   3.814  2.7670  1.6504 -1.4443
19060TIP3   OH278594   3.905   0.099   1.240 -0.2458 -0.5038 -0.1730
19060TIP3    H178595   3.919   0.008   1.264  0.2178 -0.4207 -0.1262
19060TIP3    H278596   3.814   0.102   1.210 -0.0369 -1.1350 -0.9095
19061TIP3   OH278597   6.091   4.764   4.922  0.4645  0.0110  0.0052
19061TIP3    H178598   6.143   4.842   4.898  1.5952 -0.7677 -0.1791
19061TIP3    H278599   6.079   4.718   4.839 -3.1757  1.6462 -0.5354
19062TIP3   OH278600   4.180   3.710   3.783  0.0337  0.2169 -0.4247
19062TIP3    H178601   4.093   3.726   3.748 -0.4262 -1.9717 -0.4233
19062TIP3    H278602   4.240   3.752   3.721 -0.9511  0.4472 -1.2374
19063TIP3   OH278603   5.430   1.589  14.060  0.0874  0.8450  0.4171
19063TIP3    H178604   5.520   1.558  14.058 -0.3342 -0.5121  0.8236
19063TIP3    H278605   5.418   1.624  14.149 -0.9476 -2.9766  1.9889
19064TIP3   OH278606   6.637   5.435   4.271 -0.0731  0.1793  0.0836
19064TIP3    H178607   6.717   5.430   4.324 -0.7682  2.5182  1.4978
19064TIP3    H278608   6.659   5.496   4.201 -0.7465  1.2568  0.7921
19065TIP3   OH278609   3.995   3.214  12.460  0.5332 -0.4998 -0.4395
19065TIP3    H178610   4.052   3.215  12.382 -1.0385  1.5480 -1.6701
19065TIP3    H278611   3.925   3.154  12.437  0.1188  0.0335 -0.5976
19066TIP3   OH278612   3.946   6.267   4.348 -0.4022  0.1530  0.4567
19066TIP3    H178613   4.002   6.317   4.408  0.1102 -0.2713  0.3438
19066TIP3    H278614   3.937   6.182   4.391 -1.6469  0.4760  0.8692
19067TIP3   OH278615   4.060   6.534  16.714  0.2551 -0.5550  0.6260
19067TIP3    H178616   4.083   6.593  16.786  0.8957  0.6003 -0.4863
19067TIP3    H278617   4.137   6.477  16.705 -0.0885 -1.1350  1.2559
19068TIP3   OH278618   6.249   5.839   3.742 -0.2666  0.1959 -0.4760
19068TIP3    H178619   6.275   5.883   3.661  0.7372  1.4252  0.4741
19068TIP3    H278620   6.326   5.845   3.799 -1.3573  0.4673  1.0190
19069TIP3   OH278621   3.153   1.442   5.198  0.2383 -0.2004 -0.6653
19069TIP3    H178622   3.196   1.444   5.113  2.0195 -1.1376  0.1752
19069TIP3    H278623   3.140   1.535   5.221 -0.8004  0.0570 -2.1781
19070TIP3   OH278624   2.046   1.237   4.734 -0.3620  0.9188  0.0913
19070TIP3    H178625   2.032   1.247   4.829 -1.0962 -0.2619  0.1393
19070TIP3    H278626   1.962   1.263   4.695 -0.2743  0.7877 -0.1862
19071TIP3   OH278627   3.774   1.334  13.545 -0.3486  0.5235  0.0279
19071TIP3    H178628   3.781   1.430  13.550  0.1111  0.4983 -0.0818
19071TIP3    H278629   3.681   1.318  13.534 -0.2853  1.0339 -1.4475
19072TIP3   OH278630   4.113   2.821   1.000  0.3101  0.1230  0.4971
19072TIP3    H178631   4.080   2.767   1.071  1.4104 -1.4345 -0.1218
19072TIP3    H278632   4.079   2.909   1.018 -0.7507 -0.5745  2.0381
19073TIP3   OH278633   3.054   5.447   0.610  0.0647 -0.4960  0.4958
19073TIP3    H178634   3.079   5.461   0.519 -0.2187  0.3711  0.5481
19073TIP3    H278635   3.095   5.363   0.633  1.4222  0.0093  0.0354
19074TIP3   OH278636   6.229   5.461  10.254 -0.1558 -0.1630  0.6678
19074TIP3    H178637   6.316   5.486  10.285 -0.8889  0.5611  2.2210
19074TIP3    H278638   6.221   5.505  10.170  1.1320 -0.5953  0.2852
19075TIP3   OH278639   6.645   1.652  13.953 -0.4753  0.3950 -0.2374
19075TIP3    H178640   6.737   1.678  13.958 -0.6034  0.9044 -0.5079
19075TIP3    H278641   6.612   1.661  14.043  0.4948 -2.6707  0.5496
19076TIP3   OH278642   4.902   2.273   0.213  0.1129  0.2650 -0.0994
19076TIP3    H178643   4.838   2.341   0.192  0.9666  1.7679  1.8996
19076TIP3    H278644   4.966   2.316   0.268  1.7804 -1.7135 -0.3655
19077TIP3   OH278645   1.544   6.497  16.240 -1.0643 -0.5079  0.0190
19077TIP3    H178646   1.605   6.442  16.191  0.1364  1.1069 -0.3523
19077TIP3    H278647   1.493   6.542  16.173  1.6768  2.9596 -0.0032
19078TIP3   OH278648   4.344   3.445   0.827  0.4762 -0.7179 -0.9033
19078TIP3    H178649   4.327   3.526   0.875  2.5010 -1.5429  1.4371
19078TIP3    H278650   4.309   3.460   0.740 -1.0485  1.8875  0.0618
19079TIP3   OH278651   0.171   5.456   5.346  0.1423  0.0766  0.4424
19079TIP3    H178652   0.224   5.379   5.325 -0.5994 -0.8034  1.6756
19079TIP3    H278653   0.182   5.468   5.440 -1.5162  0.0924  0.6704
19080TIP3   OH278654   0.012   4.491  12.871 -0.0320 -0.6792 -0.0540
19080TIP3    H178655  -0.052   4.511  12.802  1.3739  0.1526 -1.1641
19080TIP3    H278656   0.095   4.525  12.837  1.2963 -2.9595  0.7156
19081TIP3   OH278657   4.069   2.479  11.185 -0.2591  0.1932  0.3202
19081TIP3    H178658   3.982   2.470  11.147  0.9745 -1.2465 -2.4077
19081TIP3    H278659   4.088   2.394  11.225  0.4537 -0.0254 -0.4514
19082TIP3   OH278660   6.192   4.690  16.699 -0.0374  0.6244 -0.2256
19082TIP3    H178661   6.182   4.742  16.779 -2.7338  0.3277 -0.2967
19082TIP3    H278662   6.253   4.621  16.723  0.1820  1.2726  1.1890
19083TIP3   OH278663   1.634   3.521  12.625  0.8988 -0.1590 -0.2085
19083TIP3    H178664   1.704   3.476  12.579  1.0411  0.1615 -0.3097
19083TIP3    H278665   1.597   3.580  12.560 -0.1800 -1.0964 -0.4769
19084TIP3   OH278666   6.759   6.321  11.557  0.1732 -0.0533  0.3495
19084TIP3    H178667   6.675   6.366  11.549  0.3237  0.1741  0.0223
19084TIP3    H278668   6.789   6.343  11.645  1.0000  1.8280 -0.3536
19085TIP3   OH278669   2.841   5.044  14.610 -0.0522  0.6028 -0.9243
19085TIP3    H178670   2.758   5.064  14.654  1.6449  2.0378  1.9776
19085TIP3    H278671   2.845   4.949  14.609 -0.1661  0.4214  2.5134
19086TIP3   OH278672   5.723   4.909  14.757  0.1261 -0.1689 -0.3451
19086TIP3    H178673   5.789   4.955  14.705  0.0607  0.8484  0.4477
19086TIP3    H278674   5.736   4.817  14.736  2.3727 -0.0796  0.4317
19087TIP3   OH278675   0.455   1.457  12.478  0.3659 -0.0601 -0.3142
19087TIP3    H178676   0.382   1.465  12.415  0.9863 -1.1122 -1.2047
19087TIP3    H278677   0.435   1.378  12.528  0.4985  0.0966 -0.0092
19088TIP3   OH278678   6.258   3.042   4.280 -0.4393  0.2504  0.6316
19088TIP3    H178679   6.322   3.037   4.351  0.7330  1.5223 -0.2753
19088TIP3    H278680   6.224   2.953   4.270  0.3030 -0.1890  1.9312
19089TIP3   OH278681   4.367   5.487   0.193  0.3601  0.0101 -0.6081
19089TIP3    H178682   4.320   5.472   0.275  0.2674  0.3702 -0.5952
19089TIP3    H278683   4.357   5.404   0.145  1.1308 -0.5018  0.0845
19090TIP3   OH278684   4.461   1.522   4.989 -0.3754  0.0770  0.0903
19090TIP3    H178685   4.471   1.429   4.966  1.8512  0.5749 -1.2853
19090TIP3    H278686   4.532   1.566   4.942 -0.4949  2.3173  1.8233
19091TIP3   OH278687   4.671   0.612  15.714  0.1768 -0.6328  0.3187
19091TIP3    H178688   4.756   0.572  15.692 -0.4088 -1.6597 -0.1240
19091TIP3    H278689   4.690   0.705  15.718  1.2945 -0.8226  0.0278
19092TIP3   OH278690   2.596   4.213   4.717 -0.4704  0.4498  0.3256
19092TIP3    H178691   2.567   4.303   4.729 -2.2599 -0.1337  0.7747
19092TIP3    H278692   2.515   4.163   4.707  0.4463 -1.1836  0.6212
19093TIP3   OH278693   4.114   1.529   1.393  1.0618  0.3314 -0.6707
19093TIP3    H178694   4.176   1.591   1.356 -0.4945  2.2185 -0.2734
19093TIP3    H278695   4.041   1.529   1.332  1.1344 -1.3480 -0.7989
19094TIP3   OH278696   1.471   5.538  15.605  0.2080  0.0461  0.2806
19094TIP3    H178697   1.415   5.593  15.550  0.0741  0.3392  0.7085
19094TIP3    H278698   1.444   5.448  15.586  2.2747 -0.1196 -2.5310
19095TIP3   OH278699   2.280   0.885   3.985  0.2062  0.6320  0.0426
19095TIP3    H178700   2.278   0.933   4.068  0.9043  0.2999  0.2587
19095TIP3    H278701   2.362   0.911   3.944  0.9430 -0.8538  0.4754
19096TIP3   OH278702   1.550   0.085   2.353 -0.8210  0.5402 -0.3218
19096TIP3    H178703   1.468   0.071   2.307  0.0494 -0.0054 -1.7748
19096TIP3    H278704   1.525   0.096   2.445 -2.4506 -0.2675 -0.6436
19097TIP3   OH278705   4.910   2.860  15.869 -0.2839  0.0437 -0.1575
19097TIP3    H178706   5.002   2.838  15.857 -0.0601  0.6225  0.4306
19097TIP3    H278707   4.908   2.956  15.871 -1.0309  0.0627 -1.0888
19098TIP3   OH278708   5.105   4.078  15.228 -0.3240 -0.4703 -0.3005
19098TIP3    H178709   5.162   4.037  15.163  2.5629  0.3710  1.4727
19098TIP3    H278710   5.092   4.010  15.295 -0.9743 -0.4971 -0.4548
19099TIP3   OH278711   1.247   4.079  15.835 -0.3672  0.0736  0.4201
19099TIP3    H178712   1.333   4.118  15.818  0.7046 -1.5216  1.7987
19099TIP3    H278713   1.189   4.119  15.771  1.8570 -0.3586 -2.0102
19100TIP3   OH278714   2.370   1.398  15.259  0.1975  0.2682 -0.2084
19100TIP3    H178715   2.305   1.395  15.329 -0.8870  2.1034 -1.0559
19100TIP3    H278716   2.437   1.336  15.285 -0.3513  0.6371  2.2725
19101TIP3   OH278717   2.123   1.532   5.495  0.2306  0.2301 -0.4041
19101TIP3    H178718   2.138   1.494   5.582 -0.6297 -0.2306 -0.4444
19101TIP3    H278719   2.175   1.612   5.494  1.7369 -0.7103 -0.1477
19102TIP3   OH278720   4.397   5.612   4.004  0.4061  0.3623  0.2535
19102TIP3    H178721   4.459   5.540   3.995  1.0553  0.8975  0.3064
19102TIP3    H278722   4.419   5.651   4.089  0.2811  0.8200  0.0776
19103TIP3   OH278723   0.801   1.550   0.691  0.2156  0.1849 -0.0580
19103TIP3    H178724   0.795   1.577   0.782 -0.1743 -0.8585  0.2453
19103TIP3    H278725   0.878   1.494   0.688  0.1269  0.0756 -0.3286
19104TIP3   OH278726   0.567   4.309   2.876  0.3233 -0.3230 -0.2263
19104TIP3    H178727   0.620   4.246   2.925  1.7257 -0.7248 -2.1637
19104TIP3    H278728   0.576   4.283   2.785 -1.8496  0.6662 -0.7918
19105TIP3   OH278729   2.933   0.803  14.808 -0.3744 -0.4411 -0.0361
19105TIP3    H178730   2.983   0.722  14.822 -0.7625 -0.5970  0.4976
19105TIP3    H278731   2.948   0.854  14.888 -1.0789 -0.4993  0.1391
19106TIP3   OH278732   0.091   4.796   4.030 -0.3176  0.2560 -0.1244
19106TIP3    H178733   0.033   4.803   4.105 -1.4657 -2.8325 -0.5904
19106TIP3    H278734   0.062   4.718   3.983  1.1187  1.3616 -3.1519
19107TIP3   OH278735   5.847   3.327  12.419 -0.0097  0.0995 -0.2880
19107TIP3    H178736   5.857   3.391  12.349 -2.0644 -0.7091 -1.3947
19107TIP3    H278737   5.785   3.367  12.480  0.8852  0.3127  0.5120
19108TIP3   OH278738   2.375   4.530   1.885  0.5686  0.1559 -0.0740
19108TIP3    H178739   2.303   4.556   1.828  0.5754 -1.2762 -0.7627
19108TIP3    H278740   2.439   4.601   1.877  1.4404 -0.8416 -3.3807
19109TIP3   OH278741   3.531   1.810  12.956 -0.3158 -0.0359  0.2670
19109TIP3    H178742   3.487   1.732  12.988  2.6746 -2.8922 -1.9439
19109TIP3    H278743   3.573   1.847  13.033 -0.3726 -1.6553  1.1154
19110TIP3   OH278744   0.241   0.237   5.481 -0.6081  0.0042  0.1549
19110TIP3    H178745   0.211   0.321   5.445  0.5863  1.5112  2.4890
19110TIP3    H278746   0.160   0.193   5.509 -1.0803  1.5274  1.2686
19111TIP3   OH278747   4.653   2.622  15.106 -0.9401  0.5961 -0.3990
19111TIP3    H178748   4.681   2.714  15.101  0.8355  0.1306  0.3098
19111TIP3    H278749   4.660   2.590  15.016  2.5507  0.0953 -0.1059
19112TIP3   OH278750   0.140   5.672  11.893 -0.0527 -0.0817 -0.1410
19112TIP3    H178751   0.117   5.744  11.950 -0.3090 -0.4966  0.2844
19112TIP3    H278752   0.236   5.673  11.890 -0.0522  0.1843 -0.0279
19113TIP3   OH278753   0.538   0.091   3.886  0.4804 -0.0649  0.2325
19113TIP3    H178754   0.505   0.124   3.802 -0.8871  0.2297  0.8455
19113TIP3    H278755   0.564   0.169   3.934  1.5508 -0.2569 -0.0160
19114TIP3   OH278756   0.565   6.106   3.602  0.0630  0.0643 -0.3754
19114TIP3    H178757   0.563   6.034   3.539 -1.4763 -1.4801  1.3201
19114TIP3    H278758   0.487   6.093   3.656  0.5168  2.1917  0.9157
19115TIP3   OH278759   6.274   3.122  12.975  0.0691  0.0610  0.1487
19115TIP3    H178760   6.227   3.186  13.027  1.4120  1.3819 -0.2085
19115TIP3    H278761   6.215   3.102  12.902  0.1763  1.9863 -0.5164
19116TIP3   OH278762   5.966   3.966  12.956 -0.2253 -0.7244 -0.2694
19116TIP3    H178763   5.909   3.934  12.886 -0.9344 -0.5756  0.2358
19116TIP3    H278764   5.952   4.060  12.957 -0.1953 -0.7228  0.0551
19117TIP3   OH278765   1.319   4.277  10.899  0.1861 -0.0857  0.8611
19117TIP3    H178766   1.331   4.182  10.900  0.5343 -0.1121 -1.4079
19117TIP3    H278767   1.278   4.296  10.815  0.4878  1.8311  1.0883
19118TIP3   OH278768   5.191   1.064   0.047  0.0586 -0.3088 -0.5215
19118TIP3    H178769   5.217   1.155   0.057 -0.5369  0.0347 -1.8939
19118TIP3    H278770   5.204   1.045  -0.046 -3.8155 -0.2984 -1.2322
19119TIP3   OH278771   6.300   0.923   2.306 -0.2491  0.2561  0.3644
19119TIP3    H178772   6.381   0.874   2.312 -0.7813 -0.6154  0.5468
19119TIP3    H278773   6.279   0.924   2.212 -1.6318 -2.2398  0.5599
19120TIP3   OH278774   3.164   6.588   4.430  0.3007  0.4193 -0.3015
19120TIP3    H178775   3.178   6.573   4.524 -0.3408 -2.3971 -0.5571
19120TIP3    H278776   3.249   6.571   4.390  0.5121  1.3724 -0.2719
19121TIP3   OH278777   3.755   5.376  16.265  0.3236  0.2724  0.0262
19121TIP3    H178778   3.693   5.445  16.289  0.3493 -0.3814  2.2270
19121TIP3    H278779   3.840   5.419  16.263  0.0448  0.7854 -1.0754
19122TIP3   OH278780   0.530   3.400   6.015  0.0309 -0.1247 -0.2526
19122TIP3    H178781   0.484   3.473   6.056 -0.5042 -0.3714 -0.4069
19122TIP3    H278782   0.497   3.322   6.060  0.0123 -0.3361 -0.6263
19123TIP3   OH278783   6.554   1.699  14.910 -0.3799 -0.4589 -0.3955
19123TIP3    H178784   6.499   1.774  14.888 -1.0821 -0.7784  0.2301
19123TIP3    H278785   6.602   1.727  14.987  1.0069  0.1337 -1.4307
19124TIP3   OH278786   5.493   3.129  14.093  0.0676 -0.0749  0.3605
19124TIP3    H178787   5.461   3.039  14.096  1.6678 -0.6781  0.3165
19124TIP3    H278788   5.471   3.165  14.179 -1.4557 -0.1661  0.0343
19125TIP3   OH278789   0.855   5.056  16.523  0.1666  0.7719  0.3830
19125TIP3    H178790   0.866   5.023  16.612 -1.3626 -0.1299  0.2721
19125TIP3    H278791   0.896   4.989  16.467  2.5260  2.0707  0.4222
19126TIP3   OH278792   2.503   0.433   6.550 -0.6578 -0.2583  0.3004
19126TIP3    H178793   2.595   0.457   6.557 -1.1464  1.9509 -0.2518
19126TIP3    H278794   2.467   0.493   6.485 -1.9717 -2.7374 -1.4471
19127TIP3   OH278795   5.693   4.215   0.763 -0.1024  0.4455 -0.1420
19127TIP3    H178796   5.738   4.143   0.807 -0.2457  1.0092  0.9732
19127TIP3    H278797   5.706   4.290   0.821 -2.6444  0.5931  0.3595
19128TIP3   OH278798   4.116   5.601  13.048 -0.8174 -0.4465  0.1550
19128TIP3    H178799   4.137   5.600  12.954 -0.9174  0.1468  0.1281
19128TIP3    H278800   4.194   5.564  13.089 -0.1785  0.6437 -0.0481
19129TIP3   OH278801   1.388   5.667  14.048 -0.4176  0.2090  0.3411
19129TIP3    H178802   1.355   5.736  13.989 -1.3448  1.2579  2.0064
19129TIP3    H278803   1.477   5.650  14.017 -2.1167 -2.3643 -4.0343
19130TIP3   OH278804   0.358   4.010  12.831  0.0973  0.0771 -0.1317
19130TIP3    H178805   0.352   3.965  12.915 -0.3257 -2.3047 -1.3491
19130TIP3    H278806   0.267   4.030  12.809  0.0959 -0.4262 -0.5849
19131TIP3   OH278807   0.436   2.743   4.483 -0.6452 -0.2747  0.7916
19131TIP3    H178808   0.457   2.759   4.575 -0.6455 -0.2424  0.7861
19131TIP3    H278809   0.371   2.672   4.486 -2.3189  1.1818  0.9434
19132TIP3   OH278810   5.641   1.295   5.193 -0.0490 -0.1640  0.7529
19132TIP3    H178811   5.699   1.259   5.127 -0.4204 -0.6584  0.6896
19132TIP3    H278812   5.581   1.352   5.145 -1.0923 -1.4611  0.4716
19133TIP3   OH278813   5.537   4.039   5.596 -0.1335  0.2771  0.0530
19133TIP3    H178814   5.547   3.956   5.550 -1.6606  0.3048 -0.3790
19133TIP3    H278815   5.522   4.015   5.687 -0.9331  0.0456 -0.1315
19134TIP3   OH278816   1.348   0.230   6.243  0.1998 -0.3506 -0.2375
19134TIP3    H178817   1.344   0.148   6.293 -1.1667 -0.7210 -0.9069
19134TIP3    H278818   1.432   0.225   6.196 -0.2582 -1.8058 -0.9588
19135TIP3   OH278819   4.698   5.116  12.510  0.0557  0.4519  0.1433
19135TIP3    H178820   4.730   5.180  12.574  1.6710  0.9583 -1.0967
19135TIP3    H278821   4.726   5.031  12.546  1.9264  0.8039 -0.3546
19136TIP3   OH278822   6.666   2.432   5.407 -0.4974 -0.7690 -0.5048
19136TIP3    H178823   6.693   2.523   5.423  0.3236 -0.9405 -0.8410
19136TIP3    H278824   6.726   2.380   5.462 -0.8221 -1.1178 -0.4816
19137TIP3   OH278825   5.580   4.615  11.022 -0.2094 -0.7255  0.1741
19137TIP3    H178826   5.533   4.558  11.084 -1.3882 -0.7701 -0.7224
19137TIP3    H278827   5.591   4.561  10.944 -2.5604  0.6320 -1.1945
19138TIP3   OH278828   5.514   0.550   1.570  0.0264  0.6505  0.3756
19138TIP3    H178829   5.432   0.568   1.617 -0.9297 -0.2417 -0.8535
19138TIP3    H278830   5.536   0.633   1.529 -0.7695  0.6892  0.0035
19139TIP3   OH278831   4.916   2.243   4.760 -0.3859  0.0988 -0.0550
19139TIP3    H178832   5.009   2.265   4.761 -0.2838  0.1380 -2.6715
19139TIP3    H278833   4.908   2.168   4.818  0.9368  1.1443  1.5696
19140TIP3   OH278834   1.621   3.240  11.755  0.9480  0.1965 -0.0988
19140TIP3    H178835   1.560   3.263  11.685 -0.4521 -0.2945  0.9155
19140TIP3    H278836   1.680   3.315  11.761  0.0457  0.9795 -0.6687
19141TIP3   OH278837   4.537   4.818  10.137 -0.3527  0.0964 -0.0012
19141TIP3    H178838   4.615   4.827  10.192 -0.2069 -1.0784  0.0009
19141TIP3    H278839   4.464   4.833  10.198 -0.1678 -0.2588  0.3115
19142TIP3   OH278840   0.527   6.109  12.473  0.1218 -0.6149 -0.1370
19142TIP3    H178841   0.585   6.035  12.456  1.0378 -0.1966  1.0974
19142TIP3    H278842   0.537   6.165  12.396 -0.2887 -1.5581 -0.9022
19143TIP3   OH278843   2.667   5.128   0.569 -0.8378 -0.3529 -0.0928
19143TIP3    H178844   2.577   5.095   0.569 -1.6164  1.5138  1.5711
19143TIP3    H278845   2.658   5.219   0.598  1.6545 -0.2920  0.6820
19144TIP3   OH278846   0.744   5.624  15.729 -0.0929  0.2499 -0.4350
19144TIP3    H178847   0.792   5.542  15.736 -0.6701 -0.0134  0.6403
19144TIP3    H278848   0.812   5.690  15.717  0.4068 -0.3296 -0.8365
19145TIP3   OH278849   3.028   2.496   5.607  0.0639  0.2783  0.1589
19145TIP3    H178850   2.983   2.424   5.651  0.6897 -0.4925 -0.4209
19145TIP3    H278851   2.974   2.516   5.531 -0.4605  0.8905  0.6800
19146TIP3   OH278852   0.400   5.197   6.003  0.1841 -0.1234 -0.3650
19146TIP3    H178853   0.371   5.194   6.094  1.0179 -0.3112 -0.1035
19146TIP3    H278854   0.347   5.130   5.959  0.5932 -0.8360  0.2169
19147TIP3   OH278855   5.125   6.302   0.507  0.2121 -0.1567  0.2720
19147TIP3    H178856   5.139   6.217   0.465 -1.2356  0.0313 -0.6363
19147TIP3    H278857   5.064   6.347   0.450  1.0495  1.5640  0.6799
19148TIP3   OH278858   0.592   0.658  15.071 -0.1811  0.3593 -0.9005
19148TIP3    H178859   0.640   0.704  15.140  1.9266 -0.5759 -1.6549
19148TIP3    H278860   0.623   0.698  14.990  0.0356 -0.8894 -1.4508
19149TIP3   OH278861   1.549   0.951   5.255  0.0683  0.4786 -0.1733
19149TIP3    H178862   1.640   0.928   5.237 -0.4316 -0.9194 -1.0757
19149TIP3    H278863   1.534   0.923   5.345  0.0806 -0.8856 -0.5655
19150TIP3   OH278864   0.285   5.262   1.370  0.0011 -0.0589 -0.6835
19150TIP3    H178865   0.352   5.193   1.372  0.2535  0.0721 -2.6064
19150TIP3    H278866   0.217   5.228   1.311 -1.3848  0.0588  0.7721
19151TIP3   OH278867   1.344   4.897  14.615 -0.0835 -0.8136 -0.4566
19151TIP3    H178868   1.408   4.935  14.555  0.8116  0.1887  1.0509
19151TIP3    H278869   1.350   4.803  14.600  1.1136 -0.6822 -0.9728
19152TIP3   OH278870   0.201   5.092  13.407  0.0300 -0.3271  0.3528
19152TIP3    H178871   0.161   5.122  13.325 -1.9062  0.0464  1.3784
19152TIP3    H278872   0.159   5.009  13.426  1.5024 -1.1319  0.2838
19153TIP3   OH278873   1.595   1.048   2.441 -0.4544 -0.3666  0.0579
19153TIP3    H178874   1.528   1.078   2.502 -0.0824 -1.2863  0.9348
19153TIP3    H278875   1.678   1.076   2.480 -0.1996 -1.1801  0.1157
19154TIP3   OH278876   4.767   5.652   5.150  0.4080 -0.2173  0.0126
19154TIP3    H178877   4.687   5.693   5.181  0.7827 -0.3994  1.2872
19154TIP3    H278878   4.770   5.568   5.195  1.3892 -0.1417  0.1207
19155TIP3   OH278879   2.568   2.510   0.197  0.9527  0.7228  0.5125
19155TIP3    H178880   2.571   2.418   0.221 -0.7985  0.7705  1.0212
19155TIP3    H278881   2.636   2.519   0.130  0.2575 -1.2468 -0.5448
19156TIP3   OH278882   1.057   0.186   5.519 -0.2452 -0.2165  0.2271
19156TIP3    H178883   1.120   0.198   5.591  1.0465 -0.1392 -0.8728
19156TIP3    H278884   1.046   0.274   5.483 -1.6288 -0.0902  0.8992
19157TIP3   OH278885   0.338   6.763  11.099  1.0494  0.0430  0.0720
19157TIP3    H178886   0.329   6.858  11.106 -0.8448 -0.1938  2.4450
19157TIP3    H278887   0.265   6.736  11.043  1.4811 -0.0536 -0.4549
19158TIP3   OH278888   2.036   3.954   0.825  0.0779 -0.2589  0.2867
19158TIP3    H178889   2.075   4.031   0.865  1.3206 -0.4967 -0.4201
19158TIP3    H278890   2.041   3.887   0.893 -1.2295  0.3131  0.9879
19159TIP3   OH278891   1.291   3.031   2.181  0.0161  0.4893 -0.3134
19159TIP3    H178892   1.286   2.971   2.255 -0.7204  0.3831 -0.4372
19159TIP3    H278893   1.200   3.041   2.152  0.0358  2.1876  0.1215
19160TIP3   OH278894   3.262   5.507  11.201 -0.4681 -0.3142 -0.5424
19160TIP3    H178895   3.277   5.425  11.248  2.4824  0.1094 -0.5220
19160TIP3    H278896   3.242   5.481  11.111  0.2631 -1.0906 -0.4878
19161TIP3   OH278897   1.051   5.631  14.855  0.3498 -0.1827  0.4455
19161TIP3    H178898   1.070   5.597  14.767  1.7130  0.3632  0.5047
19161TIP3    H278899   1.094   5.569  14.914  0.7094  0.2696  0.6596
19162TIP3   OH278900   4.335   2.633   4.843  0.4735  0.3681 -0.1547
19162TIP3    H178901   4.244   2.661   4.853  0.5247  0.8304 -0.9036
19162TIP3    H278902   4.368   2.683   4.768  1.6746  1.0645  0.7830
19163TIP3   OH278903   0.349   4.257  12.102  0.2073  0.0515 -0.3663
19163TIP3    H178904   0.391   4.273  12.017  1.3288  0.9723  0.3310
19163TIP3    H278905   0.345   4.343  12.143 -1.4062 -0.1961  0.0565
19164TIP3   OH278906   0.384   0.324   2.460  0.5077  0.1728  0.6014
19164TIP3    H178907   0.423   0.348   2.544  0.3948 -0.0972  0.7324
19164TIP3    H278908   0.370   0.407   2.415 -0.9105  0.4547  1.4979
19165TIP3   OH278909   0.877   6.569  14.618 -0.5944 -0.0402  0.0671
19165TIP3    H178910   0.905   6.527  14.700 -1.4162  3.0740  2.1499
19165TIP3    H278911   0.786   6.541  14.607 -1.1620  1.1061  1.4682
19166TIP3   OH278912   1.311   3.646  14.786 -0.0348 -0.2440 -0.6704
19166TIP3    H178913   1.323   3.740  14.775 -0.8240  0.0348  0.5928
19166TIP3    H278914   1.396   3.614  14.815 -0.8836  0.9979  3.9856
19167TIP3   OH278915   3.773   6.028  17.115 -0.3056  0.2153  0.0839
19167TIP3    H178916   3.857   6.075  17.116  0.5720 -1.2655  0.4469
19167TIP3    H278917   3.741   6.038  17.025  0.7184  0.0832 -0.3187
19168TIP3   OH278918   0.001   2.012  15.673  0.3882  0.3525  0.1606
19168TIP3    H178919   0.023   2.081  15.736  1.3317 -0.2594  0.5296
19168TIP3    H278920   0.015   1.930  15.722 -1.8408 -0.1182  0.1064
19169TIP3   OH278921   5.833   2.873  13.638 -0.3902 -0.0749 -0.0194
19169TIP3    H178922   5.827   2.864  13.543  2.2651  1.9588 -0.5205
19169TIP3    H278923   5.762   2.932  13.661 -1.5638 -1.2261 -0.5769
19170TIP3   OH278924   5.486   3.096  15.504 -0.5622 -0.3982 -0.3225
19170TIP3    H178925   5.570   3.094  15.457 -0.1149 -0.3292  0.4524
19170TIP3    H278926   5.503   3.049  15.586 -1.2053 -0.1535 -0.0401
19171TIP3   OH278927   1.776   2.124   0.078  0.0410  0.1117  0.5295
19171TIP3    H178928   1.684   2.097   0.074 -0.0550  0.5419 -0.4372
19171TIP3    H278929   1.809   2.107  -0.010  0.8783  0.0235  0.8510
19172TIP3   OH278930   5.485   1.285  10.412  0.3790 -0.8440 -0.8958
19172TIP3    H178931   5.452   1.306  10.499  1.4074 -0.2188 -0.6346
19172TIP3    H278932   5.563   1.340  10.402  0.2274 -0.8390 -2.2436
19173TIP3   OH278933   4.497   4.617   4.887 -0.5917 -0.3065 -0.3065
19173TIP3    H178934   4.497   4.555   4.814  1.3430  0.8341 -1.3776
19173TIP3    H278935   4.448   4.693   4.854  0.1570  0.1519 -0.3816
19174TIP3   OH278936   0.116   4.597   3.727  0.6750 -0.2624 -0.3120
19174TIP3    H178937   0.092   4.528   3.666  0.4920 -0.2460 -0.2585
19174TIP3    H278938   0.034   4.642   3.747  0.8320  0.1257 -0.5358
19175TIP3   OH278939   2.086   0.372   3.708  0.1777  0.1751  0.2914
19175TIP3    H178940   2.099   0.344   3.799  0.7618  0.9231  0.4448
19175TIP3    H278941   2.041   0.456   3.715  1.2414  0.7970 -0.0639
19176TIP3   OH278942   4.190   5.625  14.986 -0.2982 -0.5713  0.4863
19176TIP3    H178943   4.194   5.677  14.905 -1.1475 -0.0971  0.7296
19176TIP3    H278944   4.206   5.535  14.958 -0.0909 -0.3445 -0.1401
19177TIP3   OH278945   3.534   2.713  14.633 -0.1698 -0.3715 -0.2923
19177TIP3    H178946   3.553   2.773  14.560  1.5773 -0.2832  0.1895
19177TIP3    H278947   3.618   2.671  14.652 -1.0033 -1.7611  0.4756
19178TIP3   OH278948   2.687   0.206  14.133 -0.2565  0.2475  0.4096
19178TIP3    H178949   2.768   0.254  14.148  0.3519 -0.9564  1.0528
19178TIP3    H278950   2.626   0.273  14.101  0.8560  1.2424  0.2951
19179TIP3   OH278951   4.023   5.229  15.152  0.1232  0.1283 -0.1217
19179TIP3    H178952   4.089   5.225  15.221 -0.5248  1.1433  0.5759
19179TIP3    H278953   3.942   5.201  15.194 -0.2059  0.4126 -0.5640
19180TIP3   OH278954   3.552   4.985  13.208 -0.0004  0.2630 -0.1220
19180TIP3    H178955   3.631   4.978  13.263  0.9787 -1.7722 -1.6312
19180TIP3    H278956   3.497   4.912  13.237 -0.7750  0.8963  0.0369
19181TIP3   OH278957   5.258   2.381  15.988 -1.0365  0.2255  0.4691
19181TIP3    H178958   5.309   2.329  16.050  1.2321  0.8321 -0.7927
19181TIP3    H278959   5.279   2.471  16.008  0.8154  0.4306 -1.9242
19182TIP3   OH278960   2.823   2.835  15.331  0.0042 -0.3231  0.1908
19182TIP3    H178961   2.883   2.887  15.385 -1.7445  0.1482  1.7976
19182TIP3    H278962   2.823   2.879  15.246  0.5372  0.7484  0.7204
19183TIP3   OH278963   0.560   6.780  10.863  0.0345 -0.3501 -0.0850
19183TIP3    H178964   0.558   6.824  10.948 -0.3138 -0.3355 -0.1011
19183TIP3    H278965   0.651   6.790  10.833  0.8862 -2.5675  1.4486
19184TIP3   OH278966   0.680   1.730   5.002  0.4608 -0.5535 -0.3370
19184TIP3    H178967   0.750   1.783   5.041  2.3192 -2.8468 -0.3502
19184TIP3    H278968   0.633   1.695   5.078  0.5864 -0.6077 -0.2835
19185TIP3   OH278969   4.282   2.353  17.002  0.1675 -0.1574  0.1203
19185TIP3    H178970   4.243   2.434  17.036 -1.2858 -1.1936  1.0300
19185TIP3    H278971   4.212   2.314  16.949  1.4416  0.0101 -1.7795
19186TIP3   OH278972   0.610   4.658  11.150 -0.3390 -0.3620 -0.2378
19186TIP3    H178973   0.637   4.613  11.070 -1.4685 -2.2973  0.4022
19186TIP3    H278974   0.675   4.633  11.215 -2.6047 -3.9105  0.9502
19187TIP3   OH278975   2.279   2.048  17.143 -0.5984  0.1926  0.6469
19187TIP3    H178976   2.339   2.012  17.208  0.5857  0.5812 -0.1950
19187TIP3    H278977   2.270   2.140  17.167  0.2902  0.4698 -0.0517
19188TIP3   OH278978   4.997   6.049   1.701 -0.4312 -0.0444 -0.2460
19188TIP3    H178979   5.045   6.087   1.627  0.1546  0.9991  0.6504
19188TIP3    H278980   4.911   6.090   1.697 -0.5270 -0.2699 -0.5625
19189TIP3   OH278981   6.510   0.104   1.714 -0.2183 -0.5869  0.3270
19189TIP3    H178982   6.539   0.016   1.738 -0.8414 -0.2644  2.5698
19189TIP3    H278983   6.444   0.126   1.780 -0.3972  1.3946 -0.4341
19190TIP3   OH278984   0.375   0.733   2.824  0.2254 -0.0452  0.3532
19190TIP3    H178985   0.332   0.648   2.814  0.1187 -0.1565  1.5194
19190TIP3    H278986   0.351   0.782   2.746 -0.3610 -0.8205  0.0364
19191TIP3   OH278987   2.617   4.305  16.386  0.7275  0.1337  0.0772
19191TIP3    H178988   2.626   4.393  16.422 -0.0892  0.5767 -0.7752
19191TIP3    H278989   2.539   4.270  16.428 -0.9493  1.1021 -2.0833
19192TIP3   OH278990   4.860   3.892   1.206  0.3709 -1.0280 -0.4575
19192TIP3    H178991   4.918   3.853   1.272 -0.6390  0.3279  1.3284
19192TIP3    H278992   4.879   3.844   1.126  1.6776 -2.7468  0.8039
19193TIP3   OH278993   5.209   6.440  12.770 -0.4085  0.4017 -0.3711
19193TIP3    H178994   5.152   6.411  12.841 -0.4254  0.7012 -0.2604
19193TIP3    H278995   5.207   6.369  12.707  1.0035 -0.6488  0.7070
19194TIP3   OH278996   0.257   5.496   4.196  0.8753 -0.4919 -0.2440
19194TIP3    H178997   0.168   5.487   4.163  0.9524  1.7397 -1.1953
19194TIP3    H278998   0.252   5.467   4.287 -1.3153  1.4165  0.3379
19195TIP3   OH278999   4.311   0.385   1.185 -0.3466  0.5939 -0.4561
19195TIP3    H179000   4.222   0.364   1.159  0.2199 -0.0234 -2.0526
19195TIP3    H279001   4.336   0.315   1.245 -1.3497  1.4987  1.0842
19196TIP3   OH279002   1.499   4.210   4.664  0.1963 -0.2414 -0.0262
19196TIP3    H179003   1.530   4.295   4.633  2.1062 -0.4213  1.2266
19196TIP3    H279004   1.516   4.151   4.591  1.6399 -0.0726  0.1424
19197TIP3   OH279005   3.318   6.449   0.006 -0.3091 -0.2787 -0.3469
19197TIP3    H179006   3.272   6.435   0.089 -2.5969 -1.1472 -1.6717
19197TIP3    H279007   3.387   6.383   0.006 -0.0019  0.0149  1.0366
19198TIP3   OH279008   5.937   3.026   0.236 -0.1885 -0.5023 -0.5982
19198TIP3    H179009   5.949   3.046   0.143  0.3853  1.2589 -0.1947
19198TIP3    H279010   6.020   2.987   0.263 -0.4004 -1.1305 -0.8475
19199TIP3   OH279011   3.984   6.760   4.641 -0.2441  0.5043 -0.2431
19199TIP3    H179012   3.974   6.728   4.731  0.4794 -2.1725 -1.0173
19199TIP3    H279013   3.919   6.711   4.591 -1.1305  2.4836 -1.1370
19200TIP3   OH279014   4.458   1.469   3.731 -0.0471 -0.0571 -0.2879
19200TIP3    H179015   4.468   1.417   3.651  0.5165 -1.3350  0.5900
19200TIP3    H279016   4.514   1.426   3.795 -0.4040  1.0152  0.7857
19201TIP3   OH279017   3.194   0.909   4.201 -0.5835 -0.3764  0.2586
19201TIP3    H179018   3.123   0.847   4.186  0.2382 -1.3033  0.1039
19201TIP3    H279019   3.268   0.872   4.153  0.0447  0.5067  0.5279
19202TIP3   OH279020   0.206   2.319   1.482  0.6028 -0.1839 -0.1341
19202TIP3    H179021   0.127   2.313   1.536  0.4611  0.4638 -0.2593
19202TIP3    H279022   0.244   2.231   1.486 -0.6066 -0.7724 -0.7988
19203TIP3   OH279023   4.075   5.673  10.988 -0.2802 -0.2341  0.3710
19203TIP3    H179024   4.080   5.589  11.033  2.2293 -0.6201 -0.4427
19203TIP3    H279025   4.064   5.650  10.896 -0.0622  0.3213  0.2003
19204TIP3   OH279026   1.779   2.390   1.636 -0.0258  0.2425 -0.0431
19204TIP3    H179027   1.810   2.421   1.551 -1.3387 -2.0287 -1.4663
19204TIP3    H279028   1.694   2.350   1.617 -0.1016 -0.8484  2.2491
19205TIP3   OH279029   0.645   6.437   1.906 -0.4977  0.0922 -0.3070
19205TIP3    H179030   0.677   6.352   1.874  0.8243  0.7793 -0.8698
19205TIP3    H279031   0.608   6.479   1.829 -1.8056 -0.2465  0.1204
19206TIP3   OH279032   4.771   5.634  15.751  0.3386  0.0836 -0.2130
19206TIP3    H179033   4.796   5.726  15.763 -1.2449  0.4546  0.4942
19206TIP3    H279034   4.675   5.635  15.754  0.2646 -1.4665 -1.2279
19207TIP3   OH279035   1.973   1.742  11.380 -0.3778  0.3429  0.3050
19207TIP3    H179036   1.955   1.655  11.417  1.3591  0.1677  0.8213
19207TIP3    H279037   1.888   1.772  11.348 -1.1349 -1.2853  0.6667
19208TIP3   OH279038   4.368   6.287  14.056 -0.6125 -0.2940 -0.2375
19208TIP3    H179039   4.459   6.265  14.077 -0.2459 -0.3015 -1.7591
19208TIP3    H279040   4.333   6.209  14.012 -1.3337 -0.2516  0.2366
19209TIP3   OH279041   4.343   4.382   4.659  0.4201 -0.3178 -0.7313
19209TIP3    H179042   4.283   4.308   4.651  0.0760 -0.1555  0.1936
19209TIP3    H279043   4.302   4.452   4.609  0.4321 -0.5650 -1.0864
19210TIP3   OH279044   0.071   1.523  14.725  0.4347 -0.0055 -0.0155
19210TIP3    H179045   0.035   1.446  14.679 -0.2764 -0.2353  0.8893
19210TIP3    H279046  -0.002   1.584  14.730  1.2971  1.2253 -1.7071
19211TIP3   OH279047   6.051   3.352  11.656 -0.5359 -0.3254  0.1172
19211TIP3    H179048   6.025   3.423  11.597 -0.5655 -1.0343 -0.7536
19211TIP3    H279049   5.973   3.297  11.664 -1.0198  0.5722  2.0949
19212TIP3   OH279050   4.919   4.759  15.373 -0.1739 -0.0753 -0.4595
19212TIP3    H179051   4.901   4.753  15.466  0.0713  0.2522 -0.3879
19212TIP3    H279052   4.928   4.852  15.356 -1.9903  0.0048 -1.1668
19213TIP3   OH279053   0.708   0.382  16.737 -0.1361 -0.8109  0.2906
19213TIP3    H179054   0.655   0.455  16.706  0.0569  0.1333  2.0520
19213TIP3    H279055   0.651   0.305  16.727 -0.3492 -0.4588 -1.5634
19214TIP3   OH279056   0.192   2.455   5.819  0.6238  0.3498  0.6080
19214TIP3    H179057   0.271   2.413   5.852 -0.4833 -1.0604  1.5918
19214TIP3    H279058   0.146   2.487   5.897 -0.6749 -0.5350  0.2474
19215TIP3   OH279059   0.323   5.142   6.257  0.2021  0.0800 -0.2462
19215TIP3    H179060   0.338   5.080   6.329  1.0379 -0.1710 -0.6287
19215TIP3    H279061   0.253   5.101   6.205  2.3544 -1.8040 -1.8671
19216TIP3   OH279062   2.625   1.318   1.433  0.2910 -0.0290  0.2015
19216TIP3    H179063   2.556   1.256   1.406  0.9828 -1.3407  1.3108
19216TIP3    H279064   2.594   1.352   1.517  0.2592  0.5877 -0.0590
19217TIP3   OH279065   0.147   4.958   5.199  0.4373 -0.1115 -0.4330
19217TIP3    H179066   0.220   5.017   5.218  0.4045 -0.8711  2.4756
19217TIP3    H279067   0.106   4.943   5.284 -1.4494 -1.8924 -1.5785
19218TIP3   OH279068   0.722   1.352  17.147 -0.7229 -0.1317  0.4551
19218TIP3    H179069   0.683   1.344  17.060 -0.2528  0.6150  0.1594
19218TIP3    H279070   0.804   1.399  17.132  2.4462 -4.9664  0.4676
19219TIP3   OH279071   4.691   2.443  11.843 -0.9169 -0.3566  0.0670
19219TIP3    H179072   4.775   2.421  11.802  0.5164  0.8056  2.2075
19219TIP3    H279073   4.677   2.535  11.821  0.7051  0.8108  3.2400
19220TIP3   OH279074   2.699   3.859  16.011  0.0298  0.6907 -0.2380
19220TIP3    H179075   2.683   3.787  16.071 -1.6859  1.0375 -0.2269
19220TIP3    H279076   2.759   3.917  16.059  0.6874 -0.2587  0.1081
19221TIP3   OH279077   6.441   3.432   5.040 -0.0681  0.3698  0.0149
19221TIP3    H179078   6.373   3.478   4.992 -0.8295  1.1040  1.7139
19221TIP3    H279079   6.500   3.398   4.972 -0.1717  2.7421 -1.3779
19222TIP3   OH279080   1.887   6.567  13.596  0.1638 -0.0265  0.4972
19222TIP3    H179081   1.873   6.522  13.679 -1.8294  1.3856  0.9940
19222TIP3    H279082   1.935   6.647  13.620  2.8829 -1.3073 -0.2601
19223TIP3   OH279083   1.774   1.212  13.572 -0.7890  0.9096  0.6112
19223TIP3    H179084   1.829   1.238  13.498 -1.6330  0.7057 -0.1081
19223TIP3    H279085   1.686   1.202  13.534 -0.8068 -1.5187  1.1179
19224TIP3   OH279086   4.699   1.384   1.093 -0.2229  0.4083  0.2112
19224TIP3    H179087   4.702   1.290   1.112 -2.9091 -0.1116 -1.2816
19224TIP3    H279088   4.780   1.402   1.047  1.1082 -0.7657  1.9747
19225TIP3   OH279089   0.337   4.501  12.213  0.4403 -0.1748 -0.4273
19225TIP3    H179090   0.399   4.559  12.170 -0.0469 -0.3906 -1.4548
19225TIP3    H279091   0.340   4.526  12.305  1.4510  0.3492 -0.5917
19226TIP3   OH279092   0.336   5.146  10.852 -0.0348  0.8233  0.2922
19226TIP3    H179093   0.307   5.226  10.808  0.3902  1.8162  1.7297
19226TIP3    H279094   0.394   5.104  10.789  1.3764  2.7139  0.2360
19227TIP3   OH279095   3.937   6.305  14.072 -0.5120  0.1988  0.0851
19227TIP3    H179096   3.862   6.356  14.103 -1.6458 -2.5355  2.3432
19227TIP3    H279097   4.014   6.353  14.102 -1.5121  0.8001  1.8476
19228TIP3   OH279098   6.280   3.251   1.426 -0.3938  0.0024 -0.1451
19228TIP3    H179099   6.193   3.284   1.404  0.3595  1.4115 -1.1595
19228TIP3    H279100   6.308   3.206   1.346 -0.6138 -1.4588  0.5637
19229TIP3   OH279101   6.669   6.771   2.587  0.1887 -0.0298 -0.2591
19229TIP3    H179102   6.661   6.844   2.648  0.0832 -0.8429  0.7278
19229TIP3    H279103   6.686   6.812   2.502 -2.3911  1.2822 -0.2415
19230TIP3   OH279104   2.482   5.336  16.967  0.1270  0.2972  0.2624
19230TIP3    H179105   2.576   5.349  16.953  0.7264  0.4411  3.6100
19230TIP3    H279106   2.455   5.415  17.015 -1.5512 -0.1100  0.0270
19231TIP3   OH279107   0.209   5.272   4.407  0.3629 -0.1997  0.0384
19231TIP3    H179108   0.237   5.256   4.497 -0.0048 -1.7490 -0.1054
19231TIP3    H279109   0.200   5.185   4.368  0.1729  0.4312 -1.3979
19232TIP3   OH279110   4.640   2.363  15.158  0.3632 -0.0432 -0.2363
19232TIP3    H179111   4.553   2.346  15.192 -0.4837 -0.0965 -2.2860
19232TIP3    H279112   4.648   2.459  15.158  1.4005 -0.0579  2.4139
19233TIP3   OH279113   4.554   3.577   5.221  0.0689 -0.4190  0.5349
19233TIP3    H179114   4.503   3.653   5.190  1.7231 -0.0753 -1.5365
19233TIP3    H279115   4.501   3.501   5.196  0.6261 -0.0815 -1.9548
19234TIP3   OH279116   4.587   2.491   4.832  0.0277 -0.0334  0.2201
19234TIP3    H179117   4.602   2.480   4.738  1.8206 -1.9555  0.6601
19234TIP3    H279118   4.491   2.490   4.841 -0.1616 -1.3231 -1.4685
19235TIP3   OH279119   3.574   2.221  11.118  0.4130 -0.6142  0.0963
19235TIP3    H179120   3.579   2.232  11.023  1.9136  0.0359  0.2185
19235TIP3    H279121   3.481   2.206  11.136  0.2411 -1.7762 -1.5665
19236TIP3   OH279122   6.266   4.414  10.959 -0.2153 -0.8545  0.0052
19236TIP3    H179123   6.259   4.347  11.028 -0.9498  0.3537  1.1491
19236TIP3    H279124   6.176   4.434  10.936 -0.0721  0.7679  0.7347
19237TIP3   OH279125   3.996   1.396  17.007 -0.4970  0.3528  0.2328
19237TIP3    H179126   4.011   1.384  17.101  1.0879  0.0271 -0.0215
19237TIP3    H279127   4.082   1.381  16.968 -1.6211 -2.3166 -1.5375
19238TIP3   OH279128   4.823   0.790  16.998 -0.1532 -0.0820  0.0658
19238TIP3    H179129   4.901   0.751  17.038  0.4658  1.6335  0.6063
19238TIP3    H279130   4.855   0.832  16.918 -0.8925 -1.0588 -0.7672
19239TIP3   OH279131   2.659   5.235   3.914  0.3489  0.9073  0.3687
19239TIP3    H179132   2.655   5.205   3.823 -2.5600  0.7025  0.4688
19239TIP3    H279133   2.751   5.257   3.928  1.5480 -2.2938 -1.5324
19240TIP3   OH279134   0.379   2.774  16.571  0.0516  0.6426 -0.2449
19240TIP3    H179135   0.394   2.702  16.509 -0.5919  0.6366 -0.3971
19240TIP3    H279136   0.313   2.740  16.632  1.2670  0.3370  0.9696
19241TIP3   OH279137   5.744   0.761  17.168  0.2485  0.8760 -0.1676
19241TIP3    H179138   5.713   0.830  17.227 -1.3245 -0.5405  0.7516
19241TIP3    H279139   5.796   0.704  17.224 -1.6383 -0.7392  0.0367
19242TIP3   OH279140   4.034   4.410  12.347  0.5878  0.3487 -0.5699
19242TIP3    H179141   4.046   4.316  12.363  0.4459  0.4491  0.1998
19242TIP3    H279142   3.959   4.433  12.402 -1.8616  0.1643 -3.5652
19243TIP3   OH279143   0.129   4.190  11.191  0.3880  0.3118 -0.3624
19243TIP3    H179144   0.186   4.132  11.140  0.1179 -1.1472  0.9225
19243TIP3    H279145   0.042   4.175  11.155  0.5961  1.5797 -1.4673
19244TIP3   OH279146   3.436   5.509  13.445  0.0743 -0.6041  0.0034
19244TIP3    H179147   3.526   5.502  13.476  0.0239 -0.1480  0.2727
19244TIP3    H279148   3.412   5.600  13.464 -0.5451 -0.8106  0.2245
19245TIP3   OH279149   4.607   3.874  16.273 -0.0397 -0.4715 -0.2292
19245TIP3    H179150   4.647   3.873  16.360 -0.3716  1.8643  0.0331
19245TIP3    H279151   4.512   3.875  16.290 -0.1109 -0.1998 -0.6182
19246TIP3   OH279152   4.008   0.131   3.694  0.2018 -0.5974  0.5904
19246TIP3    H179153   3.930   0.109   3.643 -1.0144  0.4829  1.8879
19246TIP3    H279154   4.040   0.213   3.657  0.4461 -0.7942  0.3628
19247TIP3   OH279155   2.565   6.204  13.124 -0.5810  0.2995 -0.5014
19247TIP3    H179156   2.470   6.200  13.109 -0.7408 -1.6194  0.7356
19247TIP3    H279157   2.582   6.297  13.136 -2.7718  0.5309  1.7578
19248TIP3   OH279158   5.628   4.981  14.238 -0.2899 -0.1885  0.5757
19248TIP3    H179159   5.626   5.077  14.240  1.3282  0.0236 -2.1666
19248TIP3    H279160   5.662   4.956  14.324  0.2636  1.7744  0.9842
19249TIP3   OH279161   1.385   0.358  15.574  0.1495  0.1698 -0.4148
19249TIP3    H179162   1.474   0.324  15.584 -0.3284 -0.8898  0.4320
19249TIP3    H279163   1.360   0.332  15.485 -0.0620 -1.4266  0.0769
19250TIP3   OH279164   5.450   5.771   0.955  0.0926 -0.5800 -0.2300
19250TIP3    H179165   5.492   5.732   1.031  0.9595 -1.4263 -1.1042
19250TIP3    H279166   5.356   5.767   0.974  0.3530  0.9682  1.5872
19251TIP3   OH279167   3.931   0.846  16.986 -0.2301 -0.3488  0.2733
19251TIP3    H179168   4.015   0.866  17.028 -0.2230  1.3663 -0.4439
19251TIP3    H279169   3.950   0.848  16.892 -0.7785 -1.4849  0.1282
19252TIP3   OH279170   5.238   1.798  11.727 -0.3703 -0.1854  0.0519
19252TIP3    H179171   5.266   1.885  11.753 -0.1051 -0.2256 -0.0958
19252TIP3    H279172   5.242   1.798  11.632  0.4764 -0.6289  0.0730
19253TIP3   OH279173   3.153   1.296   1.887 -0.1318 -0.1467 -0.5080
19253TIP3    H179174   3.231   1.347   1.909  0.1862  0.0589 -1.9940
19253TIP3    H279175   3.144   1.234   1.959  1.4805 -0.2523 -0.3569
19254TIP3   OH279176   0.393   0.556   5.774 -0.6120 -0.3839  0.5269
19254TIP3    H179177   0.442   0.555   5.692  0.3352 -0.7942  1.0670
19254TIP3    H279178   0.371   0.648   5.789 -1.3334 -0.3796 -0.4795
19255TIP3   OH279179   5.987   4.296  11.475  0.2029  0.0262 -0.2044
19255TIP3    H179180   5.912   4.340  11.514 -0.5124 -0.7970 -0.6197
19255TIP3    H279181   6.060   4.356  11.491 -0.2507  0.1875  1.4732
19256TIP3   OH279182   6.080   0.338  16.003  0.7166  0.4531 -0.1212
19256TIP3    H179183   6.168   0.316  16.035 -0.6628 -1.6570  2.6511
19256TIP3    H279184   6.072   0.432  16.018  1.9598  0.3931  1.2018
19257TIP3   OH279185   4.331   1.559  10.913  0.4787  0.2196  0.9227
19257TIP3    H179186   4.383   1.558  10.832  0.7789 -1.2479  1.1008
19257TIP3    H279187   4.386   1.607  10.975  0.9890 -0.0915  0.7158
19258TIP3   OH279188   3.086   5.210  13.918 -0.3168  0.0926  0.2664
19258TIP3    H179189   3.092   5.137  13.857  1.6682  0.6640 -0.3102
19258TIP3    H279190   3.011   5.189  13.974 -1.5923 -0.9128 -1.7243
19259TIP3   OH279191   1.848   4.187   0.631  0.5661 -0.5246  0.1963
19259TIP3    H179192   1.889   4.201   0.717  0.9122  0.2846 -0.0974
19259TIP3    H279193   1.922   4.180   0.571  0.3625 -1.9252  0.0593
19260TIP3   OH279194   2.728   2.155   1.377 -1.0385  0.2329  0.3895
19260TIP3    H179195   2.651   2.117   1.336 -1.7978  2.3462 -0.2633
19260TIP3    H279196   2.699   2.182   1.464 -0.3002 -1.2457  1.1484
19261TIP3   OH279197   5.290   5.370  12.956  0.1214 -0.5119  0.3704
19261TIP3    H179198   5.377   5.399  12.984 -0.3180  0.9713  0.2621
19261TIP3    H279199   5.306   5.320  12.876  1.0019 -1.4730  1.1226
19262TIP3   OH279200   2.976   4.644   4.324  0.2934 -0.5524 -0.0033
19262TIP3    H179201   3.027   4.564   4.316  1.5060  0.0572  1.2268
19262TIP3    H279202   3.000   4.695   4.246  0.6278 -0.7888 -0.0569
19263TIP3   OH279203   6.503   0.740   4.340 -0.4915 -0.8139  0.8368
19263TIP3    H179204   6.495   0.657   4.293  0.9528 -0.5758  0.0937
19263TIP3    H279205   6.578   0.727   4.399  0.5132  0.2971 -0.1347
19264TIP3   OH279206   0.889   2.198   4.174 -0.0367  0.2360 -0.9220
19264TIP3    H179207   0.814   2.251   4.202 -0.0713  0.0438 -0.6546
19264TIP3    H279208   0.865   2.169   4.086 -0.3900 -0.0358 -0.7402
19265TIP3   OH279209   1.150   1.729   6.254  0.1820 -0.0625 -0.3568
19265TIP3    H179210   1.088   1.664   6.287 -0.0103 -0.6587 -1.8247
19265TIP3    H279211   1.208   1.747   6.328 -1.1112 -0.2551  0.7307
19266TIP3   OH279212   5.635   5.331  15.375  0.5743  0.0119 -0.4161
19266TIP3    H179213   5.696   5.392  15.333  1.0771 -0.2869 -0.1342
19266TIP3    H279214   5.649   5.345  15.469  1.3794 -1.1914 -0.3395
19267TIP3   OH279215   6.014   6.222   0.749  0.6949 -0.0499 -0.0252
19267TIP3    H179216   6.079   6.152   0.751  0.2254 -0.5583 -1.4058
19267TIP3    H279217   6.007   6.245   0.656  1.0164  2.0111  0.4252
19268TIP3   OH279218   5.240   5.799   3.272 -0.4184 -0.1375 -0.0540
19268TIP3    H179219   5.318   5.853   3.258  0.9638 -1.6031  1.4322
19268TIP3    H279220   5.185   5.850   3.330  0.0952  0.3600  0.0035
19269TIP3   OH279221   0.745   4.774   2.798  0.2380 -0.4050  0.5541
19269TIP3    H179222   0.720   4.696   2.848 -0.0019  0.1668  1.3503
19269TIP3    H279223   0.743   4.845   2.862  0.8541  0.1897 -0.0690
19270TIP3   OH279224   6.302   4.650  14.608 -0.1863 -0.2997  0.5186
19270TIP3    H179225   6.291   4.739  14.574 -0.2532 -1.0389 -1.5476
19270TIP3    H279226   6.394   4.645  14.634  0.1729 -0.0282 -0.6631
19271TIP3   OH279227   0.951   2.597   3.723 -0.5933  0.8744 -0.3020
19271TIP3    H179228   0.968   2.691   3.728  0.6452  0.6415  0.4850
19271TIP3    H279229   0.856   2.589   3.721 -0.7047  2.1695 -1.2829
19272TIP3   OH279230   6.487   4.329  14.903 -0.2091  0.5418  0.0580
19272TIP3    H179231   6.401   4.305  14.937 -0.1684 -0.0013 -0.2049
19272TIP3    H279232   6.512   4.255  14.847  0.8094  0.2716  0.8220
19273TIP3   OH279233   2.186   5.560   3.017 -0.1669 -0.3358 -0.4544
19273TIP3    H179234   2.094   5.539   3.000  0.2149 -2.4672 -0.1721
19273TIP3    H279235   2.188   5.656   3.021 -2.7602 -0.2604  1.7364
19274TIP3   OH279236   2.616   1.098  12.100 -0.2261  0.0252 -0.0104
19274TIP3    H179237   2.649   1.176  12.146 -1.0164  0.2296  0.2209
19274TIP3    H279238   2.695   1.047  12.081  0.3205  0.9717 -0.3454
19275TIP3   OH279239   0.250   6.483   5.009 -0.0112 -0.3089 -0.2029
19275TIP3    H179240   0.335   6.460   4.970 -0.2457  2.7605 -2.9608
19275TIP3    H279241   0.273   6.527   5.091  1.0400 -0.1656 -0.5531
19276TIP3   OH279242   5.849   5.157   2.914 -0.2055  0.2816 -0.5576
19276TIP3    H179243   5.909   5.173   2.842 -1.0341  0.6232 -1.1771
19276TIP3    H279244   5.878   5.073   2.951  2.3789  1.7036  0.9342
19277TIP3   OH279245   4.081   4.282   0.079  0.0805  0.1296  0.7037
19277TIP3    H179246   4.019   4.348   0.048  1.4920  1.4429  0.5604
19277TIP3    H279247   4.132   4.328   0.147  0.3740 -1.1583  1.3807
19278TIP3   OH279248   0.424   4.751   2.752  0.0106 -0.1676  0.2449
19278TIP3    H179249   0.493   4.805   2.714  1.2186 -0.9463  1.2515
19278TIP3    H279250   0.387   4.703   2.678  3.2100 -2.6628  0.0295
19279TIP3   OH279251   1.555   6.253  11.540 -0.6256 -0.6561  0.0065
19279TIP3    H179252   1.476   6.241  11.487 -0.5765 -1.5194  0.1019
19279TIP3    H279253   1.599   6.328  11.501 -1.6206  0.0106  0.1174
19280TIP3   OH279254   2.652   5.560   1.170  0.3618  0.6292 -0.5327
19280TIP3    H179255   2.606   5.616   1.107  0.0872 -0.3275 -1.2087
19280TIP3    H279256   2.591   5.549   1.242  0.0214  0.3841 -0.8572
19281TIP3   OH279257   4.681   4.266   2.773  0.4527  0.1372 -0.1761
19281TIP3    H179258   4.769   4.242   2.745  0.8975 -0.1516  1.3362
19281TIP3    H279259   4.688   4.273   2.869 -1.7753 -2.5949  0.3352
19282TIP3   OH279260   0.983   0.598  13.290  0.1574 -0.0931 -1.0007
19282TIP3    H179261   1.066   0.586  13.243  1.7315 -1.2893  1.7854
19282TIP3    H279262   0.964   0.512  13.327 -1.7474  0.4368 -0.6385
19283TIP3   OH279263   3.265   4.825  12.312  0.8169  0.4266 -0.2964
19283TIP3    H179264   3.226   4.773  12.241  1.5056 -0.1272 -0.2754
19283TIP3    H279265   3.359   4.816  12.300  0.9447  0.3346  0.6877
19284TIP3   OH279266   1.832   6.082   3.947  0.0513 -0.1686 -0.2710
19284TIP3    H179267   1.769   6.088   3.876 -0.1236 -2.4379 -0.3617
19284TIP3    H279268   1.790   6.126   4.021 -1.0163 -0.3669 -0.7494
19285TIP3   OH279269   6.176   4.209   1.526 -0.1330  0.5655 -0.1630
19285TIP3    H179270   6.088   4.172   1.530 -0.8785  2.3410  1.9114
19285TIP3    H279271   6.162   4.301   1.504  1.4653  0.3284 -2.5174
19286TIP3   OH279272   1.544   3.139   4.084 -0.6818  0.0131  0.2299
19286TIP3    H179273   1.631   3.179   4.078 -0.0008 -1.6104 -1.7341
19286TIP3    H279274   1.483   3.210   4.060  0.1322  0.9473  0.8491
19287TIP3   OH279275   2.826   5.020   5.088  0.2942  0.0208  0.8826
19287TIP3    H179276   2.864   4.975   5.013  0.7056  0.1025  1.0360
19287TIP3    H279277   2.876   4.988   5.163  0.1132  0.1943  1.0789
19288TIP3   OH279278   6.568   5.837   3.013  0.1854 -0.4858  0.3565
19288TIP3    H179279   6.526   5.913   2.974  0.4999 -1.6152 -2.3735
19288TIP3    H279280   6.525   5.827   3.098 -0.8235  1.8804  0.1971
19289TIP3   OH279281   5.483   1.976   2.618 -0.0897  0.1135 -0.1629
19289TIP3    H179282   5.459   1.927   2.540  2.0181 -0.7349 -0.3373
19289TIP3    H279283   5.442   1.928   2.690 -0.4537 -0.1973 -0.5674
19290TIP3   OH279284   4.897   6.169   0.341  0.4291 -0.1475  0.1059
19290TIP3    H179285   4.891   6.257   0.304  1.0073 -1.4513 -3.6047
19290TIP3    H279286   4.807   6.147   0.365  0.0722  1.0401 -0.0722
19291TIP3   OH279287   2.727   0.463  11.936 -0.3456  0.6826 -0.0412
19291TIP3    H179288   2.657   0.521  11.906 -2.2835 -1.0275  0.9019
19291TIP3    H279289   2.776   0.515  11.999 -0.7093  1.9679 -0.7890
19292TIP3   OH279290   4.582   0.394   2.984  0.0745  0.2790 -0.2013
19292TIP3    H179291   4.661   0.441   3.011  0.9897 -0.9214 -0.7224
19292TIP3    H279292   4.597   0.304   3.011 -0.3325 -0.3398 -1.9147
19293TIP3   OH279293   2.981   2.725   4.880 -0.6044  0.3586  0.3217
19293TIP3    H179294   3.032   2.653   4.916  2.1714  1.7267 -0.5527
19293TIP3    H279295   3.005   2.727   4.787 -2.6382  0.8494 -0.2446
19294TIP3   OH279296   5.653   2.496   2.562  0.1737  0.1358 -0.6320
19294TIP3    H179297   5.595   2.532   2.494 -0.6756 -0.4634 -0.2382
19294TIP3    H279298   5.633   2.403   2.563  0.2098  0.1291  0.4091
19295TIP3   OH279299   5.602   0.080  13.441 -0.1822  0.2910 -0.2982
19295TIP3    H179300   5.511   0.053  13.434 -0.0262 -0.3750  0.1456
19295TIP3    H279301   5.652  -0.002  13.443  0.5459  0.6524 -1.9565
19296TIP3   OH279302   5.472   4.171  13.774  0.1755 -0.1991  0.0892
19296TIP3    H179303   5.474   4.167  13.679  1.8614 -0.1030  0.0956
19296TIP3    H279304   5.504   4.086  13.803 -1.6982 -0.7736  0.6211
19297TIP3   OH279305   1.931   4.088   2.589  0.3231  0.2790 -0.1140
19297TIP3    H179306   1.968   4.174   2.570 -1.7415  1.9574  2.6088
19297TIP3    H279307   1.840   4.095   2.560 -0.5365 -0.0255  2.2888
19298TIP3   OH279308   0.006   2.188   1.621 -0.3052 -0.1261  0.0836
19298TIP3    H179309  -0.001   2.109   1.674 -0.0761  0.5708  1.1846
19298TIP3    H279310  -0.076   2.192   1.572 -0.2710 -1.0960 -0.0652
19299TIP3   OH279311   3.832   3.100   0.071  0.0069 -0.3467  0.2291
19299TIP3    H179312   3.760   3.155   0.101 -1.2759 -2.3458  1.0662
19299TIP3    H279313   3.852   3.132  -0.017 -1.9410  0.2798 -0.0360
19300TIP3   OH279314   2.223   1.526  13.045 -0.0857  0.3765  0.3244
19300TIP3    H179315   2.291   1.518  13.111  0.1476 -0.0657  0.0383
19300TIP3    H279316   2.265   1.499  12.963 -0.7460 -0.4138  0.2286
19301TIP3   OH279317   4.607   6.528   1.940  0.4637 -0.0329 -0.7052
19301TIP3    H179318   4.589   6.435   1.953 -3.5296  0.6512 -0.2156
19301TIP3    H279319   4.604   6.565   2.028 -1.0369  0.9371 -1.1343
19302TIP3   OH279320   2.730   4.290   2.747  0.3962  0.3996 -0.1597
19302TIP3    H179321   2.641   4.323   2.738  0.6269  0.7145 -1.4908
19302TIP3    H279322   2.760   4.323   2.832 -1.0519 -0.4737  0.7296
19303TIP3   OH279323   1.386   3.634   4.529  0.0376  0.4061 -0.3752
19303TIP3    H179324   1.472   3.671   4.510  0.1011  0.9841  0.9240
19303TIP3    H279325   1.368   3.576   4.455  2.3065 -1.1131  0.1581
19304TIP3   OH279326   4.649   0.434  16.956 -0.2881  0.0087  0.0727
19304TIP3    H179327   4.635   0.524  16.983 -1.1954 -0.4317  1.1527
19304TIP3    H279328   4.742   0.418  16.972  0.2838  1.2258 -1.7052
19305TIP3   OH279329   4.737   2.181  15.375 -0.0193  0.5947  0.0479
19305TIP3    H179330   4.700   2.234  15.304 -1.4131  0.0210  0.3069
19305TIP3    H279331   4.811   2.135  15.334  0.4998  1.8484 -0.4703
19306TIP3   OH279332   4.663   0.694   6.464 -0.6645  0.7532  0.0123
19306TIP3    H179333   4.589   0.739   6.505  0.4244 -0.1242  3.2599
19306TIP3    H279334   4.739   0.746   6.491  0.3809 -1.5287  1.7196
19307TIP3   OH279335   1.845   4.698   5.435 -0.4771 -0.2672  0.1470
19307TIP3    H179336   1.897   4.725   5.511 -0.5762  0.1691  0.0580
19307TIP3    H279337   1.859   4.603   5.430 -0.0637 -0.2222  0.4035
19308TIP3   OH279338   6.423   3.715  15.449 -0.3034  0.1371  0.1514
19308TIP3    H179339   6.482   3.783  15.480  0.4629  0.1996 -1.3634
19308TIP3    H279340   6.351   3.715  15.513 -0.4995  2.5840  0.0075
19309TIP3   OH279341   0.778   1.930  16.735 -0.3180  0.2104  0.1964
19309TIP3    H179342   0.835   1.889  16.800  0.8298  0.1965 -0.7876
19309TIP3    H279343   0.690   1.920  16.772  0.2112 -0.5278  1.3519
19310TIP3   OH279344   0.623   2.095   0.011 -0.2542 -0.0781 -0.3134
19310TIP3    H179345   0.569   2.141  -0.052  0.7937  0.3285 -0.9507
19310TIP3    H279346   0.589   2.121   0.097 -0.9408  0.2997 -0.6970
19311TIP3   OH279347   2.315   5.908   0.811 -0.1641 -0.2553  0.0145
19311TIP3    H179348   2.329   5.968   0.885  0.1683  0.3750 -0.5458
19311TIP3    H279349   2.263   5.837   0.848  0.7151 -0.3871  1.0782
19312TIP3   OH279350   4.370   4.307   3.826  0.2893 -0.6428  0.7966
19312TIP3    H179351   4.396   4.216   3.843 -0.2968 -1.1472 -0.7618
19312TIP3    H279352   4.296   4.322   3.885  0.8857 -0.9109  1.6239
19313TIP3   OH279353   2.036   1.083  11.614  0.3002  0.0236 -1.0713
19313TIP3    H179354   1.996   1.081  11.527  0.1291  0.7132 -1.0173
19313TIP3    H279355   2.063   0.993  11.630  0.7433 -0.0300 -2.0333
19314TIP3   OH279356   0.958   0.008  13.929 -0.3765  0.2181 -0.8317
19314TIP3    H179357   0.969   0.002  14.024 -1.0991 -0.4715 -0.7797
19314TIP3    H279358   0.885   0.069  13.918  0.3515  1.0692 -0.9859
19315TIP3   OH279359   5.247   1.804  13.454 -0.5019  0.2319 -0.5312
19315TIP3    H179360   5.343   1.808  13.448 -0.5659  0.0101 -2.4348
19315TIP3    H279361   5.223   1.882  13.504  0.7660 -0.9007  2.0003
19316TIP3   OH279362   3.450   1.277  15.393  0.1041 -0.7075  0.0488
19316TIP3    H179363   3.410   1.364  15.396 -0.0211 -0.6967 -1.4461
19316TIP3    H279364   3.401   1.230  15.326 -0.7582 -2.4475  1.8172
19317TIP3   OH279365   0.869   2.778  14.281  0.0596  0.3009 -0.3883
19317TIP3    H179366   0.887   2.714  14.212 -0.1395 -1.8487  1.4350
19317TIP3    H279367   0.774   2.785  14.282 -0.0655 -1.0268  0.7326
19318TIP3   OH279368   2.005   1.254   3.087 -0.1792 -0.1468  0.3104
19318TIP3    H179369   2.077   1.197   3.060  0.6134  0.8019  0.3622
19318TIP3    H279370   1.928   1.198   3.086  0.5864 -1.2254  0.3916
19319TIP3   OH279371   1.204   3.491   0.560 -0.2391  0.0506  0.7064
19319TIP3    H179372   1.171   3.579   0.580 -0.2096  0.1978  0.1210
19319TIP3    H279373   1.297   3.495   0.584 -0.1143  0.3435  0.1805
19320TIP3   OH279374   1.518   2.594   2.281  0.8726  0.1313 -0.3439
19320TIP3    H179375   1.495   2.595   2.188 -0.1713 -1.8936 -0.1497
19320TIP3    H279376   1.606   2.557   2.283 -0.2937 -2.8521 -0.3853
19321TIP3   OH279377   5.603   4.681  13.698 -0.2489  0.1473  0.1421
19321TIP3    H179378   5.527   4.644  13.654 -0.2718 -0.1858  0.4662
19321TIP3    H279379   5.581   4.680  13.791  0.4752 -0.7055  0.3113
19322TIP3   OH279380   1.328   3.926  12.632 -0.0983 -0.1652  0.6754
19322TIP3    H179381   1.269   3.856  12.606  1.0665 -1.2725  0.8992
19322TIP3    H279382   1.414   3.884  12.639  0.6192  1.2611  0.9298
19323TIP3   OH279383   6.326   4.855   2.148 -0.0518 -0.5877  0.1005
19323TIP3    H179384   6.360   4.944   2.151  1.8847 -1.2621 -0.3914
19323TIP3    H279385   6.238   4.861   2.184  0.0625  1.5057  0.1121
19324TIP3   OH279386   6.081   3.720  16.439  0.3314 -0.2287 -0.2355
19324TIP3    H179387   6.042   3.748  16.522  0.3660  3.4233 -1.3041
19324TIP3    H279388   6.174   3.741  16.449  0.4354 -0.3288 -0.9896
19325TIP3   OH279389   3.417   6.578  11.700  0.3141 -0.5412 -0.3902
19325TIP3    H179390   3.359   6.502  11.698 -0.7011  0.1661  0.7739
19325TIP3    H279391   3.501   6.543  11.730  0.8349 -1.7513 -3.0165
19326TIP3   OH279392   0.263   2.869  13.312  0.0624 -0.2544 -0.5042
19326TIP3    H179393   0.328   2.848  13.245 -0.3644  0.6391 -1.2123
19326TIP3    H279394   0.180   2.842  13.274 -0.2169  0.5319 -0.4694
19327TIP3   OH279395   4.990   6.648  12.366  0.1698  0.0353  0.6253
19327TIP3    H179396   4.989   6.552  12.365 -1.0811  0.0276  0.1066
19327TIP3    H279397   5.062   6.671  12.309  0.9713 -0.5898  1.3581
19328TIP3   OH279398   5.885   2.438  15.316  0.4775 -0.8661  0.5965
19328TIP3    H179399   5.851   2.449  15.227  1.9268  1.7217  0.2732
19328TIP3    H279400   5.980   2.438  15.307  0.6884  0.4230  2.1891
19329TIP3   OH279401   1.272   0.816  15.008  0.0223 -0.3157 -0.2772
19329TIP3    H179402   1.233   0.887  15.060  1.0315  0.0105  0.0706
19329TIP3    H279403   1.302   0.753  15.073 -0.1624 -0.6821 -0.5481
19330TIP3   OH279404   5.407   3.051   5.496  0.1197  0.4497  0.5125
19330TIP3    H179405   5.456   3.126   5.462 -0.8177  1.3801  1.1452
19330TIP3    H279406   5.320   3.086   5.515 -0.5778 -0.9846  0.1270
19331TIP3   OH279407   4.526   3.326   2.231  0.5950  0.6497  0.2663
19331TIP3    H179408   4.542   3.369   2.147  0.7192 -1.9020 -1.1254
19331TIP3    H279409   4.432   3.336   2.245 -0.0623 -1.5389 -1.8744
19332TIP3   OH279410   1.820   4.786   1.127  0.4690 -0.4249  0.1268
19332TIP3    H179411   1.903   4.771   1.172 -0.5615 -0.6916  2.0368
19332TIP3    H279412   1.759   4.725   1.168 -0.8666  0.3519 -0.6388
19333TIP3   OH279413   0.798   0.903   1.292 -0.1254 -0.2797  0.4322
19333TIP3    H179414   0.785   0.864   1.378 -0.9090  0.3476  0.6129
19333TIP3    H279415   0.893   0.907   1.281 -0.0198 -0.2331  1.3352
19334TIP3   OH279416   6.191   4.637  13.971  0.2351 -0.5791  0.2803
19334TIP3    H179417   6.270   4.590  13.944  0.3848 -0.3143  0.2564
19334TIP3    H279418   6.122   4.572  13.965  0.3455 -0.6521 -0.3011
19335TIP3   OH279419   3.590   2.347   5.067 -0.0722  0.7985  0.2195
19335TIP3    H179420   3.600   2.396   4.985  0.9184  0.1764 -0.0385
19335TIP3    H279421   3.601   2.413   5.136  0.3789  1.0943 -0.1310
19336TIP3   OH279422   4.944   3.971  12.339 -0.8978  0.5944  0.2618
19336TIP3    H179423   4.912   4.061  12.340 -1.2573  0.4882 -0.9142
19336TIP3    H279424   4.906   3.932  12.260  0.5920 -0.1001 -0.1418
19337TIP3   OH279425   5.410   1.219   4.365  0.0396 -0.0099 -0.2277
19337TIP3    H179426   5.505   1.204   4.367 -0.0996 -1.3272 -1.6793
19337TIP3    H279427   5.394   1.276   4.440  1.9720  0.2246  0.0752
19338TIP3   OH279428   3.967   2.463   1.864  0.5173 -0.1156 -0.2385
19338TIP3    H179429   3.927   2.535   1.816  2.0638  0.8445 -0.1355
19338TIP3    H279430   3.893   2.410   1.893 -0.5470  0.2346 -2.1446
19339TIP3   OH279431   1.327   3.587  12.308  0.6491 -0.2253 -0.4132
19339TIP3    H179432   1.268   3.532  12.256  0.9309  0.5366 -1.5914
19339TIP3    H279433   1.403   3.531  12.324  0.1137 -0.8166  0.0868
19340TIP3   OH279434   3.543   2.154  17.043 -0.1315  0.2914  0.4207
19340TIP3    H179435   3.611   2.113  17.097  0.9640  0.7692 -0.5507
19340TIP3    H279436   3.521   2.088  16.977  0.2104  0.5341  0.0573
19341TIP3   OH279437   3.974   0.267  14.346  0.5833  0.4490 -0.2702
19341TIP3    H179438   4.041   0.334  14.353 -0.3817  1.3587  0.8329
19341TIP3    H279439   3.892   0.316  14.333 -0.0811 -0.5306  0.0656
19342TIP3   OH279440   0.874   0.777   2.136  0.3257  0.5038 -0.5864
19342TIP3    H179441   0.795   0.793   2.085  0.1708 -1.6653 -1.1025
19342TIP3    H279442   0.943   0.822   2.087 -0.2675  0.8190 -1.1553
19343TIP3   OH279443   0.425   4.856   4.733 -0.3690 -0.4632 -0.5110
19343TIP3    H179444   0.356   4.863   4.800  1.6492  0.7174  1.5814
19343TIP3    H279445   0.425   4.941   4.690  1.0898  0.3204  0.9400
19344TIP3   OH279446   4.387   1.936   4.891 -0.2242 -0.1371 -0.4175
19344TIP3    H179447   4.301   1.930   4.931  0.4980 -1.4511  1.0284
19344TIP3    H279448   4.383   2.015   4.837 -1.8621  0.6155  0.7447
19345TIP3   OH279449   2.981   6.153   3.297 -0.7776 -0.0837 -0.7052
19345TIP3    H179450   2.974   6.080   3.237 -1.3274  1.2513 -2.3461
19345TIP3    H279451   3.035   6.120   3.369 -1.4641 -2.2368 -1.1128
19346TIP3   OH279452   1.094   3.057   0.356  0.6343  0.0206  0.0480
19346TIP3    H179453   1.095   2.962   0.365 -0.2852 -0.0760 -0.6414
19346TIP3    H279454   1.079   3.072   0.262  0.1513  0.8297  0.2412
19347TIP3   OH279455   3.779   0.065  10.691  0.5132  0.4011  0.3815
19347TIP3    H179456   3.800   0.123  10.764 -0.1455  1.5053 -0.2694
19347TIP3    H279457   3.686   0.083  10.672  0.3113 -0.8421  0.1354
19348TIP3   OH279458   5.691   5.350   4.117 -0.0620 -0.2450  0.4794
19348TIP3    H179459   5.756   5.299   4.166  0.4355  0.2529  0.3497
19348TIP3    H279460   5.737   5.430   4.092 -0.1237 -0.7235 -1.2766
19349TIP3   OH279461   4.823   2.015  15.606 -0.3697 -0.2850  0.2284
19349TIP3    H179462   4.906   2.058  15.587 -1.0838  1.1259  0.1958
19349TIP3    H279463   4.770   2.028  15.527 -0.7214 -0.9528  0.3416
19350TIP3   OH279464   6.478   1.482  15.463  0.4080 -0.4727 -0.0527
19350TIP3    H179465   6.398   1.431  15.472  1.4667 -2.1017  0.7965
19350TIP3    H279466   6.515   1.453  15.379  0.6961 -0.6386  0.1291
19351TIP3   OH279467   5.088   2.709   4.008  0.7693 -0.0345 -0.0461
19351TIP3    H179468   5.157   2.657   3.967 -0.5257 -0.4027 -1.8251
19351TIP3    H279469   5.076   2.669   4.094  1.5255 -1.0752 -0.4063
19352TIP3   OH279470   5.888   1.425  12.927 -0.3687  0.2791 -0.0058
19352TIP3    H179471   5.981   1.413  12.907 -0.3806 -0.2643  0.2294
19352TIP3    H279472   5.849   1.339  12.909 -0.2699 -0.4842  2.8652
19353TIP3   OH279473   2.163   3.919  12.673  0.1813 -0.1403  0.2008
19353TIP3    H179474   2.203   3.958  12.596 -3.7276  0.4309 -1.8334
19353TIP3    H279475   2.142   3.994  12.729  1.0148 -0.3218  0.7603
19354TIP3   OH279476   6.397   4.648   5.319 -0.2658  0.0247 -0.1664
19354TIP3    H179477   6.336   4.686   5.256 -1.1514 -0.7126  0.2191
19354TIP3    H279478   6.380   4.695   5.401 -0.7445 -0.5664  0.0866
19355TIP3   OH279479   0.261   5.358   0.553  0.0761  0.3170 -0.0196
19355TIP3    H179480   0.330   5.359   0.619  0.0443  0.1815  0.0156
19355TIP3    H279481   0.218   5.273   0.564 -1.2974  1.1171  1.2182
19356TIP3   OH279482   5.380   0.288   5.342 -0.2414 -0.5888 -0.4913
19356TIP3    H179483   5.451   0.257   5.285 -0.5918 -2.1838 -0.1181
19356TIP3    H279484   5.346   0.208   5.383 -2.8727 -0.0266 -1.3457
19357TIP3   OH279485   5.261   5.723  15.025  0.0552  0.1751 -0.4081
19357TIP3    H179486   5.341   5.704  14.977 -0.2989 -0.9347 -0.5859
19357TIP3    H279487   5.262   5.663  15.099 -0.3084  0.5904 -0.0613
19358TIP3   OH279488   0.487   5.792   5.468 -0.0502 -0.2190 -0.5192
19358TIP3    H179489   0.427   5.865   5.483  0.4593  0.0425  0.3075
19358TIP3    H279490   0.486   5.743   5.550  1.8906  0.5544  0.0367
19359TIP3   OH279491   0.665   5.562   4.684 -0.2019 -0.2157  1.3948
19359TIP3    H179492   0.691   5.571   4.776 -0.5712  0.2097  1.4612
19359TIP3    H279493   0.673   5.650   4.648  0.8671 -0.5532  0.7613
19360TIP3   OH279494   3.450   0.422   2.125 -0.0377  0.2667  0.8359
19360TIP3    H179495   3.480   0.356   2.187 -0.3623 -1.5768 -0.8480
19360TIP3    H279496   3.408   0.371   2.055  0.7978  2.1736 -1.1537
19361TIP3   OH279497   4.124   6.475   0.673  0.0182  0.3221 -0.4384
19361TIP3    H179498   4.044   6.526   0.657 -0.5325 -0.9812 -2.0693
19361TIP3    H279499   4.190   6.541   0.695 -1.1194  1.5681 -0.6304
19362TIP3   OH279500   1.692   3.288   2.186  0.1373  0.2709  0.2524
19362TIP3    H179501   1.611   3.276   2.235  0.4630 -2.2875  0.3126
19362TIP3    H279502   1.666   3.279   2.094 -0.0835  2.6060  0.0339
19363TIP3   OH279503   3.855   6.217   0.595  0.4679  0.5508 -0.2820
19363TIP3    H179504   3.843   6.136   0.545 -0.5301  0.4582  0.0814
19363TIP3    H279505   3.947   6.216   0.621  0.4969 -0.4033 -0.3851
19364TIP3   OH279506   5.135   4.698  10.289 -0.3220 -0.0194  0.2116
19364TIP3    H179507   5.071   4.748  10.341 -1.2884  0.2821 -1.2284
19364TIP3    H279508   5.087   4.671  10.211  1.2453  0.0032 -0.7936
19365TIP3   OH279509   1.401   0.270   1.960 -0.5477 -0.1915  0.1828
19365TIP3    H179510   1.390   0.339   2.025  0.6911 -0.7936  1.0845
19365TIP3    H279511   1.435   0.315   1.882 -1.5010  0.4513  0.1212
19366TIP3   OH279512   3.496   4.143   4.026  0.7825 -0.8785 -0.5668
19366TIP3    H179513   3.523   4.105   4.109 -0.7499 -1.4686 -0.2964
19366TIP3    H279514   3.483   4.236   4.046  1.0388 -0.8949 -0.3133
19367TIP3   OH279515   3.047   1.037  11.552 -0.3548  0.6840  0.5330
19367TIP3    H179516   2.994   1.044  11.631  0.2384 -2.5231  1.3525
19367TIP3    H279517   3.015   0.957  11.508  1.7439  0.3320 -0.5060
19368TIP3   OH279518   2.048   2.182   2.309 -0.4310 -0.0373  0.3998
19368TIP3    H179519   2.011   2.202   2.396  2.3037  1.8022  1.2938
19368TIP3    H279520   2.098   2.260   2.286 -0.0715 -0.9649 -2.3191
19369TIP3   OH279521   1.638   0.625  11.044  0.5192 -0.4346  0.3848
19369TIP3    H179522   1.661   0.652  10.955  0.3412 -2.9331 -0.4717
19369TIP3    H279523   1.601   0.704  11.084  2.7332  1.3964 -0.9371
19370TIP3   OH279524   3.361   3.110   2.817  0.3741 -0.1927  0.1130
19370TIP3    H179525   3.300   3.175   2.851  2.0475  0.4916  2.0458
19370TIP3    H279526   3.306   3.044   2.775 -1.5276  1.2586  0.2283
19371TIP3   OH279527   0.891   2.849   3.675  0.2799  0.5162 -0.0184
19371TIP3    H179528   0.806   2.826   3.714  0.3998 -0.9425 -0.5184
19371TIP3    H279529   0.870   2.919   3.612  0.0162  2.5412  2.1996
19372TIP3   OH279530   6.416   0.992   4.395 -0.4933  0.0124 -0.1733
19372TIP3    H179531   6.365   1.012   4.317  0.7780  0.6366 -0.8836
19372TIP3    H279532   6.431   0.898   4.391  0.1151  0.1359 -1.0481
19373TIP3   OH279533   5.090   1.727   0.348 -0.2172  0.4834  0.4110
19373TIP3    H179534   5.116   1.667   0.417 -2.2171  2.3712  2.9833
19373TIP3    H279535   5.121   1.813   0.377  0.1560  1.1794 -1.7998
19374TIP3   OH279536   3.275   4.157   3.808 -0.1258 -0.3356 -0.4127
19374TIP3    H179537   3.303   4.093   3.743  1.8084 -0.7823  0.7669
19374TIP3    H279538   3.330   4.139   3.884 -0.2533  2.0612  0.3284
19375TIP3   OH279539   6.310   6.698   1.947 -0.0778 -0.0989 -0.3567
19375TIP3    H179540   6.323   6.667   2.036  0.7641 -0.3519 -0.5572
19375TIP3    H279541   6.339   6.625   1.892  1.8425  0.9748 -0.8389
19376TIP3   OH279542   5.140   6.570  11.531 -0.9836 -0.1822  0.0914
19376TIP3    H179543   5.046   6.580  11.547 -0.8138 -1.1921  1.9237
19376TIP3    H279544   5.170   6.511  11.599  0.4859 -2.1992 -2.1622
19377TIP3   OH279545   0.428   3.304  14.032 -0.5503  0.2917  0.1697
19377TIP3    H179546   0.428   3.256  14.114  0.0372 -0.1243 -0.0655
19377TIP3    H279547   0.338   3.298  13.999 -1.1948  1.7792  1.5315
19378TIP3   OH279548   5.254   3.654   5.185  0.7223 -0.1535 -0.1128
19378TIP3    H179549   5.262   3.559   5.176  1.2461 -0.0766 -0.5352
19378TIP3    H279550   5.327   3.689   5.134  2.7400  0.4203  2.8943
19379TIP3   OH279551   2.431   3.988   2.583  0.3194 -0.3405 -0.0976
19379TIP3    H179552   2.404   3.942   2.663 -1.6451  0.5563 -0.1736
19379TIP3    H279553   2.357   4.046   2.563  1.4033  0.5546 -1.7370
19380TIP3   OH279554   5.218   1.483   3.181 -0.7448 -0.3788 -0.2636
19380TIP3    H179555   5.286   1.420   3.205 -0.9478 -1.1049 -1.5047
19380TIP3    H279556   5.263   1.568   3.183  0.1195 -0.8100 -0.7385
19381TIP3   OH279557   4.803   6.481  16.431  0.2320  0.5496 -0.3711
19381TIP3    H179558   4.728   6.483  16.492 -1.5682  1.0236 -2.4549
19381TIP3    H279559   4.774   6.535  16.357  1.6390 -1.3348 -2.3976
19382TIP3   OH279560   4.537   2.686  14.194  0.1473  0.1193  0.4468
19382TIP3    H179561   4.619   2.696  14.242  0.3000  1.1393 -0.0017
19382TIP3    H279562   4.483   2.760  14.221 -0.0741  0.2509 -0.3153
19383TIP3   OH279563   2.169   3.439   1.111  0.1381 -0.5800  0.0866
19383TIP3    H179564   2.154   3.404   1.199  0.1456  0.0019  0.3224
19383TIP3    H279565   2.264   3.434   1.099  0.3678  1.1825  0.9041
19384TIP3   OH279566   0.363   3.213   4.674  0.2216 -0.1161  0.1078
19384TIP3    H179567   0.408   3.185   4.753  0.1861 -0.6173 -0.0487
19384TIP3    H279568   0.277   3.243   4.703 -0.9799 -3.1020 -0.0496
19385TIP3   OH279569   6.085   0.838  16.029 -0.0632  0.0227  0.5059
19385TIP3    H179570   6.105   0.890  16.107 -0.7496  0.1886  0.5740
19385TIP3    H279571   5.990   0.844  16.020 -0.1388 -1.0646  0.4039
19386TIP3   OH279572   4.120   2.953  11.714  0.2394 -0.8088 -0.1093
19386TIP3    H179573   4.028   2.930  11.700 -0.5941  3.0139 -2.4346
19386TIP3    H279574   4.169   2.888  11.664 -1.5895 -0.4132 -2.6550
19387TIP3   OH279575   1.449   4.947  16.301  0.1228  0.5938 -0.1158
19387TIP3    H179576   1.459   5.004  16.378  0.8983  0.9334 -0.4591
19387TIP3    H279577   1.455   4.858  16.336 -0.7403  0.7185  0.3788
19388TIP3   OH279578   6.320   2.554   4.875 -0.2214  0.3287  0.4507
19388TIP3    H179579   6.287   2.496   4.806 -0.4102  1.9926 -0.9196
19388TIP3    H279580   6.245   2.567   4.933 -0.0696 -1.0623  1.0027
19389TIP3   OH279581   4.374   0.286   4.092  0.0909  0.2651  0.2916
19389TIP3    H179582   4.419   0.314   4.012 -2.8635 -0.4419 -1.7770
19389TIP3    H279583   4.405   0.347   4.159  3.0389  0.6226 -1.2134
19390TIP3   OH279584   3.862   0.976  14.494  0.2423 -0.3092 -0.2326
19390TIP3    H179585   3.844   1.042  14.560 -0.6902 -0.5292 -0.2436
19390TIP3    H279586   3.784   0.976  14.438  0.8961 -0.3083 -1.1782
19391TIP3   OH279587   0.534   2.900   0.610  0.1322  0.1699  0.0781
19391TIP3    H179588   0.497   2.818   0.643 -0.0149  0.8454  1.6883
19391TIP3    H279589   0.604   2.873   0.551  0.5243 -1.1203  1.0929
19392TIP3   OH279590   5.716   5.580  13.639  0.5300  0.2799 -0.4641
19392TIP3    H179591   5.708   5.519  13.565 -0.5514  2.3884 -2.2102
19392TIP3    H279592   5.630   5.621  13.645  0.9012  0.8376  1.3991
19393TIP3   OH279593   1.881   3.072   3.500 -0.5973 -0.5434 -0.4012
19393TIP3    H179594   1.923   3.106   3.579 -0.5853 -2.8603  0.6824
19393TIP3    H279595   1.919   2.985   3.489 -1.4320 -0.6981 -2.3370
19394TIP3   OH279596   2.771   5.526  16.354 -0.5885  0.1704  0.3977
19394TIP3    H179597   2.768   5.454  16.290 -3.0473 -0.6110  1.2854
19394TIP3    H279598   2.718   5.595  16.315  0.1673  0.7659  0.4089
19395TIP3   OH279599   5.406   4.775  16.866  0.2429  0.1220 -0.0457
19395TIP3    H179600   5.377   4.751  16.954 -0.4762 -1.8074 -0.7502
19395TIP3    H279601   5.377   4.866  16.856  0.2542  0.3552  1.6525
19396TIP3   OH279602   0.168   5.924   6.111  0.2555  0.1083 -0.5284
19396TIP3    H179603   0.258   5.929   6.145  0.7152 -1.9481 -1.3022
19396TIP3    H279604   0.150   5.830   6.105 -0.9602  0.4317 -2.9596
19397TIP3   OH279605   5.760   5.673   2.624  0.7174 -0.6393  0.4941
19397TIP3    H179606   5.757   5.693   2.530  2.1534 -2.0880  0.0942
19397TIP3    H279607   5.804   5.588   2.629  0.7398 -0.5594  2.5005
19398TIP3   OH279608   3.366   5.241  13.348  0.6562 -0.3999 -0.3596
19398TIP3    H179609   3.409   5.183  13.411  0.0071 -0.0953  0.3803
19398TIP3    H279610   3.405   5.327  13.362  0.1025 -0.2046  0.0501
19399TIP3   OH279611   1.870   5.229  11.833 -0.5580 -0.5210  0.0933
19399TIP3    H179612   1.883   5.149  11.782  1.4990 -0.3230  0.2124
19399TIP3    H279613   1.948   5.235  11.887 -1.0600  1.1492  0.6858
19400TIP3   OH279614   0.839   3.686   2.115 -0.3230  0.5428 -0.1910
19400TIP3    H179615   0.887   3.748   2.060 -1.1777  1.0370 -0.4034
19400TIP3    H279616   0.751   3.722   2.121 -0.3386  0.3374  1.2596
19401TIP3   OH279617   3.651   1.794  11.652  0.0796  0.3318  0.1768
19401TIP3    H179618   3.692   1.757  11.574 -0.1848 -0.4997  0.4165
19401TIP3    H279619   3.598   1.867  11.620 -0.6024 -0.4550 -0.5240
19402TIP3   OH279620   3.809   2.935   0.652 -0.1353 -0.3970  0.5181
19402TIP3    H179621   3.850   2.864   0.602  0.7736 -0.6667  1.5913
19402TIP3    H279622   3.850   3.014   0.618  0.3434 -0.5651  0.6780
19403TIP3   OH279623   3.352   6.246   2.259  0.0127  0.2068  0.0226
19403TIP3    H179624   3.416   6.207   2.199  0.1350  0.3635  0.0507
19403TIP3    H279625   3.269   6.204   2.236 -0.3916  1.8399 -1.7702
19404TIP3   OH279626   1.726   5.735   5.837 -0.3120  0.3634  0.1891
19404TIP3    H179627   1.665   5.741   5.763  0.3025  1.0417 -0.2752
19404TIP3    H279628   1.749   5.642   5.841 -2.4130 -0.1621  1.2464
19405TIP3   OH279629   5.960   2.240  12.964  0.2774 -0.4886  0.2153
19405TIP3    H179630   5.919   2.155  12.946 -0.6790 -0.3978  1.8330
19405TIP3    H279631   5.901   2.304  12.925  0.8147 -0.5192 -0.6869
19406TIP3   OH279632   4.502   4.339  14.681  0.0901 -0.4984 -0.3159
19406TIP3    H179633   4.551   4.344  14.599  0.4587  0.0821 -0.0676
19406TIP3    H279634   4.482   4.246  14.692  2.8564 -1.0719  0.5606
19407TIP3   OH279635   2.888   1.492  16.554  0.0924 -0.3437  0.5348
19407TIP3    H179636   2.941   1.572  16.552 -0.7551  0.2208 -0.0488
19407TIP3    H279637   2.937   1.429  16.502  0.8851 -0.2910  1.1991
19408TIP3   OH279638   6.564   3.247   1.007  0.2607  0.4132 -0.3318
19408TIP3    H179639   6.541   3.209   1.091  0.2425  0.6503 -0.2291
19408TIP3    H279640   6.507   3.202   0.944  0.5799 -0.0757 -0.2801
19409TIP3   OH279641   3.233   2.540   3.967 -0.2854  0.4083  0.1181
19409TIP3    H179642   3.250   2.447   3.956  1.0982  0.7875 -1.3635
19409TIP3    H279643   3.278   2.582   3.894  1.5611  2.4925  2.2587
19410TIP3   OH279644   6.220   4.834  16.381  0.5157  0.1985  0.0384
19410TIP3    H179645   6.169   4.913  16.365  2.4399  2.1441  2.6235
19410TIP3    H279646   6.205   4.779  16.304 -4.0707  1.2602 -0.0935
19411TIP3   OH279647   4.619   0.366  16.526  0.8750 -1.1419  0.8570
19411TIP3    H179648   4.652   0.447  16.565 -1.3190  0.8008 -1.0198
19411TIP3    H279649   4.685   0.343  16.460  0.0429  1.0648 -0.8626
19412TIP3   OH279650   0.084   2.480   0.798  0.0234 -0.2098 -0.8544
19412TIP3    H179651   0.138   2.522   0.731 -0.0731 -0.5587 -1.1596
19412TIP3    H279652   0.085   2.541   0.872  0.6935 -0.1291 -0.9171
19413TIP3   OH279653   4.007   6.580   2.707 -0.1605  0.0964  0.3758
19413TIP3    H179654   4.038   6.648   2.646 -0.2757  1.0680  1.3686
19413TIP3    H279655   4.083   6.560   2.761  0.1765 -1.3719 -0.5856
19414TIP3   OH279656   5.362   3.410  13.770  0.0033  0.3800  0.3193
19414TIP3    H179657   5.275   3.414  13.810  0.7092 -1.5741  2.2218
19414TIP3    H279658   5.421   3.395  13.843  1.7594 -0.0130 -1.1202
19415TIP3   OH279659   2.671   3.015  14.972  0.0976 -0.1628  0.0980
19415TIP3    H179660   2.614   3.027  15.048  0.1513  3.3719 -0.2482
19415TIP3    H279661   2.753   2.983  15.009 -0.9684 -1.9579  1.0212
19416TIP3   OH279662   2.147   2.934  15.193 -0.1444 -0.6170  0.3558
19416TIP3    H179663   2.181   2.887  15.269 -1.8050 -2.0208  0.3039
19416TIP3    H279664   2.122   3.020  15.226  0.1790 -0.8251  1.1515
19417TIP3   OH279665   4.116   2.650  11.720 -0.1583  0.3617 -0.0999
19417TIP3    H179666   4.070   2.578  11.762  1.1065 -0.5372 -0.2130
19417TIP3    H279667   4.155   2.612  11.641  0.7963  1.0762  0.0104
19418TIP3   OH279668   1.139   3.161  16.559  0.1289  0.4356 -0.5400
19418TIP3    H179669   1.062   3.218  16.546 -1.1002 -1.0078  0.1291
19418TIP3    H279670   1.169   3.141  16.471  0.8314  2.3949 -0.7982
19419TIP3   OH279671   2.482   0.931   3.107  0.7382 -0.6529  0.4763
19419TIP3    H179672   2.548   0.991   3.141  0.1133 -0.5831  1.6353
19419TIP3    H279673   2.527   0.881   3.039  1.9013 -0.4361  1.0631
19420TIP3   OH279674   3.918   6.616   5.740  0.1345  0.6391 -0.1625
19420TIP3    H179675   3.922   6.679   5.668 -0.6666 -0.3760 -1.1361
19420TIP3    H279676   3.825   6.612   5.763  0.0021 -0.8656 -0.7888
19421TIP3   OH279677   3.518   2.777   2.964 -0.2502  0.2984  0.1220
19421TIP3    H179678   3.553   2.839   2.900  1.5103  1.7433  2.3503
19421TIP3    H279679   3.456   2.724   2.913  1.9875  0.4400 -3.0942
19422TIP3   OH279680   3.239   2.419   2.790 -0.1984  0.2840  0.2701
19422TIP3    H179681   3.298   2.494   2.788 -0.0214  0.1984  1.4707
19422TIP3    H279682   3.210   2.408   2.699 -0.4311  1.9593  0.1222
19423TIP3   OH279683   6.112   0.779  14.274 -0.1205  0.1912  0.2062
19423TIP3    H179684   6.123   0.712  14.207 -1.3642  0.3038 -0.1385
19423TIP3    H279685   6.145   0.739  14.355  0.8809 -0.1408 -0.3587
19424TIP3   OH279686   4.976   3.034  15.326 -0.0736  0.2810 -0.2041
19424TIP3    H179687   5.039   2.987  15.382  0.7332  0.8896 -0.5790
19424TIP3    H279688   4.922   2.965  15.288 -0.7792 -0.1412  1.4697
19425TIP3   OH279689   4.134   5.705  13.721  0.3905  0.1652 -0.6973
19425TIP3    H179690   4.047   5.670  13.739  0.9048 -0.6725  0.2474
19425TIP3    H279691   4.126   5.745  13.634 -0.8184 -0.2811 -0.8104
19426TIP3   OH279692   1.697   4.089   4.066  0.3162 -0.0312 -0.3313
19426TIP3    H179693   1.628   4.125   4.010  0.6591 -0.1672 -0.8505
19426TIP3    H279694   1.738   4.165   4.106 -0.0610  0.0561 -0.0979
19427TIP3   OH279695   2.978   0.253  11.850 -0.1421  0.2187  0.3109
19427TIP3    H179696   2.987   0.347  11.836 -1.3142  0.1659 -1.0084
19427TIP3    H279697   2.906   0.244  11.913 -0.1826  0.1897  0.2605
19428TIP3   OH279698   3.158   1.083  12.108 -0.6997 -0.4627  0.0649
19428TIP3    H179699   3.163   1.064  12.202 -1.2471 -0.1711  0.1604
19428TIP3    H279700   3.239   1.132  12.090 -0.3611 -0.9345  0.2796
19429TIP3   OH279701   4.585   0.475   0.442 -0.3046 -0.5653  0.3736
19429TIP3    H179702   4.552   0.426   0.366 -0.3857 -1.2029  0.8103
19429TIP3    H279703   4.508   0.519   0.477  0.1171  1.6490 -1.2600
19430TIP3   OH279704   4.525   4.668   3.165 -0.0635 -0.6876 -0.7113
19430TIP3    H179705   4.570   4.728   3.225  0.7843  0.7147 -2.6339
19430TIP3    H279706   4.434   4.670   3.194  0.0870  0.9657 -0.2188
19431TIP3   OH279707   3.343   6.266   2.863 -0.5795  0.4279 -0.6352
19431TIP3    H179708   3.341   6.357   2.833 -0.1228  0.6646  0.0161
19431TIP3    H279709   3.434   6.252   2.891 -0.9973  0.2730  0.7411
19432TIP3   OH279710   3.515   0.274  13.846 -0.3371 -0.3623 -0.5738
19432TIP3    H179711   3.552   0.325  13.775  0.9769  0.7677  0.8461
19432TIP3    H279712   3.574   0.200  13.856 -0.1811 -0.1974 -0.2721
19433TIP3   OH279713   1.692   3.313  15.508  0.0955  0.0609  0.7343
19433TIP3    H179714   1.659   3.239  15.458  0.1166  0.4821  0.0877
19433TIP3    H279715   1.661   3.390  15.460 -1.4997  0.5128  2.3847
19434TIP3   OH279716   0.537   5.890  11.695  0.1953  0.4023 -0.2066
19434TIP3    H179717   0.543   5.814  11.637  1.4057  0.4744 -0.2048
19434TIP3    H279718   0.611   5.945  11.669  1.1046  0.1919  1.7464
19435TIP3   OH279719   1.055   2.107  15.173  0.1134  0.2191  0.1356
19435TIP3    H179720   1.087   2.070  15.255  0.3070 -0.8548 -0.4162
19435TIP3    H279721   0.960   2.111  15.184  0.0474 -0.8458  0.0495
19436TIP3   OH279722   3.220   6.250  15.927  0.4784  0.2932  0.9032
19436TIP3    H179723   3.189   6.210  16.008 -0.2861  0.3634  0.6476
19436TIP3    H279724   3.308   6.214  15.915  0.5550  0.1988  1.7032
19437TIP3   OH279725   2.075   5.903  12.611 -0.4917  0.0859 -0.2700
19437TIP3    H179726   2.143   5.917  12.676 -1.1985 -1.1214  0.7718
19437TIP3    H279727   2.095   5.817  12.573 -0.2980  0.6159 -1.3970
19438TIP3   OH279728   6.112   3.880   0.849 -0.8850  0.5400  0.1188
19438TIP3    H179729   6.207   3.889   0.861 -0.9853  1.8136  0.0695
19438TIP3    H279730   6.101   3.793   0.810  0.2831  0.5153 -0.1880
19439TIP3   OH279731   4.904   0.139  15.103  0.1535  0.2498  0.1996
19439TIP3    H179732   4.886   0.231  15.086  0.1891  0.2316  0.0596
19439TIP3    H279733   4.875   0.125  15.193  0.3641  0.4527  0.3007
19440TIP3   OH279734   3.499   1.942  11.244  0.2564  0.1818  0.1888
19440TIP3    H179735   3.501   1.886  11.166  0.4816  0.8433 -0.2886
19440TIP3    H279736   3.422   1.998  11.232 -0.9628 -1.1414  1.4784
19441TIP3   OH279737   3.021   0.529   4.734  0.4025 -0.2667 -0.2348
19441TIP3    H179738   3.077   0.576   4.672  0.3633  0.4167  0.2482
19441TIP3    H279739   2.960   0.594   4.766 -0.6752 -1.0032 -0.7384
19442TIP3   OH279740   3.165   1.055   0.167  0.5980  0.1064 -0.3657
19442TIP3    H179741   3.079   1.047   0.126  0.0420  1.8397  0.3394
19442TIP3    H279742   3.177   0.973   0.214 -0.9626  0.0734  0.0366
19443TIP3   OH279743   0.213   3.609   4.388  0.0426 -0.6827 -0.4532
19443TIP3    H179744   0.255   3.687   4.423  1.6627 -1.2627 -1.0140
19443TIP3    H279745   0.175   3.637   4.305 -1.5943  0.0760  0.4921
19444TIP3   OH279746   3.482   2.548   5.635  0.0770  0.5034 -0.4871
19444TIP3    H179747   3.416   2.593   5.582  0.2769 -0.3927 -1.5358
19444TIP3    H279748   3.516   2.615   5.694 -1.4694  1.0754 -0.2159
19445TIP3   OH279749   2.725   6.313  16.065  0.1988 -0.9131 -0.6216
19445TIP3    H179750   2.669   6.363  16.125  0.8903  0.2603 -0.9271
19445TIP3    H279751   2.738   6.371  15.991  2.8812 -0.6190 -0.0069
19446TIP3   OH279752   1.113   5.597   1.587 -0.2026  0.0410  0.2105
19446TIP3    H179753   1.127   5.514   1.543 -1.2189  0.2954 -0.6236
19446TIP3    H279754   1.062   5.576   1.665 -0.1113 -0.1619  0.2143
19447TIP3   OH279755   2.116   2.495  13.754  0.5440 -0.2243 -0.3000
19447TIP3    H179756   2.057   2.448  13.812  0.3287 -1.4337 -1.4710
19447TIP3    H279757   2.203   2.459  13.774  0.5825 -0.0560 -0.1613
19448TIP3   OH279758   5.664   4.672   5.501 -0.0679  0.3169 -0.1432
19448TIP3    H179759   5.645   4.582   5.525  0.1627 -0.3196 -2.1558
19448TIP3    H279760   5.718   4.706   5.572 -3.0945  0.0917  2.5168
19449TIP3   OH279761   4.306   4.325   3.132 -0.9157  0.5066 -0.1909
19449TIP3    H179762   4.278   4.407   3.174  1.9974  0.5113  2.1061
19449TIP3    H279763   4.286   4.257   3.197 -0.2740 -0.1235 -0.6361
19450TIP3   OH279764   5.653   1.155  14.218 -0.1230 -0.4066 -0.7995
19450TIP3    H179765   5.718   1.086  14.203 -0.7542 -1.4498  0.8842
19450TIP3    H279766   5.579   1.110  14.259 -1.7930  0.8143 -2.3002
19451TIP3   OH279767   5.688   5.025   0.657  0.0019  0.5729  0.3878
19451TIP3    H179768   5.642   4.965   0.598  1.8708 -0.2430 -0.3298
19451TIP3    H279769   5.711   5.100   0.601  0.9465  0.2277  0.2951
19452TIP3   OH279770   3.565   2.149   0.930 -0.2114 -0.9283  0.6827
19452TIP3    H179771   3.475   2.179   0.925 -0.3073 -1.3778 -0.7734
19452TIP3    H279772   3.559   2.053   0.927  0.3133 -0.9680  0.6567
19453TIP3   OH279773   6.437   1.745   4.156  0.1591 -0.2062 -0.4524
19453TIP3    H179774   6.425   1.815   4.092 -0.3405 -0.1569 -0.3116
19453TIP3    H279775   6.462   1.790   4.237 -0.7944 -0.1195 -0.1871
19454TIP3   OH279776   4.578   3.795   3.476  0.0317 -0.0455  0.2594
19454TIP3    H179777   4.571   3.786   3.381  0.0222 -0.5564  0.3041
19454TIP3    H279778   4.495   3.833   3.503  0.4888  1.2181 -0.0636
19455TIP3   OH279779   5.959   5.220  11.057  0.4113 -0.1462  0.6097
19455TIP3    H179780   6.021   5.289  11.034  1.5580 -0.6642  1.9854
19455TIP3    H279781   6.007   5.164  11.118 -1.1532 -1.0288  1.0879
19456TIP3   OH279782   6.635   1.355   5.162  0.2370  0.6726 -0.4257
19456TIP3    H179783   6.663   1.403   5.240 -0.0047 -1.3260  0.9743
19456TIP3    H279784   6.589   1.278   5.196 -0.8107  0.2639 -2.5767
19457TIP3   OH279785   5.172   0.723   0.822  0.0706 -0.0368 -0.6631
19457TIP3    H179786   5.110   0.663   0.780  1.7651 -0.6580 -2.3636
19457TIP3    H279787   5.163   0.703   0.916 -1.4579 -0.8913 -0.9456
19458TIP3   OH279788   1.674   1.353  11.458  0.2327  0.3435 -0.6492
19458TIP3    H179789   1.619   1.344  11.380 -0.4398 -1.6893  0.0109
19458TIP3    H279790   1.616   1.393  11.523 -0.9560 -2.8345  0.4032
19459TIP3   OH279791   4.432   1.305   2.156 -0.6456  0.4124 -0.0662
19459TIP3    H179792   4.462   1.235   2.214  2.0292  1.3123 -0.2117
19459TIP3    H279793   4.496   1.375   2.169 -1.9285  1.9599 -1.6131
19460TIP3   OH279794   0.510   4.505  14.720  0.2334 -0.0163  0.3618
19460TIP3    H179795   0.450   4.502  14.645 -0.2960  0.0756  0.7738
19460TIP3    H279796   0.497   4.421  14.764  0.2222  0.1032  0.5906
19461TIP3   OH279797   6.162   4.460  11.589  0.0067 -0.0551  0.4085
19461TIP3    H179798   6.212   4.512  11.527 -0.9960  1.3411  0.7384
19461TIP3    H279799   6.227   4.402  11.630  0.8894 -0.0848 -0.9811
19462TIP3   OH279800   2.868   6.084   2.636  0.0459  0.0436  0.4503
19462TIP3    H179801   2.961   6.083   2.658 -0.1817  0.1945  1.4733
19462TIP3    H279802   2.866   6.075   2.540  1.2406  3.0463  0.0366
19463TIP3   OH279803   0.570   3.112  11.102  0.2977 -0.1398 -0.0051
19463TIP3    H179804   0.620   3.054  11.044  1.0923  1.5053 -1.0285
19463TIP3    H279805   0.624   3.190  11.110 -1.3473  1.0107  0.2659
19464TIP3   OH279806   2.585   4.038   0.182 -0.1674  0.3016 -0.2209
19464TIP3    H179807   2.592   4.131   0.206  0.5194  0.3129 -0.4354
19464TIP3    H279808   2.495   4.028   0.152 -0.8321  0.4529  1.6453
19465TIP3   OH279809   2.786   5.846  13.361 -0.0135  0.2957 -0.0206
19465TIP3    H179810   2.713   5.819  13.417 -0.3474  1.3289  0.0654
19465TIP3    H279811   2.789   5.942  13.370  1.0617  0.3101 -0.3845
19466TIP3   OH279812   0.552   2.288   5.142  0.3238 -0.2760  0.3729
19466TIP3    H179813   0.573   2.248   5.057 -0.0174 -0.3824  0.3388
19466TIP3    H279814   0.578   2.221   5.206 -0.3506 -0.6055  0.3113
19467TIP3   OH279815   3.051   1.957  15.596 -0.4869  0.2574  0.3379
19467TIP3    H179816   3.090   2.020  15.535 -0.0720 -1.7586 -1.5834
19467TIP3    H279817   2.957   1.963  15.580 -0.2913 -1.8032 -2.2705
19468TIP3   OH279818   6.242   3.105  14.342  0.4968 -0.3077  0.7124
19468TIP3    H179819   6.246   3.023  14.292  0.4434 -0.1376  0.4278
19468TIP3    H279820   6.333   3.131  14.354  0.4854  0.8450 -1.2801
19469TIP3   OH279821   2.596   1.799   4.061 -0.1686  0.4508 -0.4403
19469TIP3    H179822   2.569   1.857   4.132  1.8306 -0.1972  0.9610
19469TIP3    H279823   2.617   1.858   3.988 -1.1385  1.2162 -0.1211
19470TIP3   OH279824   4.596   0.373   2.065 -0.0235 -0.1638 -0.7015
19470TIP3    H179825   4.576   0.296   2.010  0.5011  0.0988 -1.2732
19470TIP3    H279826   4.511   0.406   2.091 -0.2592 -1.0482 -0.2920
19471TIP3   OH279827   4.646   6.505  13.507  0.5581 -0.6986  0.0408
19471TIP3    H179828   4.552   6.511  13.494  0.9747  0.5546 -3.6451
19471TIP3    H279829   4.669   6.416  13.478  0.6346 -0.5647 -0.3161
19472TIP3   OH279830   5.968   5.872   6.168 -0.0173  0.2971 -0.5868
19472TIP3    H179831   5.897   5.928   6.199 -0.4788 -1.1353  1.1023
19472TIP3    H279832   5.941   5.844   6.081 -1.7867 -0.5858  0.1928
19473TIP3   OH279833   1.082   5.203  14.769 -0.0014 -0.4683  0.4289
19473TIP3    H179834   1.125   5.273  14.720  1.0592 -0.3817  1.4407
19473TIP3    H279835   1.078   5.130  14.708 -0.1042  0.1169 -0.2758
19474TIP3   OH279836   4.348   3.390  14.751  0.3876  0.7930  0.0245
19474TIP3    H179837   4.386   3.446  14.683 -2.1354  0.8798 -1.4573
19474TIP3    H279838   4.364   3.437  14.833 -0.3252  2.9730 -1.0100
19475TIP3   OH279839   1.195   0.325   1.037  0.0425  0.3110 -0.5780
19475TIP3    H179840   1.139   0.374   1.098 -0.4554 -0.9441 -0.0061
19475TIP3    H279841   1.137   0.305   0.963  0.1966  0.3975 -0.7241
19476TIP3   OH279842   5.834   0.792  15.985  0.3918 -0.2241  0.0159
19476TIP3    H179843   5.776   0.718  15.973 -0.8615  0.5765  0.9272
19476TIP3    H279844   5.787   0.867  15.949 -0.0191  0.7769  2.4447
19477TIP3   OH279845   4.761   6.660   0.920 -0.8242  0.1359 -0.1115
19477TIP3    H179846   4.691   6.599   0.944  0.2750 -1.3726 -0.6018
19477TIP3    H279847   4.717   6.727   0.867 -2.1036 -0.0929  0.6186
19478TIP3   OH279848   3.849   5.994   0.454 -0.8537 -0.9573  0.0909
19478TIP3    H179849   3.873   5.905   0.480 -0.5288 -1.2000 -0.9967
19478TIP3    H279850   3.862   5.996   0.359  1.0677  0.8235  0.3191
19479TIP3   OH279851   2.980   0.166   4.971  0.7171  0.0323  0.1895
19479TIP3    H179852   3.010   0.076   4.961 -0.3536 -0.1343 -2.7470
19479TIP3    H279853   3.040   0.217   4.917  0.6723  0.9269  0.9674
19480TIP3   OH279854   3.856   6.334  16.895  0.3114  0.2043 -0.0687
19480TIP3    H179855   3.918   6.267  16.868  1.0572  1.0187 -0.4134
19480TIP3    H279856   3.777   6.315  16.844  0.6261 -0.2028 -0.4188
19481TIP3   OH279857   3.686   1.181   4.231  0.5856 -0.2235 -0.1101
19481TIP3    H179858   3.703   1.224   4.147  3.3797  1.1476  1.0043
19481TIP3    H279859   3.645   1.249   4.284 -0.1886 -0.7455 -0.0358
19482TIP3   OH279860   6.599   4.717  15.674  0.3999  0.0333  0.3586
19482TIP3    H179861   6.585   4.812  15.676  0.8378  0.2038 -2.1171
19482TIP3    H279862   6.641   4.698  15.758  2.2110  2.3572  0.0903
19483TIP3   OH279863   3.514   2.253   2.817 -0.0508  0.1510  0.1251
19483TIP3    H179864   3.530   2.340   2.782 -0.3013 -0.1385 -0.7477
19483TIP3    H279865   3.467   2.207   2.747 -0.5394 -0.4645  0.8359
19484TIP3   OH279866   4.901   0.879   2.939  0.1302  0.2313 -0.5431
19484TIP3    H179867   4.863   0.928   2.866  1.1099 -0.8064 -1.7890
19484TIP3    H279868   4.982   0.842   2.904  1.1568  0.5120  1.3638
19485TIP3   OH279869   1.868   2.258   2.077  0.0565  0.1257  0.0434
19485TIP3    H179870   1.941   2.229   2.132 -1.8842 -1.0575  2.1355
19485TIP3    H279871   1.869   2.354   2.085  1.6156  0.1857 -0.3759
19486TIP3   OH279872   2.133   5.950  15.341 -0.2554  0.1442  0.1293
19486TIP3    H179873   2.118   6.044  15.340 -0.3984  0.1216 -1.1347
19486TIP3    H279874   2.203   5.938  15.406  0.9961  1.3230 -0.9454
19487TIP3   OH279875   1.236   2.385  16.055  0.6791  0.0447 -0.0801
19487TIP3    H179876   1.150   2.361  16.021 -0.7666  2.1275  1.8454
19487TIP3    H279877   1.253   2.321  16.124  0.1315  0.3125  0.3088
19488TIP3   OH279878   0.186   4.132  16.592 -0.0464 -0.5870  0.1571
19488TIP3    H179879   0.119   4.122  16.659  0.2692 -2.1480  0.2656
19488TIP3    H279880   0.192   4.227  16.578 -3.1192 -0.4310 -0.7312
19489TIP3   OH279881   1.737   4.451  16.806 -0.0861 -0.3816 -0.6133
19489TIP3    H179882   1.678   4.384  16.770  0.0435 -0.3476 -0.8926
19489TIP3    H279883   1.789   4.480  16.731 -0.7093  0.6281 -0.6864
19490TIP3   OH279884   2.969   2.050  13.168  0.4084  0.3019 -0.4135
19490TIP3    H179885   2.984   2.039  13.262  0.6028  0.5973 -0.4081
19490TIP3    H279886   3.055   2.070  13.132  0.2453  0.7177 -0.5778
19491TIP3   OH279887   1.671   0.528  14.017  0.6282  0.2922 -0.5761
19491TIP3    H179888   1.617   0.501  13.943 -0.3332  1.8130 -0.4840
19491TIP3    H279889   1.651   0.466  14.086  0.6261 -0.4218 -1.2065
19492TIP3   OH279890   6.207   1.614   2.148 -0.4151 -0.2924  0.3962
19492TIP3    H179891   6.179   1.543   2.206 -0.3798  0.1152  0.9087
19492TIP3    H279892   6.264   1.570   2.084 -0.7407 -0.8027  0.4493
19493TIP3   OH279893   1.073   3.512   2.589  0.8447 -0.4453 -0.0149
19493TIP3    H179894   1.124   3.510   2.508  0.5751  0.4131 -0.2167
19493TIP3    H279895   1.015   3.588   2.579 -1.1934 -1.9567 -0.2154
19494TIP3   OH279896   3.232   3.139   0.223 -0.1820  0.6750 -0.4709
19494TIP3    H179897   3.299   3.205   0.240 -0.2686  0.7913 -0.5752
19494TIP3    H279898   3.272   3.056   0.248  0.6270  0.5207 -2.1490
19495TIP3   OH279899   0.438   0.259   4.194  0.5150 -0.8785 -0.1231
19495TIP3    H179900   0.381   0.307   4.255  0.5648  1.7627 -1.9807
19495TIP3    H279901   0.519   0.246   4.243 -0.2457 -0.9944  1.1574
19496TIP3   OH279902   1.089   5.227   5.866 -0.6348  0.4565 -0.1803
19496TIP3    H179903   1.146   5.155   5.839  0.0683  0.9507 -0.0477
19496TIP3    H279904   1.123   5.304   5.819 -1.7652  0.5864 -0.8114
19497TIP3   OH279905   4.394   2.659  15.963 -0.3264 -0.0092 -0.0006
19497TIP3    H179906   4.388   2.605  16.041  1.2471 -1.0375 -0.5472
19497TIP3    H279907   4.334   2.732  15.979 -1.4593 -1.1906  1.3294
19498TIP3   OH279908   4.448   0.740  16.347 -0.6463 -0.1027 -0.2755
19498TIP3    H179909   4.508   0.721  16.275 -0.9427 -1.9689 -0.0679
19498TIP3    H279910   4.364   0.758  16.304 -0.5948 -0.2393 -0.4326
19499TIP3   OH279911   4.568   5.242  12.259 -0.0987  0.0530  0.4615
19499TIP3    H179912   4.653   5.284  12.277 -0.7420  1.0704  1.2504
19499TIP3    H279913   4.578   5.153  12.292  0.5425  0.2758  0.8995
19500TIP3   OH279914   2.362   1.764   6.664 -0.7112 -0.3921  0.0184
19500TIP3    H179915   2.381   1.842   6.613  1.3728 -0.5872  0.4096
19500TIP3    H279916   2.293   1.791   6.724 -1.4450  0.5456 -1.1999
19501TIP3   OH279917   5.690   4.434  14.139  0.0390  0.4158  0.0480
19501TIP3    H179918   5.635   4.430  14.061  2.3950 -1.0586 -1.6983
19501TIP3    H279919   5.708   4.527  14.151 -1.2949  0.7611 -0.4261
19502TIP3   OH279920   2.032   5.729  14.681 -0.5021 -0.8196 -0.6213
19502TIP3    H179921   2.069   5.642  14.671  0.8096 -0.2493 -0.9676
19502TIP3    H279922   2.020   5.740  14.775 -2.3952 -2.0223 -0.6662
19503TIP3   OH279923   3.350   6.384  16.858 -0.2986 -0.3104  0.0156
19503TIP3    H179924   3.423   6.412  16.803 -0.1077  0.4046  0.6241
19503TIP3    H279925   3.380   6.304  16.899  0.2421  0.1011  0.4427
19504TIP3   OH279926   3.180   4.798  13.611 -0.3110  0.5150  0.1744
19504TIP3    H179927   3.142   4.804  13.524 -1.9826 -2.1545  0.5938
19504TIP3    H279928   3.251   4.734  13.601 -0.8616 -0.2216  0.8304
19505TIP3   OH279929   1.260   6.399   0.391 -0.1305 -0.7040  0.5557
19505TIP3    H179930   1.253   6.393   0.295 -0.1349 -0.2768  0.5267
19505TIP3    H279931   1.240   6.311   0.422  2.1156 -1.4769  0.0471
19506TIP3   OH279932   2.444   0.457  11.601  0.2947  0.1661  0.1288
19506TIP3    H179933   2.388   0.535  11.607 -0.3285 -0.2879  0.3722
19506TIP3    H279934   2.407   0.396  11.664  1.2905 -0.0212  0.5530
19507TIP3   OH279935   2.539   3.803  13.314 -0.1630  1.0056  0.0820
19507TIP3    H179936   2.563   3.800  13.406 -0.3770  2.9006  0.2403
19507TIP3    H279937   2.565   3.891  13.285 -1.4431  0.9808 -1.2650
19508TIP3   OH279938   6.012   1.615   1.246  0.2696  0.3005  0.1637
19508TIP3    H179939   5.942   1.570   1.292  1.7024 -3.0853 -0.6695
19508TIP3    H279940   6.070   1.646   1.316  0.1259 -0.7372  0.7666
19509TIP3   OH279941   4.155   5.280   4.151 -0.4803  0.1486 -0.5138
19509TIP3    H179942   4.250   5.283   4.165 -0.7826  1.4345  1.7964
19509TIP3    H279943   4.126   5.204   4.201 -0.9398  1.4988  1.3964
19510TIP3   OH279944   5.317   3.199  16.924 -0.9292  0.2568  0.5454
19510TIP3    H179945   5.378   3.188  16.997 -0.1181  1.2967  0.0557
19510TIP3    H279946   5.262   3.273  16.950 -1.2513  0.0316  0.5034
19511TIP3   OH279947   1.380   1.707  11.999 -0.3623  0.1869 -0.2449
19511TIP3    H179948   1.422   1.765  12.062 -0.5345  1.0669 -0.9238
19511TIP3    H279949   1.367   1.625  12.047  1.5726  0.0756  0.1687
19512TIP3   OH279950   4.432   6.478  13.796 -0.8032  0.6866 -0.4226
19512TIP3    H179951   4.386   6.447  13.874  0.4807  0.6200  0.3337
19512TIP3    H279952   4.432   6.402  13.737 -0.2631  0.1645  0.2291
19513TIP3   OH279953   5.347   6.603  15.131  0.3442  0.8445  0.1035
19513TIP3    H179954   5.413   6.572  15.192  0.8254 -0.7665 -1.1332
19513TIP3    H279955   5.360   6.697  15.126  1.5441  0.7465  1.0156
19514TIP3   OH279956   3.366   0.678  13.688 -0.3394 -0.1663  0.1876
19514TIP3    H179957   3.404   0.627  13.759  1.7383  0.3365 -0.5022
19514TIP3    H279958   3.398   0.635  13.608  0.9834  1.8028 -0.4045
19515TIP3   OH279959   1.494   1.480  13.667  0.5154 -0.4030 -0.1939
19515TIP3    H179960   1.553   1.473  13.741 -1.2114  1.4322  1.5115
19515TIP3    H279961   1.551   1.496  13.591  2.2490  2.1949  1.4806
19516TIP3   OH279962   5.803   6.621  17.114 -0.5089 -0.6544 -0.5814
19516TIP3    H179963   5.867   6.686  17.141 -3.5593  2.8074 -0.9055
19516TIP3    H279964   5.839   6.538  17.145  4.0102  0.9590 -0.7775
19517TIP3   OH279965   3.279   4.150  17.122 -0.1674 -0.5683  0.1701
19517TIP3    H179966   3.256   4.227  17.070 -0.0137 -0.5983  0.0584
19517TIP3    H279967   3.373   4.156  17.134 -0.1292 -0.8383  0.0084
19518TIP3   OH279968   6.272   1.341   4.706 -0.4750 -0.0342 -0.1438
19518TIP3    H179969   6.357   1.350   4.749  0.1641 -0.9868 -1.1478
19518TIP3    H279970   6.292   1.300   4.622 -1.9571 -0.4917 -0.3022
19519TIP3   OH279971   2.283   4.142   1.866 -0.3139 -0.8118  0.1067
19519TIP3    H179972   2.234   4.084   1.808 -4.4469  1.2770  1.0850
19519TIP3    H279973   2.218   4.170   1.931  2.8057  0.7959  2.8161
19520TIP3   OH279974   0.533   6.514  12.374  0.5193  0.4949 -0.4629
19520TIP3    H179975   0.602   6.523  12.308  0.2365 -0.9194 -0.9907
19520TIP3    H279976   0.495   6.428  12.357 -0.5877  0.7522  0.5839
19521TIP3   OH279977   3.631   3.767  12.412 -0.0660  0.4787 -0.1398
19521TIP3    H179978   3.726   3.753  12.403 -0.3032 -1.2954 -0.1847
19521TIP3    H279979   3.623   3.858  12.440  1.7237  0.3711  0.8914
19522TIP3   OH279980   2.914   1.910  17.054  0.5599  0.1257 -0.0953
19522TIP3    H179981   2.834   1.874  17.092 -0.2215  0.9959 -0.8589
19522TIP3    H279982   2.953   1.962  17.124  0.5735 -0.4660  0.3414
19523TIP3   OH279983   3.591   3.599  11.200  0.3301 -0.1177 -0.1475
19523TIP3    H179984   3.568   3.650  11.277 -1.7913  0.6594 -1.2067
19523TIP3    H279985   3.625   3.663  11.138 -0.1478 -0.3304 -0.6496
19524TIP3   OH279986   0.946   6.422  11.933  0.0462 -0.2770 -0.0318
19524TIP3    H179987   0.864   6.392  11.973  0.6285 -0.6793  0.8719
19524TIP3    H279988   0.917   6.467  11.854 -1.0671 -0.2735  0.3472
19525TIP3   OH279989   6.215   6.468  16.250 -0.0848 -0.7251  0.8665
19525TIP3    H179990   6.135   6.479  16.301 -0.4530  0.0219  0.1546
19525TIP3    H279991   6.184   6.442  16.163  0.4454 -0.3194  0.5525
19526TIP3   OH279992   1.270   2.553   2.927 -0.0085 -0.0561  0.1511
19526TIP3    H179993   1.359   2.519   2.931  1.0192  2.2648 -1.4087
19526TIP3    H279994   1.239   2.531   2.840 -0.8677 -0.5434  0.5636
19527TIP3   OH279995   3.247   4.606  14.028 -0.0948  0.7831 -0.4306
19527TIP3    H179996   3.218   4.537  13.968  0.7172  1.1093 -1.2200
19527TIP3    H279997   3.234   4.568  14.115 -0.6875  0.0542 -0.8120
19528TIP3   OH279998   2.007   4.649  12.844  0.6731  0.7205 -0.5161
19528TIP3    H179999   2.069   4.706  12.890  0.9002 -0.6918  1.0447
19528TIP3    H280000   2.054   4.566  12.833 -1.0316 -0.5679  1.1897
19529TIP3   OH280001   5.182   1.289  12.827 -0.2897  0.4112  0.1352
19529TIP3    H180002   5.207   1.204  12.793  0.9307 -0.3890  2.7390
19529TIP3    H280003   5.162   1.273  12.920 -0.3708  2.8689  0.6141
19530TIP3   OH280004   5.116   0.105  14.435 -0.3293  0.4298  0.2565
19530TIP3    H180005   5.177   0.091  14.507 -0.7685 -0.3933  0.4897
19530TIP3    H280006   5.053   0.169  14.468 -1.2784 -0.8892  1.1096
19531TIP3   OH280007   0.521   2.651   0.822  0.0341 -0.1938  0.7477
19531TIP3    H180008   0.493   2.581   0.881  0.1247  0.9426  2.1965
19531TIP3    H280009   0.610   2.673   0.851  0.1802  0.2265  0.0232
19532TIP3   OH280010   1.623   1.844   3.072 -0.0274  0.4941 -0.0878
19532TIP3    H180011   1.612   1.937   3.052 -0.6040  0.0504 -2.0259
19532TIP3    H280012   1.538   1.804   3.052 -0.4873 -0.1805  2.7609
19533TIP3   OH280013   4.074   2.642   5.359 -0.2360  0.4429  0.1558
19533TIP3    H180014   4.076   2.716   5.419  0.1267 -0.7389  1.6829
19533TIP3    H280015   4.069   2.681   5.272 -0.2389  2.2322  0.9163
19534TIP3   OH280016   6.717   0.405   4.647  0.3481  0.3631 -0.0483
19534TIP3    H180017   6.796   0.355   4.663 -0.5341 -0.6748  1.2832
19534TIP3    H280018   6.656   0.342   4.608 -0.4117  0.6585  0.6206
19535TIP3   OH280019   0.862   4.250   5.671  0.3520 -0.2611  0.4472
19535TIP3    H180020   0.897   4.338   5.657 -3.4866  1.8337  2.2716
19535TIP3    H280021   0.875   4.205   5.588  0.4269  2.8722 -1.4062
19536TIP3   OH280022   2.182   0.895   5.796 -0.1175 -0.2675  0.6754
19536TIP3    H180023   2.132   0.828   5.842 -1.2048 -0.5934 -0.8858
19536TIP3    H280024   2.116   0.955   5.762  0.4972 -0.6446 -1.3683
19537TIP3   OH280025   2.365   4.418   4.449 -0.5729 -0.0775 -0.6235
19537TIP3    H180026   2.321   4.498   4.420 -2.0100 -0.5361  0.2162
19537TIP3    H280027   2.453   4.447   4.474 -0.6663  1.0160 -1.4674
19538TIP3   OH280028   6.490   4.234   2.488 -0.0167 -0.0923  0.2753
19538TIP3    H180029   6.423   4.236   2.420 -0.2705 -0.1600  0.5218
19538TIP3    H280030   6.494   4.142   2.514 -0.1913 -0.0029  0.6191
19539TIP3   OH280031   3.089   6.025  14.174 -0.1130  0.0651  0.3538
19539TIP3    H180032   2.994   6.018  14.169 -0.4560  2.9521  0.7720
19539TIP3    H280033   3.111   5.996  14.263 -0.6777 -0.1323  0.4283
19540TIP3   OH280034   4.736   4.526  13.660  0.1908  0.1293 -0.1340
19540TIP3    H180035   4.740   4.608  13.610  2.9054  1.7936  2.4690
19540TIP3    H280036   4.651   4.529  13.703 -0.6517  0.4583 -1.7434
19541TIP3   OH280037   1.128   1.049  12.795 -0.3427  0.1215 -0.4417
19541TIP3    H180038   1.175   1.032  12.713 -0.4949 -0.6188 -0.3865
19541TIP3    H280039   1.046   1.000  12.786  0.2266 -1.1132  0.7051
19542TIP3   OH280040   5.010   4.680  11.482 -0.2124 -0.3023  0.2589
19542TIP3    H180041   4.930   4.681  11.534  0.7225 -0.6833  1.7519
19542TIP3    H280042   5.071   4.626  11.532  2.0464  2.5284  0.8150
19543TIP3   OH280043   4.533   3.771  11.336  0.0487 -0.1000 -0.0142
19543TIP3    H180044   4.443   3.795  11.361  0.2092 -1.1004  1.6753
19543TIP3    H280045   4.545   3.810  11.250 -2.1729 -0.3153 -0.4793
19544TIP3   OH280046   3.580   3.387   4.547 -0.5383 -0.1241 -0.0486
19544TIP3    H180047   3.640   3.433   4.488 -1.1528  1.6707  0.6607
19544TIP3    H280048   3.507   3.360   4.492 -0.2105 -0.1792 -0.4611
19545TIP3   OH280049   0.606   2.245   0.463  0.2097  0.0594 -1.0633
19545TIP3    H180050   0.563   2.172   0.508  1.2811 -0.6304 -1.1386
19545TIP3    H280051   0.609   2.314   0.528  0.3292 -0.3925 -0.5798
19546TIP3   OH280052   1.501   1.207  12.529 -0.4934  0.1706 -0.2231
19546TIP3    H180053   1.456   1.271  12.585  0.7849  0.1670  0.8531
19546TIP3    H280054   1.452   1.126  12.542 -0.7527  0.3874  0.2040
19547TIP3   OH280055   1.167   4.193   3.101 -0.4242 -0.1765  0.2199
19547TIP3    H180056   1.120   4.275   3.086 -1.2702 -0.6282  0.3462
19547TIP3    H280057   1.099   4.125   3.096  0.0347 -0.7557  1.3925
19548TIP3   OH280058   0.442   5.192  13.992  0.0141  0.0255  0.1754
19548TIP3    H180059   0.381   5.231  14.054 -1.9351 -0.5135 -1.3328
19548TIP3    H280060   0.465   5.108  14.032 -1.3571 -0.3968  0.1254
19549TIP3   OH280061   2.854   0.492   0.011 -0.0798 -0.0356 -0.2172
19549TIP3    H180062   2.921   0.541   0.059 -2.3587  2.3895  0.8131
19549TIP3    H280063   2.804   0.447   0.079 -1.2479  0.6463 -0.5783
19550TIP3   OH280064   1.199   4.001   4.760  0.2637  0.4203  0.5110
19550TIP3    H180065   1.136   4.062   4.798 -0.9671 -0.6093  0.2205
19550TIP3    H280066   1.204   4.026   4.667 -0.3533  0.0032  0.3603
19551TIP3   OH280067   3.738   2.384  10.733 -0.4776  0.5081 -0.0326
19551TIP3    H180068   3.716   2.477  10.738  0.8088  0.8019  0.3691
19551TIP3    H280069   3.809   2.379  10.670  0.0945 -0.0799  0.6476
19552TIP3   OH280070   5.308   0.424  13.955  0.5681 -0.2135 -0.0875
19552TIP3    H180071   5.299   0.370  13.877 -2.7364 -0.8235  0.5868
19552TIP3    H280072   5.308   0.362  14.028  0.1370  0.5155  0.5518
19553TIP3   OH280073   5.757   3.775   4.517 -0.5797  0.3452  0.0253
19553TIP3    H180074   5.705   3.695   4.520 -0.3260  0.1977  0.6169
19553TIP3    H280075   5.778   3.786   4.425 -0.4119 -0.4014 -0.0314
19554TIP3   OH280076   1.309   1.688  13.989  0.0218 -0.1290  0.2137
19554TIP3    H180077   1.239   1.752  14.001 -1.4230 -1.5477 -0.3105
19554TIP3    H280078   1.317   1.679  13.894 -0.1079 -1.0214  0.2742
19555TIP3   OH280079   3.167   2.586   4.986  0.4543 -0.7553 -0.3357
19555TIP3    H180080   3.134   2.549   5.068 -1.9304  1.9140  0.0851
19555TIP3    H280081   3.252   2.622   5.009  0.4218 -1.2454  0.6119
19556TIP3   OH280082   4.530   0.056   2.649 -0.0861 -0.1734  0.1207
19556TIP3    H180083   4.579   0.103   2.717  0.8408 -1.0579  0.0960
19556TIP3    H280084   4.590   0.055   2.574  0.2253 -1.9753  0.3501
19557TIP3   OH280085   3.498   3.389   3.153  0.1751 -0.4707 -0.2184
19557TIP3    H180086   3.414   3.366   3.191 -0.1784 -0.6604 -1.0859
19557TIP3    H280087   3.556   3.402   3.228 -0.9846  1.1161  0.4608
19558TIP3   OH280088   1.317   5.735   5.233 -0.0215  0.3227  0.7752
19558TIP3    H180089   1.310   5.721   5.327  1.0318 -1.0972  0.6715
19558TIP3    H280090   1.330   5.648   5.196  3.1633  1.0985 -0.2913
19559TIP3   OH280091   3.996   2.136  14.871  0.3038 -0.0295 -0.9616
19559TIP3    H180092   4.023   2.081  14.944  1.3288  0.4436 -0.9601
19559TIP3    H280093   4.018   2.086  14.793 -0.2553 -0.2895 -0.9591
19560TIP3   OH280094   5.128   1.628   4.477 -0.2159 -0.3858 -0.5360
19560TIP3    H180095   5.140   1.709   4.428 -0.1710  0.3462  0.6503
19560TIP3    H280096   5.188   1.636   4.551  0.2773 -1.8024 -0.7523
19561TIP3   OH280097   6.167   5.210  16.320  0.4373 -0.2137  0.1947
19561TIP3    H180098   6.092   5.151  16.328  0.5786 -0.5878 -0.9355
19561TIP3    H280099   6.130   5.298  16.326  0.1032 -0.4007  1.0066
19562TIP3   OH280100   3.336   5.104  11.901  0.1387 -0.1845  0.1107
19562TIP3    H180101   3.310   5.188  11.863  0.3598  0.0867  0.5489
19562TIP3    H280102   3.254   5.054  11.907  0.0752 -0.1725 -0.5623
19563TIP3   OH280103   0.496   2.528   2.831 -0.4760  0.3818 -0.7354
19563TIP3    H180104   0.464   2.531   2.741 -0.8402 -0.2906 -0.6313
19563TIP3    H280105   0.476   2.615   2.866  0.9022  1.1326 -1.7057
19564TIP3   OH280106   0.605   6.026   4.731  0.0822  0.6129 -0.2217
19564TIP3    H180107   0.578   6.102   4.679 -1.0783  1.0657  1.0016
19564TIP3    H280108   0.668   6.060   4.794 -0.3867  0.5584  0.2834
19565TIP3   OH280109   0.712   4.697   0.359 -0.0568 -0.4966  0.3901
19565TIP3    H180110   0.743   4.786   0.376 -0.7385 -0.4677  1.6121
19565TIP3    H280111   0.618   4.706   0.347 -0.0483 -0.9873 -0.1139
19566TIP3   OH280112   5.321   0.967   5.161 -0.1564 -0.0557 -0.6168
19566TIP3    H180113   5.315   0.878   5.127  0.2509 -0.1702 -0.3968
19566TIP3    H280114   5.337   0.956   5.255 -0.9102  0.2562 -0.4514
19567TIP3   OH280115   4.080   4.907   0.648  0.2721 -0.7197  0.1426
19567TIP3    H180116   4.070   4.913   0.743  1.9860 -3.5983  0.6169
19567TIP3    H280117   3.999   4.867   0.618 -0.3239  0.3058  0.3414
19568TIP3   OH280118   4.066   1.636  15.660 -0.5528 -0.1666  0.2392
19568TIP3    H180119   4.002   1.565  15.663  0.7976 -1.4024  1.0409
19568TIP3    H280120   4.129   1.609  15.594 -0.0775  0.3270  0.4827
19569TIP3   OH280121   1.670   2.860   2.850  0.5346 -0.6827 -0.6697
19569TIP3    H180122   1.577   2.836   2.852  1.2461 -4.1114 -1.3368
19569TIP3    H280123   1.694   2.870   2.942 -0.5906  0.8357 -0.5202
19570TIP3   OH280124   0.991   2.953  13.130  0.6392 -0.1338 -0.0499
19570TIP3    H180125   0.916   2.910  13.171  2.0428 -1.9148  0.7914
19570TIP3    H280126   0.965   3.045  13.121 -1.0947 -0.4281  1.5068
19571TIP3   OH280127   1.427   4.186   2.389 -0.1995  0.3612 -0.1238
19571TIP3    H180128   1.377   4.211   2.466 -0.8331 -0.3197 -0.3054
19571TIP3    H280129   1.441   4.267   2.341 -1.9052  0.4456 -0.5252
19572TIP3   OH280130   2.980   2.522   2.183 -0.4790  0.1058  0.4427
19572TIP3    H180131   2.936   2.527   2.098 -1.1892 -0.0517  0.7864
19572TIP3    H280132   2.940   2.591   2.235 -0.0799  0.1757  0.6619
19573TIP3   OH280133   4.628   1.509   2.212  0.3833 -0.2147 -0.0836
19573TIP3    H180134   4.564   1.574   2.239 -1.1478 -1.4163 -0.6798
19573TIP3    H280135   4.659   1.471   2.294 -2.4079 -2.1320  0.2324
19574TIP3   OH280136   3.226   4.159   3.271  0.0885 -0.1780  0.0228
19574TIP3    H180137   3.188   4.093   3.329 -0.7446 -0.6577 -1.0160
19574TIP3    H280138   3.320   4.140   3.271 -0.1511 -1.4536 -0.3298
19575TIP3   OH280139   2.414   5.061   0.440  0.0385 -0.0455 -0.2240
19575TIP3    H180140   2.358   5.097   0.508 -0.2146 -1.0752  0.1230
19575TIP3    H280141   2.384   5.103   0.359  0.4840  1.3392  0.3036
19576TIP3   OH280142   4.013   1.396   1.858 -0.4454  0.0512 -0.2269
19576TIP3    H180143   4.052   1.478   1.889  0.6909 -0.6422  0.2280
19576TIP3    H280144   4.007   1.407   1.763  1.4291 -0.0350 -0.3938
19577TIP3   OH280145   1.493   2.487   5.900 -0.6821 -0.3733  0.8572
19577TIP3    H180146   1.521   2.554   5.837  1.2582 -1.3161  0.6236
19577TIP3    H280147   1.403   2.466   5.875  0.0805 -0.8514 -1.7840
19578TIP3   OH280148   2.389   2.895  13.707  0.0873  0.1321  0.3126
19578TIP3    H180149   2.417   2.923  13.794  1.0083  1.4066 -0.3495
19578TIP3    H280150   2.420   2.805  13.699  2.2314  0.7922  0.4172
19579TIP3   OH280151   0.156   5.063  12.594  0.4888  0.2237  0.1303
19579TIP3    H180152   0.194   5.122  12.660  0.2923  1.4662 -0.8340
19579TIP3    H280153   0.230   5.009  12.565  0.6346 -0.1438  1.1546
19580TIP3   OH280154   5.832   1.710  14.528 -0.0215  0.2387 -0.4972
19580TIP3    H180155   5.865   1.791  14.566  0.8827 -0.3417 -0.0132
19580TIP3    H280156   5.894   1.690  14.458  0.5027 -0.6871  0.2058
19581TIP3   OH280157   0.907   3.726   2.527  0.2320 -0.8133 -0.2976
19581TIP3    H180158   0.924   3.820   2.516 -0.0283 -0.7572 -0.2202
19581TIP3    H280159   0.812   3.718   2.526  0.2130 -1.4565 -3.4422
19582TIP3   OH280160   2.187   0.849   0.033  0.1285  0.4553  0.0661
19582TIP3    H180161   2.260   0.809  -0.014 -1.4672  0.5775 -2.7406
19582TIP3    H280162   2.216   0.937   0.053  0.4755  0.8373 -1.9099
19583TIP3   OH280163   6.641   4.860  12.444 -0.0922  0.0073 -0.0149
19583TIP3    H180164   6.567   4.803  12.466  0.4021 -0.5462  0.2378
19583TIP3    H280165   6.617   4.898  12.359 -0.3106 -0.7901 -0.3262
19584TIP3   OH280166   2.538   6.611   2.567  0.6985 -0.1207  0.6386
19584TIP3    H180167   2.606   6.559   2.610 -0.8944 -2.2360  0.7475
19584TIP3    H280168   2.462   6.554   2.564 -1.1841  2.2170  0.6755
19585TIP3   OH280169   4.632   1.680   2.828 -0.0003  0.3118 -0.1355
19585TIP3    H180170   4.646   1.773   2.812 -0.1812  0.1654 -1.2951
19585TIP3    H280171   4.623   1.642   2.740 -0.3415 -0.7298  0.3284
19586TIP3   OH280172   3.460   1.940   5.443 -0.1202 -0.0658 -0.8437
19586TIP3    H180173   3.410   2.003   5.495 -1.3781 -0.0983 -1.9443
19586TIP3    H280174   3.551   1.968   5.452 -0.4986  0.9821 -0.0812
19587TIP3   OH280175   1.756   3.980  14.504  0.1417 -0.0353  0.2112
19587TIP3    H180176   1.840   3.943  14.477  0.2866 -1.7654  2.6791
19587TIP3    H280177   1.694   3.908  14.493 -0.2202 -0.0581  2.0692
19588TIP3   OH280178   2.938   0.901   0.101 -0.6684  0.5764 -0.0503
19588TIP3    H180179   2.870   0.909   0.168 -0.6547  0.1274  0.0234
19588TIP3    H280180   2.910   0.827   0.047 -1.1227  1.4597 -1.0644
19589TIP3   OH280181   0.315   6.325  13.429 -0.5913 -1.0453  0.7808
19589TIP3    H180182   0.223   6.327  13.456 -0.7916 -0.2313  0.0932
19589TIP3    H280183   0.351   6.407  13.463  0.1337 -1.7686  1.8341
19590TIP3   OH280184   2.778   1.034   0.692  0.4897 -0.1931  0.3656
19590TIP3    H180185   2.797   0.967   0.757 -1.6047  0.3943  1.6968
19590TIP3    H280186   2.790   1.117   0.738 -0.0662  0.2617 -0.2786
19591TIP3   OH280187   1.019   3.992  17.130  0.0451 -0.8407  0.1927
19591TIP3    H180188   1.112   3.989  17.154  0.1029  0.5240  0.2209
19591TIP3    H280189   1.016   4.049  17.053 -0.6775 -1.5522 -0.3192
19592TIP3   OH280190   6.472   2.574  12.254  0.2582  0.4708  0.3331
19592TIP3    H180191   6.567   2.585  12.265  0.3315  0.3879 -0.1828
19592TIP3    H280192   6.456   2.483  12.279  0.3818  0.3577  0.0025
19593TIP3   OH280193   1.630   0.037  16.937  0.7797 -0.1654 -0.4569
19593TIP3    H180194   1.611   0.032  17.031  0.9922 -1.8857 -0.4745
19593TIP3    H280195   1.611   0.128  16.914  0.6396  0.2766  1.2279
19594TIP3   OH280196   1.693   6.724  16.419  0.1484 -0.2360  0.3585
19594TIP3    H180197   1.632   6.650  16.418 -0.4955  0.2587  1.2053
19594TIP3    H280198   1.720   6.731  16.511  1.4028 -0.3772  0.0064
19595TIP3   OH280199   4.900   4.179  15.032 -0.1268 -0.3537 -0.3044
19595TIP3    H180200   4.909   4.268  14.998 -0.8980  0.0571  0.5377
19595TIP3    H280201   4.983   4.163  15.078 -0.7121  0.6723  1.1842
19596TIP3   OH280202   4.002   1.310   0.136  0.8623  0.0710  0.2792
19596TIP3    H180203   3.908   1.315   0.119  0.7953 -0.3686  0.4929
19596TIP3    H280204   4.029   1.228   0.095  0.9357 -0.3603  1.1550
19597TIP3   OH280205   6.239   1.416   1.441  0.0760 -0.3211  0.3002
19597TIP3    H180206   6.287   1.420   1.359  0.5728 -0.5015  0.5806
19597TIP3    H280207   6.192   1.333   1.438  0.4888 -0.5638  0.4102
19598TIP3   OH280208   5.794   0.419   5.093 -0.5931 -0.2751 -0.0865
19598TIP3    H180209   5.756   0.488   5.147 -0.1942 -0.2677  0.1896
19598TIP3    H280210   5.880   0.452   5.069 -1.0691  0.0697 -1.4021
19599TIP3   OH280211   5.296   6.155  12.283 -0.5437 -0.4103 -0.0376
19599TIP3    H180212   5.287   6.094  12.356  1.8206 -0.3396  0.3981
19599TIP3    H280213   5.227   6.130  12.222 -0.6340 -2.5154  0.8368
19600TIP3   OH280214   5.263   0.634  15.294 -0.2739 -0.2876 -0.1748
19600TIP3    H180215   5.264   0.719  15.249 -0.7788 -0.8195 -1.2213
19600TIP3    H280216   5.245   0.656  15.385 -1.4744  0.6640 -0.6109
19601TIP3   OH280217   5.060   0.061  15.567  0.0804 -0.3856 -0.0518
19601TIP3    H180218   5.050  -0.009  15.632  0.2855  0.9037  1.4379
19601TIP3    H280219   5.152   0.084  15.571 -0.1696  0.6182  0.2194
19602TIP3   OH280220   2.099   2.227   4.499  0.3783  0.8543 -0.4272
19602TIP3    H180221   2.178   2.203   4.547  0.0802  1.4063  0.3564
19602TIP3    H280222   2.029   2.217   4.562 -0.1212  0.8632 -0.9724
19603TIP3   OH280223   0.991   6.293  17.155 -0.0185  0.2650 -0.3937
19603TIP3    H180224   0.979   6.378  17.198  1.3116  1.2352 -1.8324
19603TIP3    H280225   0.902   6.260  17.142 -0.5897  1.7064 -0.3379
19604TIP3   OH280226   5.525   3.452   2.322 -0.4501  0.3191  0.4614
19604TIP3    H180227   5.583   3.526   2.305  0.6677 -1.0158 -2.0657
19604TIP3    H280228   5.438   3.484   2.300  0.1224  0.6924 -1.3625
19605TIP3   OH280229   6.121   2.065   0.558 -0.0175 -0.5111 -0.5068
19605TIP3    H180230   6.180   2.032   0.490  1.2643 -0.3126  0.4801
19605TIP3    H280231   6.068   1.989   0.583  0.2899 -0.8663 -0.9176
19606TIP3   OH280232   3.834   1.120   5.913 -0.0328  0.1800 -0.3899
19606TIP3    H180233   3.901   1.155   5.854  0.1555 -0.2968 -0.4682
19606TIP3    H280234   3.883   1.091   5.990 -0.1722  0.0312 -0.3557
19607TIP3   OH280235   4.456   0.209  13.779  0.4836 -0.1355  0.7860
19607TIP3    H180236   4.474   0.302  13.770  0.9020 -0.3870 -1.6428
19607TIP3    H280237   4.505   0.168  13.708 -0.9097 -2.0440  0.8389
19608TIP3   OH280238   4.546   0.876   1.262  0.4872 -0.1042  0.1022
19608TIP3    H180239   4.603   0.799   1.258 -1.0869 -1.4293  1.3432
19608TIP3    H280240   4.496   0.863   1.342  0.2342  2.3097  0.3841
19609TIP3   OH280241   5.304   6.215   1.551 -0.1245 -0.1168 -0.1562
19609TIP3    H180242   5.319   6.279   1.620 -0.1247 -0.3216  0.0357
19609TIP3    H280243   5.276   6.267   1.476  2.2121  0.3644 -0.7766
19610TIP3   OH280244   5.956   0.809  15.399 -0.2664  0.3581 -0.3368
19610TIP3    H180245   5.979   0.901  15.412  0.4167  0.3608 -1.4511
19610TIP3    H280246   5.945   0.800  15.304  1.3052 -1.0476 -0.4434
19611TIP3   OH280247   1.919   0.570  15.073 -0.4976  0.9037  0.5855
19611TIP3    H180248   1.985   0.519  15.026 -0.4475 -0.3102  1.9014
19611TIP3    H280249   1.967   0.644  15.110  0.0093  0.4076  0.9497
19612TIP3   OH280250   2.448   4.279  12.576 -0.4158 -0.2540 -0.1540
19612TIP3    H180251   2.362   4.248  12.605 -1.0036  1.1745 -0.3028
19612TIP3    H280252   2.437   4.296  12.482 -0.2276  0.7349 -0.0080
19613TIP3   OH280253   3.362   0.542  13.243  0.5646 -0.0596 -0.2423
19613TIP3    H180254   3.455   0.562  13.243  0.4344  0.5534  0.1231
19613TIP3    H280255   3.334   0.556  13.153  0.7516  0.0848 -0.2768
19614TIP3   OH280256   4.931   5.418  11.788  0.3969 -0.3515 -0.7470
19614TIP3    H180257   4.995   5.486  11.810 -0.2385  0.1562 -0.4363
19614TIP3    H280258   4.846   5.463  11.791 -0.1745 -1.4512  0.7864
19615TIP3   OH280259   3.086   4.057   0.866 -0.0830  0.0382 -0.1201
19615TIP3    H180260   3.038   4.119   0.922 -1.6513 -1.8749  0.8231
19615TIP3    H280261   3.074   4.090   0.777 -0.4710  1.3333  0.3916
19616TIP3   OH280262   5.986   2.343   4.922  0.1055 -0.5479  0.6172
19616TIP3    H180263   6.026   2.325   4.837 -1.4160 -0.2270 -0.1964
19616TIP3    H280264   5.893   2.354   4.903  0.0404  1.7825  2.0019
19617TIP3   OH280265   2.120   5.695   0.868 -0.0073 -0.3269  0.1067
19617TIP3    H180266   2.111   5.606   0.902  0.1434 -0.0308  0.9446
19617TIP3    H280267   2.051   5.744   0.913  0.1425  0.0534 -0.0825
19618TIP3   OH280268   1.736   1.156   0.675 -0.0464 -0.4755 -0.1170
19618TIP3    H180269   1.766   1.206   0.751  0.0433 -0.6157 -0.0612
19618TIP3    H280270   1.808   1.098   0.654 -0.7065 -1.6600  0.7475
19619TIP3   OH280271   2.140   6.732   2.587  0.6520  0.2564 -0.1477
19619TIP3    H180272   2.086   6.765   2.659  0.1687  0.6826 -0.6991
19619TIP3    H280273   2.082   6.675   2.537  1.5299 -1.6900  0.9115
19620TIP3   OH280274   2.217   0.116  17.069 -0.1775 -0.2591 -0.0235
19620TIP3    H180275   2.260   0.190  17.027 -0.2733 -0.3360 -0.2591
19620TIP3    H280276   2.285   0.048  17.071 -0.2628 -0.3586 -0.3367
19621TIP3   OH280277   5.048   3.135   2.901  0.0625  0.7600 -0.0507
19621TIP3    H180278   5.095   3.145   2.984  1.7316  0.8219 -0.9660
19621TIP3    H280279   4.966   3.183   2.914  0.1355  0.4822  1.6639
19622TIP3   OH280280   1.885   3.347   4.819 -0.1024  0.4759  0.4329
19622TIP3    H180281   1.911   3.416   4.880  1.2141 -0.1990  0.6596
19622TIP3    H280282   1.833   3.287   4.872 -1.3845  1.3376  0.2002
19623TIP3   OH280283   4.513   5.592  13.233 -0.4396 -0.0312 -0.1958
19623TIP3    H180284   4.441   5.548  13.278 -0.7228  0.0902 -0.5271
19623TIP3    H280285   4.509   5.683  13.263  0.0945 -0.2005  0.4255
19624TIP3   OH280286   1.939   1.604   4.514 -0.1499 -0.3847 -0.1646
19624TIP3    H180287   1.913   1.545   4.443  1.0389  0.8472 -1.6989
19624TIP3    H280288   2.035   1.600   4.514  0.0410  2.1580 -0.9572
19625TIP3   OH280289   0.501   2.888  14.724  0.1639 -0.8426  0.3981
19625TIP3    H180290   0.592   2.862  14.711  0.1116  0.0113 -2.0851
19625TIP3    H280291   0.484   2.871  14.817  3.1323 -0.1324  1.1655
19626TIP3   OH280292   0.038   2.077   2.336  0.5915  0.4511  0.1514
19626TIP3    H180293   0.000   1.990   2.346 -0.2723  0.9324  1.4145
19626TIP3    H280294  -0.001   2.112   2.256 -1.1956  0.6890  1.0852
19627TIP3   OH280295   5.848   3.419   0.695  0.0572  0.0662 -0.6104
19627TIP3    H180296   5.822   3.372   0.616  1.0875  0.0197 -0.9289
19627TIP3    H280297   5.798   3.376   0.765 -1.5642  0.6971 -1.3227
19628TIP3   OH280298   3.121   0.452  12.786 -0.4574  0.5007 -0.4521
19628TIP3    H180299   3.071   0.489  12.713 -2.0143 -1.8010 -0.6398
19628TIP3    H280300   3.055   0.435  12.853  0.6923  0.9163  0.8231
19629TIP3   OH280301   5.062   5.727  12.570 -0.2703 -0.0460 -0.9141
19629TIP3    H180302   4.971   5.751  12.582 -0.3886 -0.2051 -1.4514
19629TIP3    H280303   5.084   5.675  12.648 -0.4795  0.4391 -0.5302
19630TIP3   OH280304   0.469   0.392   2.775 -0.2888 -0.2012 -0.2476
19630TIP3    H180305   0.527   0.330   2.819  0.2433  1.1656  1.0943
19630TIP3    H280306   0.525   0.437   2.712  0.1446  0.9822  0.9130
19631TIP3   OH280307   0.983   6.181   6.390 -0.0290 -0.2879  0.0508
19631TIP3    H180308   0.984   6.157   6.483  0.8545  1.3912  0.5144
19631TIP3    H280309   1.061   6.141   6.353  1.5169  1.8096  0.8508
19632TIP3   OH280310   1.389   6.496  12.992  0.4268  0.2680 -0.0833
19632TIP3    H180311   1.411   6.416  13.040 -0.0067  0.1016 -0.1642
19632TIP3    H280312   1.468   6.550  12.999 -0.2033  1.0012  2.3277
19633TIP3   OH280313   5.101   2.347   5.796  0.2796  0.7843  0.5456
19633TIP3    H180314   5.163   2.367   5.727  3.4759 -2.1062  2.2950
19633TIP3    H280315   5.058   2.266   5.768 -0.6435  1.2022  0.6834
19634TIP3   OH280316   5.218   5.098  12.235  0.1906 -0.1678 -0.0644
19634TIP3    H180317   5.275   5.142  12.298  1.0309 -0.0901 -0.8683
19634TIP3    H280318   5.278   5.060  12.171 -0.5614 -1.6504  0.0723
19635TIP3   OH280319   5.284   1.256  13.369 -0.0686 -0.7200  0.1195
19635TIP3    H180320   5.256   1.335  13.416 -0.0657  0.7365 -2.1609
19635TIP3    H280321   5.368   1.281  13.329 -1.2616 -0.9253 -2.7087
19636TIP3   OH280322   3.592   0.871  14.939  0.8593  0.0478  0.1461
19636TIP3    H180323   3.592   0.954  14.987 -1.2378  0.0127  0.2979
19636TIP3    H280324   3.647   0.813  14.991  1.9635  1.1840  0.2926
19637TIP3   OH280325   2.029   6.787  14.219  0.1336  0.0824  0.1814
19637TIP3    H180326   2.056   6.696  14.232  0.4504  0.4404  2.4059
19637TIP3    H280327   2.030   6.799  14.124  3.6645 -1.1745 -0.0712
19638TIP3   OH280328   0.273   2.516   4.524 -0.6478  0.1877 -0.3181
19638TIP3    H180329   0.270   2.489   4.616  0.5636 -0.7579 -0.5222
19638TIP3    H280330   0.183   2.540   4.503 -1.0764 -0.2491  0.9208
19639TIP3   OH280331   1.656   2.681   3.642  0.3293  0.4264 -0.0205
19639TIP3    H180332   1.688   2.612   3.584 -0.9424 -0.7955  0.6731
19639TIP3    H280333   1.713   2.677   3.718  0.5556  0.4649 -0.1879
19640TIP3   OH280334   0.061   2.197  16.228 -0.1191  0.2465 -0.5876
19640TIP3    H180335  -0.027   2.175  16.194 -1.0670  1.2089  1.1251
19640TIP3    H280336   0.048   2.208  16.322  2.0189 -0.2947 -0.1867
19641TIP3   OH280337   6.486   2.424   3.574 -0.2124  0.0050  0.1170
19641TIP3    H180338   6.544   2.403   3.501  2.0867 -0.7529  2.0328
19641TIP3    H280339   6.413   2.363   3.565  0.5169 -0.7307 -1.0027
19642TIP3   OH280340   5.063   0.195   1.775 -0.3760 -0.3221 -0.1099
19642TIP3    H180341   5.036   0.243   1.853 -0.9520 -1.0729  0.1703
19642TIP3    H280342   5.043   0.253   1.702  3.3847  1.9502  0.3579
19643TIP3   OH280343   5.966   5.743   3.500  0.0294 -0.6425  0.1726
19643TIP3    H180344   5.951   5.659   3.543  1.0176 -0.5400  0.7557
19643TIP3    H280345   5.884   5.790   3.510 -0.1640 -1.1060  0.8498
19644TIP3   OH280346   4.149   2.817  14.212  0.6239  0.1865 -0.0534
19644TIP3    H180347   4.066   2.784  14.247  1.0571  0.5693  1.3992
19644TIP3    H280348   4.124   2.865  14.133 -0.4432 -0.3837 -0.0779
19645TIP3   OH280349   5.680   1.891  10.658 -0.2760  0.0013 -0.2818
19645TIP3    H180350   5.686   1.950  10.583  0.8670  0.5041  0.1774
19645TIP3    H280351   5.596   1.912  10.699 -0.2507  0.7326 -0.5906
19646TIP3   OH280352   0.196   0.534  10.992 -0.1709 -0.3532 -0.1553
19646TIP3    H180353   0.107   0.505  10.971 -0.9078  2.1572 -0.7984
19646TIP3    H280354   0.241   0.538  10.908  0.5013 -1.3497  0.1361
19647TIP3   OH280355   4.197   0.332  15.948 -0.2546 -0.2502  0.3181
19647TIP3    H180356   4.245   0.402  15.992  0.9296 -1.7036  1.4488
19647TIP3    H280357   4.238   0.325  15.861 -0.5383  0.5879  0.1120
19648TIP3   OH280358   4.318   0.505  12.130  0.2439 -0.4899 -0.0514
19648TIP3    H180359   4.222   0.514  12.131  0.2121 -0.8296 -0.1247
19648TIP3    H280360   4.347   0.568  12.064  0.1437  0.2982  0.6356
19649TIP3   OH280361   2.547   1.450  10.506 -0.0935  0.0438 -0.2439
19649TIP3    H180362   2.546   1.362  10.470 -2.4467  0.2513 -0.8753
19649TIP3    H280363   2.489   1.500  10.449  0.9323  1.9435  0.2863
19650TIP3   OH280364   1.107   1.866  10.446  0.7221  0.1557  0.1263
19650TIP3    H180365   1.125   1.889  10.537 -0.5411  0.3261  0.3430
19650TIP3    H280366   1.031   1.918  10.422  0.9502 -0.0011 -0.9899
19651TIP3   OH280367   1.889   2.286   3.045 -0.7347 -0.8131 -0.5474
19651TIP3    H180368   1.929   2.256   2.963  2.3560 -0.3097  0.6365
19651TIP3    H280369   1.905   2.380   3.045  1.2752 -1.0759  1.5022
19652TIP3   OH280370   2.876   4.327  10.824 -0.3837 -0.3092  0.1838
19652TIP3    H180371   2.836   4.248  10.790 -0.0440 -0.5765  0.4017
19652TIP3    H280372   2.970   4.317  10.806 -0.4690  0.5977 -0.9167
19653TIP3   OH280373   3.666   2.795   4.675 -0.3789  0.5662  0.1257
19653TIP3    H180374   3.670   2.826   4.765  2.3072 -1.0000  0.6637
19653TIP3    H280375   3.595   2.731   4.674 -2.5535  2.8291  0.2449
19654TIP3   OH280376   6.170   5.195  12.910  0.1242  0.1576  0.3249
19654TIP3    H180377   6.175   5.128  12.978  0.9925  0.7573  0.8800
19654TIP3    H280378   6.088   5.177  12.864  0.2042 -1.1031  0.6380
19655TIP3   OH280379   0.380   6.497  13.806  0.4987 -0.2820 -0.2632
19655TIP3    H180380   0.460   6.540  13.835  0.6203  0.3048 -1.4089
19655TIP3    H280381   0.332   6.478  13.886  1.5404 -0.1618  0.3995
19656TIP3   OH280382   0.957   2.387  15.940 -0.3048  0.2629 -0.2637
19656TIP3    H180383   0.943   2.479  15.917 -0.1421  0.2191 -0.5524
19656TIP3    H280384   0.900   2.372  16.015 -0.1065  0.6807 -0.0209
19657TIP3   OH280385   4.700   3.975  16.531 -0.0069 -0.0517 -0.0570
19657TIP3    H180386   4.698   4.071  16.525  0.6357 -0.0666 -0.5508
19657TIP3    H280387   4.698   3.957  16.625 -1.0480  0.4173  0.0252
19658TIP3   OH280388   6.248   6.681  15.430  0.2011  0.6080 -0.4084
19658TIP3    H180389   6.336   6.653  15.406  0.3521 -0.3177  1.0552
19658TIP3    H280390   6.261   6.744  15.501 -0.2909  0.2970 -0.0258
19659TIP3   OH280391   1.609   4.663   2.210  0.1707  0.2496 -0.2750
19659TIP3    H180392   1.529   4.669   2.157  0.8376 -2.6732 -1.8832
19659TIP3    H280393   1.665   4.731   2.175 -0.3465  0.0060 -1.6914
19660TIP3   OH280394   0.800   5.113  12.814  0.0398  0.3125 -0.2478
19660TIP3    H180395   0.839   5.141  12.731 -0.2985 -0.9795 -0.8672
19660TIP3    H280396   0.756   5.031  12.793 -1.7148  0.9452  0.7729
19661TIP3   OH280397   0.827   1.087  14.819 -0.6074  0.2032  0.1037
19661TIP3    H180398   0.818   1.018  14.754 -1.2697 -1.9489  2.3261
19661TIP3    H280399   0.913   1.126  14.801 -0.2505 -1.1198 -1.2872
19662TIP3   OH280400   2.598   0.899  15.966 -0.2695 -0.2453 -0.2941
19662TIP3    H180401   2.626   0.810  15.946 -0.2171 -0.3162  0.0735
19662TIP3    H280402   2.535   0.889  16.037  0.6056  0.0745  0.5652
19663TIP3   OH280403   1.356   1.847   0.650  0.1245  0.2899 -0.1460
19663TIP3    H180404   1.295   1.830   0.578 -1.4118 -0.5379  1.2763
19663TIP3    H280405   1.329   1.932   0.684  0.2263  0.2460  0.0435
19664TIP3   OH280406   6.378   3.345   0.425  0.4393  0.0969 -0.0323
19664TIP3    H180407   6.389   3.254   0.450  0.1925 -0.0759 -0.5337
19664TIP3    H280408   6.288   3.350   0.391  0.4210  0.5423  0.0670
19665TIP3   OH280409   2.154   0.763  14.578  0.0481  0.3066 -0.2894
19665TIP3    H180410   2.079   0.751  14.636  0.2639 -0.6394 -0.1934
19665TIP3    H280411   2.137   0.847  14.535 -0.8950  0.2689 -0.0229
19666TIP3   OH280412   6.535   5.017   4.843 -0.1744  0.1517  0.3939
19666TIP3    H180413   6.625   5.024   4.875 -0.2276 -0.3843  0.6659
19666TIP3    H280414   6.488   5.087   4.889  0.1879  0.7010 -0.0620
19667TIP3   OH280415   5.195   6.608  16.478 -0.0738 -0.2328  1.0364
19667TIP3    H180416   5.192   6.572  16.389  1.0322  0.4841  0.6885
19667TIP3    H280417   5.115   6.575  16.520 -0.1087 -1.4002  0.1007
19668TIP3   OH280418   0.211   6.039   2.881  0.2136 -0.2905 -0.2081
19668TIP3    H180419   0.291   6.061   2.834  0.4961  0.8255  0.7368
19668TIP3    H280420   0.208   6.101   2.954 -1.2032 -0.6998  0.1237
19669TIP3   OH280421   3.962   4.576  15.234 -0.1037  0.9726  0.7523
19669TIP3    H180422   3.998   4.636  15.300  2.9177  1.3780 -1.0975
19669TIP3    H280423   4.001   4.491  15.255 -0.8863  0.6086  0.7621
19670TIP3   OH280424   6.045   5.055  11.818  0.1677 -0.1851 -0.8985
19670TIP3    H180425   6.034   4.986  11.883 -0.8099  0.9354  0.1919
19670TIP3    H280426   6.093   5.014  11.747 -1.5929 -2.4040 -0.9328
19671TIP3   OH280427   0.681   1.613  10.999 -0.3262  0.2476  0.4567
19671TIP3    H180428   0.630   1.621  10.918 -0.6037  0.5484  0.6586
19671TIP3    H280429   0.746   1.683  10.992  3.7991 -3.3718 -2.4215
19672TIP3   OH280430   5.960   0.127  11.686 -0.6874  0.1774  0.0987
19672TIP3    H180431   5.938   0.164  11.601 -2.2139  1.5736  1.0404
19672TIP3    H280432   5.876   0.098  11.723  0.0186 -0.9548  0.8940
19673TIP3   OH280433   6.183   4.065  16.115  0.2302  1.0217 -0.2489
19673TIP3    H180434   6.190   4.131  16.046 -0.6487  1.3342 -0.0597
19673TIP3    H280435   6.273   4.050  16.144  0.6088  0.9089 -1.4339
19674TIP3   OH280436   6.707   3.508   0.514 -0.4212  0.7041  0.1011
19674TIP3    H180437   6.712   3.412   0.509  1.3896  0.7920 -3.4930
19674TIP3    H280438   6.651   3.532   0.440  2.6401  2.4177 -1.8724
19675TIP3   OH280439   5.333   3.735  16.396  0.0498 -0.7700 -0.2817
19675TIP3    H180440   5.260   3.676  16.413  0.1246 -0.4641  1.1708
19675TIP3    H280441   5.293   3.815  16.362 -0.4361 -0.1409  1.6697
19676TIP3   OH280442   4.499   1.423  12.195 -0.3437  0.1171 -0.1439
19676TIP3    H180443   4.584   1.450  12.231 -0.6910 -0.0349  0.8423
19676TIP3    H280444   4.460   1.504  12.162 -0.4492  0.4749  0.8035
19677TIP3   OH280445   4.760   2.269  12.102  0.2150 -0.3004 -0.4943
19677TIP3    H180446   4.690   2.284  12.165  1.5941  2.0668  0.6166
19677TIP3    H280447   4.833   2.322  12.134  1.4960 -0.2079 -3.2588
19678TIP3   OH280448   3.648   6.446   2.046 -0.6552  0.2222 -0.4008
19678TIP3    H180449   3.724   6.498   2.021  0.9620 -2.0436 -0.5045
19678TIP3    H280450   3.661   6.425   2.138 -0.8974 -0.5449 -0.5275
19679TIP3   OH280451   4.013   2.954  16.651 -0.4418 -0.4905  0.0464
19679TIP3    H180452   4.050   2.883  16.704 -1.5665 -3.0185 -2.2859
19679TIP3    H280453   4.087   3.011  16.632  1.0727 -2.3879  0.0065
19680TIP3   OH280454   6.243   1.578  16.474 -0.0326 -0.2063 -0.4426
19680TIP3    H180455   6.330   1.583  16.511  0.6355  0.9965 -2.0371
19680TIP3    H280456   6.246   1.501  16.417 -0.2905 -0.6472  0.1308
19681TIP3   OH280457   2.322   2.107  12.768 -0.3529 -0.4607 -0.0590
19681TIP3    H180458   2.378   2.183  12.787  0.2986 -0.7035 -0.9451
19681TIP3    H280459   2.383   2.038  12.744 -1.0243 -0.7281 -1.0663
19682TIP3   OH280460   0.460   6.266  12.261  0.2559 -0.3104  0.2472
19682TIP3    H180461   0.390   6.202  12.254 -0.7591  0.7339  0.4724
19682TIP3    H280462   0.450   6.321  12.183  1.5073 -0.7972 -0.2731
19683TIP3   OH280463   5.807   5.955   1.619  0.0174  0.7851 -0.5575
19683TIP3    H180464   5.840   5.975   1.531  0.9284 -0.0238 -0.4164
19683TIP3    H280465   5.878   5.906   1.660 -1.1515 -0.5422 -0.0444
19684TIP3   OH280466   4.463   3.315   2.990 -0.2841 -0.2947 -0.5278
19684TIP3    H180467   4.505   3.391   3.029  0.5574 -1.0327  0.0332
19684TIP3    H280468   4.423   3.269   3.065 -1.2381 -0.1346 -0.9257
19685TIP3   OH280469   2.022   1.102  12.580 -0.1270 -0.0639 -0.2158
19685TIP3    H180470   1.940   1.140  12.548 -0.1677  0.4243  0.4492
19685TIP3    H280471   1.996   1.023  12.626  0.0789 -1.7931 -2.8703
19686TIP3   OH280472   1.571   1.574   4.380  0.2044  0.2942  0.3174
19686TIP3    H180473   1.509   1.580   4.452  0.2767  0.3765  0.3730
19686TIP3    H280474   1.614   1.489   4.392 -0.9002 -0.4199 -0.5319
19687TIP3   OH280475   4.936   4.842  11.694  0.6825 -0.1959  0.5271
19687TIP3    H180476   4.863   4.878  11.644  2.1341  0.5527 -1.1970
19687TIP3    H280477   4.992   4.918  11.711  1.3644 -0.8484  1.2882
19688TIP3   OH280478   3.294   5.542   4.571  0.4429  0.5106 -0.4390
19688TIP3    H180479   3.384   5.534   4.605  0.0872  0.8706  0.6330
19688TIP3    H280480   3.243   5.481   4.624  0.0045  0.4778 -0.8908
19689TIP3   OH280481   2.685   5.274  12.864 -0.2185 -0.2568 -0.2961
19689TIP3    H180482   2.679   5.328  12.943 -1.0217 -0.4879 -0.1924
19689TIP3    H280483   2.698   5.185  12.896 -0.2858 -0.3157 -0.4312
19690TIP3   OH280484   3.686   0.257   0.787  0.4819  0.4540 -0.0754
19690TIP3    H180485   3.671   0.274   0.879 -1.2712 -1.4458  0.0661
19690TIP3    H280486   3.600   0.263   0.746  0.8860 -0.7136 -1.1965
19691TIP3   OH280487   4.966   0.546  12.166 -0.1583  0.1393  0.6856
19691TIP3    H180488   4.899   0.547  12.098  0.0963  0.9798  0.4271
19691TIP3    H280489   4.930   0.598  12.237 -0.3106 -0.5091  1.0884
19692TIP3   OH280490   3.401   4.540   3.200  0.2352 -0.3829  0.0308
19692TIP3    H180491   3.419   4.491   3.280  0.7753 -0.2871 -0.0235
19692TIP3    H280492   3.488   4.566   3.168  0.0079 -0.1572 -0.4185
19693TIP3   OH280493   3.432   1.924  10.945  0.1881 -0.0253 -0.4727
19693TIP3    H180494   3.453   1.940  10.853  0.8288 -2.6787 -0.8630
19693TIP3    H280495   3.339   1.944  10.953  0.3342  1.1509 -1.4324
19694TIP3   OH280496   4.813   3.062  11.183  0.4344  0.3026 -0.0432
19694TIP3    H180497   4.841   3.039  11.094 -0.5861 -0.5769 -0.1601
19694TIP3    H280498   4.799   2.978  11.226  1.0095  0.7202  0.9981
19695TIP3   OH280499   0.694   3.642   6.397  0.0737  0.2424 -0.7557
19695TIP3    H180500   0.660   3.673   6.314  0.9651  1.8617 -0.5487
19695TIP3    H280501   0.620   3.648   6.457  0.0735  1.4286 -0.8662
19696TIP3   OH280502   4.018   2.491  10.795  0.2767 -0.5811 -0.5266
19696TIP3    H180503   4.101   2.479  10.840  0.1941 -0.5806 -0.3737
19696TIP3    H280504   4.027   2.441  10.714  0.3046 -0.8453 -0.3589
19697TIP3   OH280505   2.441   2.253   0.880  0.3783  0.0271  0.0770
19697TIP3    H180506   2.455   2.309   0.956  0.3657  0.9061 -0.5548
19697TIP3    H280507   2.407   2.312   0.812  0.7421 -0.6597 -0.7253
19698TIP3   OH280508   3.017   6.731   5.850  0.4989  0.0621  0.4355
19698TIP3    H180509   2.967   6.794   5.799  0.1342 -1.1625 -0.7617
19698TIP3    H280510   2.957   6.704   5.920 -0.0480 -0.3779 -0.1892
19699TIP3   OH280511   4.899   5.003  13.845  0.4464  0.0934  0.5373
19699TIP3    H180512   4.926   4.974  13.758 -1.1609 -0.5421  0.2114
19699TIP3    H280513   4.980   5.015  13.893  1.5187  2.3362 -1.5977
19700TIP3   OH280514   4.273   4.673   6.531 -0.0309 -0.6746  0.3971
19700TIP3    H180515   4.182   4.645   6.524 -0.2288  0.0194  0.1100
19700TIP3    H280516   4.296   4.657   6.622 -1.0555  0.9480  0.9818
19701TIP3   OH280517   6.045   1.217  16.335  0.2241  0.0527  0.5335
19701TIP3    H180518   5.969   1.275  16.337  1.0530  1.3231 -1.5051
19701TIP3    H280519   6.112   1.263  16.385  0.4491  0.2003  0.1033
19702TIP3   OH280520   0.006   4.482  16.536  0.3464  0.0011 -0.5862
19702TIP3    H180521   0.062   4.555  16.513  0.5437 -0.4792 -1.6791
19702TIP3    H280522  -0.077   4.522  16.563  0.8329  0.6604 -0.0806
19703TIP3   OH280523   4.484   2.581   4.393  0.2973 -0.3001 -0.2317
19703TIP3    H180524   4.416   2.548   4.451 -0.7130 -1.2446 -1.8620
19703TIP3    H280525   4.460   2.671   4.375 -0.5710 -0.6332 -0.8073
19704TIP3   OH280526   0.934   5.823  15.701  0.2742  0.4011  0.1059
19704TIP3    H180527   0.942   5.841  15.607 -0.6489  0.4865  0.0363
19704TIP3    H280528   0.898   5.904  15.737 -0.3692 -0.0044  0.3703
19705TIP3   OH280529   0.933   0.065   2.964  0.3028 -1.0894 -0.0933
19705TIP3    H180530   1.000   0.034   3.024 -0.6864 -1.1904  1.0056
19705TIP3    H280531   0.853   0.019   2.992 -0.1447 -1.3161 -1.6347
19706TIP3   OH280532   3.201   4.403   4.069 -0.2144 -0.1341 -0.0531
19706TIP3    H180533   3.283   4.438   4.105 -0.5986  0.8726 -0.1165
19706TIP3    H280534   3.222   4.382   3.978  1.0562 -3.6558  0.8668
19707TIP3   OH280535   3.275   2.001   1.630  0.1177  0.1202 -0.5123
19707TIP3    H180536   3.300   2.030   1.542 -4.1898 -0.9041 -2.2831
19707TIP3    H280537   3.211   2.066   1.659  1.5453  0.5085  2.0859
19708TIP3   OH280538   4.774   6.479  12.628  0.7329  0.8655 -0.1121
19708TIP3    H180539   4.802   6.395  12.663  1.0721  1.3146  0.7329
19708TIP3    H280540   4.729   6.458  12.547  0.7069 -0.1400  0.1522
19709TIP3   OH280541   0.948   4.008   2.923 -0.6245 -0.1220  0.1248
19709TIP3    H180542   0.997   3.943   2.973 -1.0160 -0.6412 -0.1549
19709TIP3    H280543   0.999   4.018   2.842 -0.7176 -0.3022  0.0423
19710TIP3   OH280544   6.543   0.558   2.604  0.1853  0.0254  0.1617
19710TIP3    H180545   6.623   0.588   2.562  1.0176 -2.2958 -0.0758
19710TIP3    H280546   6.531   0.617   2.678  1.9359  0.6307  0.0113
19711TIP3   OH280547   0.779   5.606  14.442  0.8861  0.4034  0.1108
19711TIP3    H180548   0.865   5.636  14.471  1.3450 -0.3181 -0.4535
19711TIP3    H280549   0.783   5.510  14.450 -0.1059  0.3899  0.7115
19712TIP3   OH280550   0.481   0.895   4.748 -0.1503  0.1235 -0.4257
19712TIP3    H180551   0.444   0.838   4.680 -0.8761  0.1591 -0.0745
19712TIP3    H280552   0.486   0.840   4.825  0.2352  0.2143 -0.3852
19713TIP3   OH280553   1.788   5.510   2.021 -0.0680  0.5575 -0.1403
19713TIP3    H180554   1.738   5.580   1.979  0.3041  2.0161  1.6885
19713TIP3    H280555   1.766   5.518   2.114 -2.6023 -3.9284 -0.0617
19714TIP3   OH280556   6.664   5.054   2.907 -0.0916 -0.1328  0.3699
19714TIP3    H180557   6.724   5.110   2.957 -0.9284  1.2843 -0.1642
19714TIP3    H280558   6.682   5.077   2.816 -2.6637  1.7132  0.2200
19715TIP3   OH280559   1.377   1.979   3.833  0.3258 -0.1174  0.4940
19715TIP3    H180560   1.425   2.062   3.831  1.6648 -0.8662  0.4849
19715TIP3    H280561   1.331   1.976   3.749  1.1370  0.1246  0.0304
19716TIP3   OH280562   1.961   2.112   2.829 -0.1259 -0.1255 -0.1439
19716TIP3    H180563   2.016   2.129   2.753 -0.6058 -1.6250 -0.8575
19716TIP3    H280564   2.022   2.080   2.896  0.4976  2.3668  0.6042
19717TIP3   OH280565   4.283   0.067  12.454 -0.5273 -0.3276  0.4608
19717TIP3    H180566   4.234   0.148  12.465 -0.8118 -0.2792 -0.9995
19717TIP3    H280567   4.237   0.019  12.386  0.5614 -0.9851  0.1552
19718TIP3   OH280568   4.419   2.910   1.261 -0.8213 -0.1160 -0.2228
19718TIP3    H180569   4.447   2.893   1.351 -0.2264 -0.5010 -0.4743
19718TIP3    H280570   4.430   3.004   1.250 -0.1708 -0.1774 -0.1297
19719TIP3   OH280571   5.245   2.355   3.618 -0.0699 -0.0143  0.2346
19719TIP3    H180572   5.320   2.413   3.602  0.8686 -0.9072  1.2815
19719TIP3    H280573   5.248   2.291   3.547  0.5157 -0.3975  0.6027
19720TIP3   OH280574   4.856   0.310  12.394 -0.4076  0.2049 -0.2413
19720TIP3    H180575   4.781   0.301  12.335 -0.4226  0.6953 -0.2995
19720TIP3    H280576   4.838   0.390  12.444  0.0237  0.2649 -0.1822
19721TIP3   OH280577   5.445   4.285  14.645 -0.6484  0.0760 -0.5528
19721TIP3    H180578   5.488   4.277  14.559 -1.3377 -1.3824 -0.7863
19721TIP3    H280579   5.515   4.268  14.708 -0.4565 -0.3776 -0.8774
19722TIP3   OH280580   1.335   5.693  12.576 -0.1217  0.1071  0.1238
19722TIP3    H180581   1.321   5.780  12.538 -0.4644 -1.2268 -3.1198
19722TIP3    H280582   1.420   5.665  12.541 -0.6254 -1.3577  0.0090
19723TIP3   OH280583   2.278   6.143  11.171  0.6123 -0.5076  0.3744
19723TIP3    H180584   2.283   6.238  11.173  2.1909 -0.5869  1.2307
19723TIP3    H280585   2.330   6.118  11.095 -0.0372 -0.6913 -0.0194
19724TIP3   OH280586   0.086   2.017   3.832 -0.0280 -0.6501 -0.1338
19724TIP3    H180587   0.014   2.007   3.771 -0.9058 -1.7445  1.0353
19724TIP3    H280588   0.141   1.940   3.819 -0.8599 -1.5185  1.2326
19725TIP3   OH280589   2.932   3.552   4.398  0.1395  0.7999  0.1488
19725TIP3    H180590   2.939   3.607   4.319  0.9820  0.3918 -0.0748
19725TIP3    H280591   2.990   3.478   4.381 -1.4378 -0.5013  0.1907
19726TIP3   OH280592   2.512   1.184  11.699 -0.1815 -0.3454  0.4269
19726TIP3    H180593   2.500   1.242  11.774  1.7608 -0.2077  0.6789
19726TIP3    H280594   2.433   1.196  11.647 -0.6419  1.1270  1.3966
19727TIP3   OH280595   1.290   6.446   1.603  0.2257 -0.7904  0.3348
19727TIP3    H180596   1.342   6.466   1.681 -1.2405  0.4893  1.0410
19727TIP3    H280597   1.223   6.385   1.634  0.1534 -0.9547 -0.1401
19728TIP3   OH280598   3.459   4.057  13.524  0.2596  0.4013 -0.4036
19728TIP3    H180599   3.537   4.022  13.567  0.1301 -1.1757 -1.3623
19728TIP3    H280600   3.424   4.121  13.585  0.8236 -0.7771  1.2210
19729TIP3   OH280601   3.173   4.372  16.981 -0.6046 -0.0101  0.3920
19729TIP3    H180602   3.192   4.460  17.016 -1.4096  0.4914 -0.3984
19729TIP3    H280603   3.081   4.358  17.002  0.1837 -1.9542  3.1884
19730TIP3   OH280604   4.453   5.689   1.956 -0.1086 -0.2260  0.1680
19730TIP3    H180605   4.521   5.640   2.002  0.2781  0.9003  0.8436
19730TIP3    H280606   4.387   5.623   1.934  0.2183 -0.9933  1.3676
19731TIP3   OH280607   5.801   5.103   1.703  0.4035 -0.3483  0.0847
19731TIP3    H180608   5.764   5.143   1.624  2.0478 -0.3435 -0.7182
19731TIP3    H280609   5.863   5.038   1.670  1.5500  0.0506  1.3872
19732TIP3   OH280610   1.210   2.290   1.043 -0.0421  0.3380 -0.2302
19732TIP3    H180611   1.241   2.356   0.981  3.3977 -1.0365 -0.1713
19732TIP3    H280612   1.264   2.303   1.121 -2.3466  0.1928  1.5035
19733TIP3   OH280613   2.801   0.095   0.366 -0.2546  0.1118  0.2136
19733TIP3    H180614   2.886   0.052   0.373 -0.0920 -0.0902 -2.0985
19733TIP3    H280615   2.768   0.100   0.456  1.4465 -1.3002  0.9609
19734TIP3   OH280616   2.606   2.434  13.800 -0.5729 -0.4035 -0.1537
19734TIP3    H180617   2.646   2.508  13.846  0.7744 -1.4105  0.3630
19734TIP3    H280618   2.624   2.451  13.708 -0.9093  0.2681 -0.1014
19735TIP3   OH280619   5.264   0.693  12.849  0.4530  0.1780  0.1992
19735TIP3    H180620   5.271   0.621  12.912 -0.2183 -0.8182 -0.8560
19735TIP3    H280621   5.219   0.762  12.898 -0.2922 -0.6729  0.7449
19736TIP3   OH280622   2.344   4.784   1.625  0.0211  0.0657  0.0401
19736TIP3    H180623   2.365   4.868   1.584  0.4958  1.4369  2.8090
19736TIP3    H280624   2.426   4.736   1.625 -0.2996 -0.5663 -1.7504
19737TIP3   OH280625   4.089   1.142  14.394  0.3735  0.7982  0.3164
19737TIP3    H180626   4.018   1.184  14.345  0.7876  1.0236 -0.0850
19737TIP3    H280627   4.049   1.121  14.479 -0.1432  1.0246  0.1342
19738TIP3   OH280628   0.847   0.415  14.908 -0.1648  1.0078 -0.1554
19738TIP3    H180629   0.794   0.466  14.847 -2.7435  1.4766  2.2571
19738TIP3    H280630   0.784   0.382  14.973  2.2001 -0.5346  1.5367
19739TIP3   OH280631   4.190   3.103   4.436 -0.5625 -0.1278  0.0354
19739TIP3    H180632   4.237   3.026   4.405 -0.6224  0.1032 -0.6523
19739TIP3    H280633   4.173   3.086   4.529  0.8185 -0.2429  0.2796
19740TIP3   OH280634   6.319   3.989  13.559 -0.3729 -0.5608 -0.5132
19740TIP3    H180635   6.373   4.022  13.631 -0.4131  1.6869 -1.4406
19740TIP3    H280636   6.377   3.989  13.483 -1.0264 -0.4602 -1.0210
19741TIP3   OH280637   2.084   3.964   1.751 -0.3436  0.7025 -0.0851
19741TIP3    H180638   2.097   3.938   1.660  0.2317  1.8413 -0.3495
19741TIP3    H280639   2.032   4.044   1.746  1.7990  2.2155  0.4100
19742TIP3   OH280640   3.721   2.598   2.076 -0.2183 -0.1839  0.5106
19742TIP3    H180641   3.706   2.595   1.982  0.4256  2.6706  0.2332
19742TIP3    H280642   3.635   2.615   2.114 -0.5336 -1.6516  0.5150
19743TIP3   OH280643   6.684   4.714   3.804  0.7350 -0.3916 -0.2438
19743TIP3    H180644   6.636   4.660   3.741  2.7759 -2.5895 -0.0667
19743TIP3    H280645   6.616   4.761   3.852 -1.1561 -2.2331 -0.9605
19744TIP3   OH280646   2.030   2.755  13.864  0.1670 -0.6704 -0.0275
19744TIP3    H180647   2.075   2.679  13.828  0.6277 -0.1650 -0.5497
19744TIP3    H280648   2.049   2.826  13.801 -2.4917 -0.7420 -1.0633
19745TIP3   OH280649   1.780   5.849   6.511 -0.8343  0.1869 -0.0408
19745TIP3    H180650   1.736   5.764   6.518 -0.7963  0.1071 -0.7027
19745TIP3    H280651   1.855   5.833   6.454  0.0833  0.3208  1.1080
19746TIP3   OH280652   6.383   4.587   2.150  0.1978 -0.3915  0.2559
19746TIP3    H180653   6.363   4.680   2.141 -0.1102 -0.4525  0.2883
19746TIP3    H280654   6.331   4.545   2.082 -0.5437 -0.6523  0.9647
19747TIP3   OH280655   0.718   3.420  13.127 -0.2830  0.7374 -0.1303
19747TIP3    H180656   0.790   3.469  13.165 -0.5180  1.0314 -0.0623
19747TIP3    H280657   0.669   3.387  13.203 -0.7471  1.3167 -0.1666
19748TIP3   OH280658   4.868   4.532   4.418 -0.5109  0.2357 -0.3413
19748TIP3    H180659   4.949   4.576   4.445 -0.4465 -0.9470  1.5524
19748TIP3    H280660   4.898   4.456   4.367 -0.2316 -1.3261  1.9868
19749TIP3   OH280661   4.154   1.200   3.120  0.2925  0.2958 -0.3804
19749TIP3    H180662   4.178   1.278   3.070  0.3187 -0.7940 -2.1619
19749TIP3    H280663   4.072   1.224   3.164  1.6957  2.2169  1.3668
19750TIP3   OH280664   2.957   0.507  15.188  1.0289  0.5442  0.2146
19750TIP3    H180665   2.881   0.564  15.194  0.4389 -0.0512 -1.1534
19750TIP3    H280666   3.019   0.554  15.133  1.9701  1.3190  1.8583
19751TIP3   OH280667   0.609   5.791   0.234 -0.5372 -0.4766  0.6537
19751TIP3    H180668   0.663   5.812   0.310 -2.9512  0.4124  2.2382
19751TIP3    H280669   0.538   5.737   0.269 -1.2956 -0.6957 -1.1225
19752TIP3   OH280670   6.712   1.898  10.910 -0.1210 -0.1042  0.1834
19752TIP3    H180671   6.643   1.954  10.874  1.3528  1.4472 -0.3821
19752TIP3    H280672   6.751   1.856  10.834  0.0425 -0.3879  0.4214
19753TIP3   OH280673   5.294   2.514  13.427 -0.0490  0.6739  0.1547
19753TIP3    H180674   5.236   2.587  13.448  0.6742  0.9684  1.2599
19753TIP3    H280675   5.338   2.540  13.346  0.7543  1.8390  0.9311
19754TIP3   OH280676   3.198   0.291   2.467  0.4311  0.0877  0.6148
19754TIP3    H180677   3.202   0.196   2.471 -1.8235 -0.1265 -0.5564
19754TIP3    H280678   3.203   0.320   2.558  0.0805 -1.2080  1.0564
19755TIP3   OH280679   6.022   2.319   3.696  0.3257  0.9184  0.0316
19755TIP3    H180680   5.964   2.278   3.760 -1.3770  0.4749 -1.6886
19755TIP3    H280681   6.043   2.249   3.634  2.2666  1.2273  0.2969
19756TIP3   OH280682   3.884   0.073  11.831  0.0908  0.2898 -0.2739
19756TIP3    H180683   3.957   0.035  11.880 -0.6909 -0.6790  0.1811
19756TIP3    H280684   3.822   0.101  11.899 -0.3486  0.2986 -0.6790
19757TIP3   OH280685   1.890   2.375   4.414 -0.1834 -0.5697  0.1068
19757TIP3    H180686   1.920   2.418   4.494 -0.2339 -1.2778  0.5134
19757TIP3    H280687   1.959   2.311   4.394  0.1386  0.0287 -0.7741
19758TIP3   OH280688   2.720   2.698  14.379  0.0178 -0.3733 -0.6127
19758TIP3    H180689   2.726   2.612  14.337  2.2204 -0.4732 -0.1870
19758TIP3    H280690   2.645   2.690  14.439  0.1263 -1.9692 -0.6437
19759TIP3   OH280691   6.689   3.602   2.664 -0.8115  0.1804 -0.5419
19759TIP3    H180692   6.779   3.613   2.633 -0.7890  3.7865  0.3852
19759TIP3    H280693   6.686   3.511   2.695  1.8938 -0.6390 -2.2873
19760TIP3   OH280694   0.661   0.143   5.622  0.3884  0.1677 -1.1463
19760TIP3    H180695   0.644   0.128   5.715 -1.6743  2.8414 -0.9567
19760TIP3    H280696   0.720   0.218   5.620 -0.7017  1.0354 -1.9617
19761TIP3   OH280697   3.323   5.061  14.569  0.0904 -0.0318  0.1111
19761TIP3    H180698   3.365   4.989  14.617  0.9765  1.3033  1.4146
19761TIP3    H280699   3.374   5.068  14.488 -0.3908 -1.2503 -0.3163
19762TIP3   OH280700   4.958   3.748  16.690  0.1253  0.1276 -0.0293
19762TIP3    H180701   4.874   3.711  16.664 -0.1348  0.7740 -0.1302
19762TIP3    H280702   4.976   3.711  16.776  0.3999 -1.0810 -0.5793
19763TIP3   OH280703   0.434   0.959  15.036 -0.0392 -0.2938 -0.0257
19763TIP3    H180704   0.361   0.912  15.076  0.0729 -0.9024 -0.5218
19763TIP3    H280705   0.508   0.944  15.095 -0.8664  2.5457  1.9606
19764TIP3   OH280706   0.615   2.912   2.279  0.0086  0.3013  0.2683
19764TIP3    H180707   0.563   2.950   2.208  0.1388 -0.7920 -0.4296
19764TIP3    H280708   0.673   2.850   2.236  0.3753 -0.0940  1.2974
19765TIP3   OH280709   3.382   5.716  12.813  0.3656 -0.1658 -0.3423
19765TIP3    H180710   3.433   5.669  12.879  0.7730  0.7127 -0.0178
19765TIP3    H280711   3.370   5.804  12.849  1.2932  0.5974 -1.7606
19766TIP3   OH280712   5.866   2.840   5.744  0.0644  0.3705  0.0007
19766TIP3    H180713   5.823   2.850   5.828 -2.5553  1.4811 -1.3639
19766TIP3    H280714   5.916   2.921   5.732  1.7817 -0.4667  1.1147
19767TIP3   OH280715   5.496   5.593  14.938 -0.1260  0.5504 -0.1721
19767TIP3    H180716   5.576   5.577  14.988  0.1622  0.9807 -0.4958
19767TIP3    H280717   5.460   5.505  14.923  0.2069  0.3651  0.0943
19768TIP3   OH280718   3.660   6.300  13.234  0.5868  0.4747 -0.1627
19768TIP3    H180719   3.741   6.350  13.224  0.7796  0.3211  0.5684
19768TIP3    H280720   3.680   6.214  13.197  0.6680  0.5205 -0.2256
19769TIP3   OH280721   1.972   2.765   1.453 -0.0543 -0.5929  0.0379
19769TIP3    H180722   1.924   2.842   1.482  0.8593 -1.2804  3.8756
19769TIP3    H280723   2.062   2.795   1.438 -0.2000 -0.5283 -0.7762
19770TIP3   OH280724   2.649   3.466  11.320  0.0737  0.0011  0.4270
19770TIP3    H180725   2.709   3.510  11.380 -0.0125  0.8737 -0.1101
19770TIP3    H280726   2.701   3.451  11.241 -0.5445  1.2333 -0.2332
19771TIP3   OH280727   5.251   1.739   0.100  0.0275 -0.1579 -0.1747
19771TIP3    H180728   5.195   1.790   0.041  1.2987  2.2194  0.5376
19771TIP3    H280729   5.201   1.734   0.181  0.1087  0.4794 -0.0759
19772TIP3   OH280730   2.199   4.359   5.614  0.2537  0.2148 -0.7200
19772TIP3    H180731   2.154   4.297   5.557 -0.2538  0.8922 -1.0778
19772TIP3    H280732   2.213   4.311   5.696 -1.4641  0.1041 -0.4650
19773TIP3   OH280733   5.470   4.068  15.598 -0.2545 -0.2141  0.5196
19773TIP3    H180734   5.491   3.982  15.561  2.6006 -0.2344  1.8513
19773TIP3    H280735   5.526   4.129  15.549  0.7657  0.2602  2.1936
19774TIP3   OH280736   2.272   3.008   5.819 -0.3856 -0.2817 -0.2124
19774TIP3    H180737   2.360   2.969   5.820  0.2022  0.8985 -1.6831
19774TIP3    H280738   2.282   3.090   5.867  0.2884  1.6098 -3.3101
19775TIP3   OH280739   2.061   3.058   4.876  0.5978  0.3971 -0.2717
19775TIP3    H180740   2.024   3.069   4.964 -1.9024  2.1099 -1.4139
19775TIP3    H280741   2.124   3.130   4.869  1.8128 -0.5407  0.5187
19776TIP3   OH280742   0.410   5.493  10.623 -0.3626  0.2031  0.2756
19776TIP3    H180743   0.347   5.557  10.657 -0.9621  0.5491 -1.4097
19776TIP3    H280744   0.477   5.546  10.579 -0.3857 -0.2776 -0.3504
19777TIP3   OH280745   1.212   5.601  14.225  0.1209  0.1245 -0.2727
19777TIP3    H180746   1.273   5.608  14.152  0.7958  0.1846  0.2867
19777TIP3    H280747   1.164   5.519  14.209  1.4897 -0.7863  0.1254
19778TIP3   OH280748   6.511   0.775   1.280  0.0744  0.4544 -0.2188
19778TIP3    H180749   6.483   0.683   1.273  0.4368  0.1535  1.7130
19778TIP3    H280750   6.456   0.821   1.217  1.4978 -1.3786 -3.0138
19779TIP3   OH280751   4.106   6.660   1.180 -0.3531  0.0083  0.1475
19779TIP3    H180752   4.181   6.629   1.231  0.1410 -0.2231 -0.7111
19779TIP3    H280753   4.139   6.738   1.135  0.3139 -1.6809 -2.5165
19780TIP3   OH280754   0.099   2.954   0.973  0.3338  0.1874  0.2676
19780TIP3    H180755   0.195   2.954   0.983  0.1467  0.4792  2.4722
19780TIP3    H280756   0.079   3.039   0.934  0.9514  0.1407 -0.1750
19781TIP3   OH280757   3.297   1.153   0.377  0.4713  0.4670  0.0737
19781TIP3    H180758   3.250   1.115   0.451  1.8495  1.0317  1.3016
19781TIP3    H280759   3.239   1.140   0.302 -0.6966 -0.6942  1.1248
19782TIP3   OH280760   2.637   1.244   2.456 -0.4652 -0.2927  0.1134
19782TIP3    H180761   2.577   1.193   2.510  1.4058  0.1159  2.7862
19782TIP3    H280762   2.721   1.198   2.462  0.2652  0.8239 -0.8906
19783TIP3   OH280763   3.554   5.689  14.926  0.4199 -0.1673  0.4543
19783TIP3    H180764   3.562   5.766  14.871  1.5747 -0.2547  0.4671
19783TIP3    H280765   3.462   5.688  14.954  0.1869  0.7019 -0.2463
19784TIP3   OH280766   3.108   6.330  14.698  0.1450  0.4931 -0.6391
19784TIP3    H180767   3.048   6.403  14.706 -0.2240  0.4397 -2.4128
19784TIP3    H280768   3.165   6.336  14.775 -0.1482  2.3738 -0.5325
19785TIP3   OH280769   3.182   6.496   1.715 -0.6181  0.0559  0.4981
19785TIP3    H180770   3.265   6.453   1.734 -0.7284 -0.1044  0.6183
19785TIP3    H280771   3.136   6.498   1.799 -0.3167  1.0574  0.6502
19786TIP3   OH280772   5.785   1.010   4.733  0.0284 -0.2406 -0.1417
19786TIP3    H180773   5.790   0.923   4.695 -0.7174 -0.9683  1.3523
19786TIP3    H280774   5.734   0.999   4.813 -0.9348  1.7482 -0.4168
19787TIP3   OH280775   5.561   0.597   2.424  0.0062 -0.5105  0.1024
19787TIP3    H180776   5.587   0.512   2.461  1.4656  0.7243  2.0991
19787TIP3    H280777   5.529   0.647   2.498  0.8028  1.2800 -0.7044
19788TIP3   OH280778   0.335   0.691  11.213  1.0618  0.2255  0.2752
19788TIP3    H180779   0.275   0.656  11.147  0.9086 -0.7888  0.9428
19788TIP3    H280780   0.365   0.774  11.175  1.2933 -0.5132 -1.2745
19789TIP3   OH280781   6.449   6.444   0.876  0.6451 -0.3755  0.1727
19789TIP3    H180782   6.437   6.527   0.830  1.8878  0.0309  0.5721
19789TIP3    H280783   6.360   6.416   0.897  0.2221  0.9220  0.1751
19790TIP3   OH280784   5.063   2.878  14.692  0.0520 -0.1197  0.5148
19790TIP3    H180785   5.040   2.959  14.737  0.5520  0.6237 -0.5268
19790TIP3    H280786   5.149   2.894  14.655  0.0775 -1.0581  0.1221
19791TIP3   OH280787   3.505   3.400   1.300 -0.2818  0.1339 -0.1720
19791TIP3    H180788   3.488   3.441   1.215  0.8648  0.0398 -0.4648
19791TIP3    H280789   3.441   3.330   1.307 -1.5493  1.2423 -0.1625
19792TIP3   OH280790   2.028   6.154  16.524  0.5694 -0.1012  0.0092
19792TIP3    H180791   2.049   6.245  16.502 -1.2705  0.3530 -0.0899
19792TIP3    H280792   2.105   6.122  16.571  0.6830  1.9974  1.3945
19793TIP3   OH280793   1.835   3.445   3.663  0.3075 -0.2869  0.4478
19793TIP3    H180794   1.881   3.374   3.709 -0.5828 -0.6927  0.7564
19793TIP3    H280795   1.839   3.420   3.571  0.8536 -0.2258  0.4532
19794TIP3   OH280796   5.237   2.332  15.615  0.1425  0.2067 -0.8284
19794TIP3    H180797   5.249   2.321  15.521 -1.4185 -0.1035 -1.0278
19794TIP3    H280798   5.296   2.268  15.655  0.0156 -0.4308 -1.6333
19795TIP3   OH280799   5.828   5.753  14.239 -0.1772 -0.3924  0.2345
19795TIP3    H180800   5.846   5.846  14.251  0.8154 -0.8029  2.5159
19795TIP3    H280801   5.772   5.730  14.313  1.4081 -2.0202  0.9988
19796TIP3   OH280802   2.098   0.316  13.359  0.1970 -0.2117  0.1783
19796TIP3    H180803   2.089   0.412  13.354  2.3439 -0.0228 -1.8528
19796TIP3    H280804   2.012   0.283  13.335  0.2869  1.2720 -2.5627
19797TIP3   OH280805   3.294   4.945  16.374 -0.0765 -0.2183  0.0968
19797TIP3    H180806   3.271   5.030  16.336 -2.2312 -0.0094  1.6478
19797TIP3    H280807   3.356   4.966  16.444  0.4054 -0.0921 -0.3609
19798TIP3   OH280808   3.974   6.021  13.806 -0.3973  0.3996  0.1047
19798TIP3    H180809   3.966   5.989  13.716  0.1920  0.3884  0.0512
19798TIP3    H280810   3.909   5.972  13.855  0.6933 -1.1234  0.0848
19799TIP3   OH280811   4.893   3.168  14.472  0.7516 -0.3678  0.0268
19799TIP3    H180812   4.801   3.193  14.477  1.3554  1.7782  1.3551
19799TIP3    H280813   4.931   3.229  14.409  1.6917  0.2135  1.1329
19800TIP3   OH280814   5.593   6.568  15.475  0.2534 -0.5045 -0.1842
19800TIP3    H180815   5.676   6.521  15.470  0.2650 -0.4032 -1.2750
19800TIP3    H280816   5.617   6.661  15.479  0.1935 -0.4509 -0.9613
19801TIP3   OH280817   2.712   6.336  16.612 -0.8779 -0.1290  0.4334
19801TIP3    H180818   2.619   6.323  16.628 -1.0951  0.4247 -0.3132
19801TIP3    H280819   2.720   6.338  16.516  0.2182 -2.4631  0.4038
19802TIP3   OH280820   4.599   4.216   2.522  0.0829  0.0304 -0.3664
19802TIP3    H180821   4.691   4.240   2.514  0.4280 -1.4473 -1.1429
19802TIP3    H280822   4.576   4.239   2.612  1.5287 -0.6047  0.1899
19803TIP3   OH280823   3.616   1.562   5.804  0.1462 -0.2032  0.3101
19803TIP3    H180824   3.592   1.507   5.878 -0.5726  0.7897  0.8483
19803TIP3    H280825   3.697   1.604   5.831 -0.2931  0.4171  0.6973
19804TIP3   OH280826   6.305   0.940   3.104 -0.3298  0.4829 -0.1921
19804TIP3    H180827   6.358   0.964   3.028 -0.5750 -1.6823 -1.1221
19804TIP3    H280828   6.278   1.024   3.142 -0.0072  1.6283 -2.3454
19805TIP3   OH280829   2.740   3.175  12.373 -0.1832  0.0561 -0.3502
19805TIP3    H180830   2.782   3.172  12.459  0.5858 -2.5637 -0.7131
19805TIP3    H280831   2.804   3.215  12.315  0.1336 -0.0767 -0.0903
19806TIP3   OH280832   4.053   5.574   0.763  0.6127  0.0380  0.0996
19806TIP3    H180833   4.111   5.651   0.757 -0.5621  1.3212  3.1438
19806TIP3    H280834   4.065   5.543   0.853 -0.7066 -1.9306 -0.3639
19807TIP3   OH280835   6.672   4.824   4.186 -0.0205 -0.0922 -0.4728
19807TIP3    H180836   6.708   4.785   4.266 -1.7881 -1.7614 -0.4150
19807TIP3    H280837   6.674   4.919   4.202  2.0506 -0.2491  0.4474
19808TIP3   OH280838   1.482   6.189   1.067  0.5601 -0.7690  0.1164
19808TIP3    H180839   1.468   6.136   0.988 -2.3138  0.2855 -0.1953
19808TIP3    H280840   1.434   6.144   1.136 -0.2152  0.3165  0.3183
19809TIP3   OH280841   4.262   3.953   1.381 -0.6765 -0.6450 -0.0241
19809TIP3    H180842   4.323   4.025   1.394  0.8892 -1.2867 -3.0165
19809TIP3    H280843   4.304   3.877   1.421 -0.4036 -0.6817 -0.3722
19810TIP3   OH280844   3.470   5.727  15.460  0.2641  0.4497  0.1582
19810TIP3    H180845   3.508   5.729  15.547 -0.0614  0.3267  0.3062
19810TIP3    H280846   3.375   5.727  15.475  0.2067  0.4534 -0.1933
19811TIP3   OH280847   3.205   5.068   0.056 -0.3769  0.2205  0.6105
19811TIP3    H180848   3.258   5.050   0.133 -0.4687 -0.2165  0.5737
19811TIP3    H280849   3.255   5.132   0.006  1.8315 -2.6365 -1.1624
19812TIP3   OH280850   1.997   3.858   0.081 -0.2113 -0.0502  0.6095
19812TIP3    H180851   1.917   3.815   0.048 -0.6495 -0.2516  1.9036
19812TIP3    H280852   2.059   3.786   0.093  1.0981  0.3310 -2.7316
19813TIP3   OH280853   1.567   1.618  14.640  0.7307 -0.2834 -0.8042
19813TIP3    H180854   1.633   1.566  14.685  1.5716  0.0679 -1.6210
19813TIP3    H280855   1.573   1.591  14.548  1.2106  1.2802 -1.2507
19814TIP3   OH280856   4.222   6.682   0.145 -0.0836 -0.0992  0.0231
19814TIP3    H180857   4.138   6.638   0.151  0.9865 -2.3619 -0.7690
19814TIP3    H280858   4.273   6.646   0.218 -0.3208  2.6812  1.7383
19815TIP3   OH280859   2.043   5.994   0.777 -0.2374  0.5329  0.4129
19815TIP3    H180860   2.008   5.907   0.797 -1.6621  0.9808 -0.0491
19815TIP3    H280861   2.064   6.031   0.863  0.3710 -0.2461  0.6137
19816TIP3   OH280862   2.968   5.255   5.375 -0.2468  0.0544 -0.0451
19816TIP3    H180863   2.934   5.333   5.332  0.4568 -0.3547 -1.4046
19816TIP3    H280864   2.900   5.231   5.438 -1.2027  0.8302 -0.7465
19817TIP3   OH280865   5.474   0.183  12.149 -0.4812  0.1633  0.3341
19817TIP3    H180866   5.481   0.236  12.229 -0.7114 -0.6858  0.9302
19817TIP3    H280867   5.451   0.096  12.180 -2.8147  0.3074 -0.8051
19818TIP3   OH280868   6.511   3.186  17.171  0.1501 -0.5187  0.2394
19818TIP3    H180869   6.521   3.280  17.153  0.8397 -0.4889  0.7824
19818TIP3    H280870   6.434   3.161  17.119 -0.8750  0.6303  1.1386
19819TIP3   OH280871   0.439   3.994   0.461 -0.3501  0.2742 -0.2801
19819TIP3    H180872   0.432   4.046   0.381  0.0867  1.2143  0.2745
19819TIP3    H280873   0.518   4.026   0.504 -0.9728  0.3026  0.8858
19820TIP3   OH280874   6.634   1.218   2.442 -0.1732  0.6732 -0.2061
19820TIP3    H180875   6.605   1.309   2.453 -0.0890  0.4601  2.6853
19820TIP3    H280876   6.727   1.221   2.463 -0.5321 -0.2924  1.7173
19821TIP3   OH280877   4.141   5.086   5.973 -0.4456 -1.0667 -0.4671
19821TIP3    H180878   4.107   5.100   6.062  0.6770 -1.3429  0.0233
19821TIP3    H280879   4.166   5.173   5.943 -0.1998 -1.0593 -0.2451
19822TIP3   OH280880   0.142   4.696  15.783  0.2513 -0.1622  0.0145
19822TIP3    H180881   0.181   4.673  15.699  0.7826 -2.7877  0.9055
19822TIP3    H280882   0.215   4.700  15.845 -0.2054  1.0966  0.5223
19823TIP3   OH280883   2.510   6.733  11.674 -0.3214  0.4412 -0.0070
19823TIP3    H180884   2.458   6.684  11.610 -3.8868  3.0269  0.6009
19823TIP3    H280885   2.525   6.671  11.745  1.7015 -1.7829 -2.1823
19824TIP3   OH280886   6.013   2.458  14.871  0.3501  0.2667 -0.0282
19824TIP3    H180887   6.045   2.397  14.804 -0.4718 -1.7179  1.2598
19824TIP3    H280888   6.079   2.455  14.940 -1.4954 -2.4690  1.8464
19825TIP3   OH280889   1.601   5.097  12.652  0.0280  0.5243  0.1233
19825TIP3    H180890   1.527   5.156  12.666  0.7165  1.5165 -0.3366
19825TIP3    H280891   1.675   5.155  12.632  0.9175 -0.4532  0.4992
19826TIP3   OH280892   6.500   3.467  15.707 -0.3791 -0.2180  0.0752
19826TIP3    H180893   6.533   3.466  15.617 -0.0151 -1.2773  0.2057
19826TIP3    H280894   6.579   3.454  15.761 -0.8114 -1.3707  0.4554
19827TIP3   OH280895   1.084   0.686   5.911 -0.3489  0.1208 -0.3556
19827TIP3    H180896   1.133   0.723   5.984  0.5670  1.4418 -1.5976
19827TIP3    H280897   1.029   0.758   5.880 -0.3799 -0.2769 -1.2541
19828TIP3   OH280898   5.584   3.790  17.149  0.4376 -0.3751 -0.4544
19828TIP3    H180899   5.541   3.807  17.065 -0.2801  0.0613 -0.0122
19828TIP3    H280900   5.675   3.768  17.126  0.6387  1.1737 -1.2679
19829TIP3   OH280901   2.597   1.343  15.632  0.1652  0.0271  0.4053
19829TIP3    H180902   2.507   1.370  15.617  0.6155  1.8851  0.8853
19829TIP3    H280903   2.589   1.261  15.680 -1.2484 -0.0930  0.0251
19830TIP3   OH280904   1.765   2.304  12.850 -0.2550 -0.0889  0.8759
19830TIP3    H180905   1.839   2.363  12.838  0.8269 -1.0912  2.2916
19830TIP3    H280906   1.726   2.329  12.934  0.0420 -1.1731  1.3542
19831TIP3   OH280907   2.814   2.154  16.605 -0.5129  0.1479  0.1674
19831TIP3    H180908   2.739   2.107  16.644  0.4892 -0.9570  0.8294
19831TIP3    H280909   2.891   2.107  16.637  0.4620  0.9784 -0.8746
19832TIP3   OH280910   5.420   5.517   5.859  0.3770 -0.2793 -0.3034
19832TIP3    H180911   5.500   5.499   5.909 -0.8275  1.1796  2.3611
19832TIP3    H280912   5.441   5.595   5.807  0.7637  0.0072  0.2730
19833TIP3   OH280913   6.711   4.676  15.934  0.1720  0.4976 -0.3336
19833TIP3    H180914   6.709   4.587  15.968 -0.1266  0.6516  0.0547
19833TIP3    H280915   6.783   4.676  15.870  0.8124  0.2366  0.3755
19834TIP3   OH280916   5.320   4.549   2.423  0.0369  0.6042  0.4392
19834TIP3    H180917   5.291   4.576   2.511 -0.5465  2.8965 -0.3833
19834TIP3    H280918   5.385   4.480   2.439 -0.5687  0.4652  2.6255
19835TIP3   OH280919   4.084   4.574  13.234 -0.2377 -0.2104 -0.1168
19835TIP3    H180920   4.046   4.487  13.228  0.2754 -0.3479 -1.9733
19835TIP3    H280921   4.133   4.585  13.153  0.4677  1.4652  0.4766
19836TIP3   OH280922   2.565   1.196  15.293  0.2437 -0.3419 -0.0085
19836TIP3    H180923   2.631   1.198  15.223 -0.0833 -0.8321 -0.3415
19836TIP3    H280924   2.613   1.172  15.372  0.6079  0.1525 -0.0796
19837TIP3   OH280925   4.452   1.445   1.432 -0.3271 -0.4853 -0.0224
19837TIP3    H180926   4.406   1.508   1.377 -1.0158 -0.9615 -0.0166
19837TIP3    H280927   4.389   1.426   1.502  0.7928  0.6779  1.3826
19838TIP3   OH280928   3.050   6.490  10.552  0.0348  0.3155  0.1872
19838TIP3    H180929   3.010   6.502  10.638 -0.0727  1.4958 -0.0127
19838TIP3    H280930   3.024   6.567  10.502 -1.0668 -1.0031 -1.3797
19839TIP3   OH280931   1.044   1.157  13.118  0.5247 -0.1836 -0.0761
19839TIP3    H180932   1.095   1.213  13.060 -1.4761  1.8889 -0.0059
19839TIP3    H280933   1.055   1.069  13.084  0.8275  0.7429 -2.5268
19840TIP3   OH280934   6.406   1.414   1.227 -0.2325  0.1508 -0.4131
19840TIP3    H180935   6.353   1.465   1.165 -1.8114 -0.6564  0.2230
19840TIP3    H280936   6.450   1.348   1.172  0.7471  1.2828 -1.0459
19841TIP3   OH280937   1.564   2.583   5.525 -0.7095  0.0203  0.1691
19841TIP3    H180938   1.590   2.629   5.605 -0.0812  1.0147 -0.5947
19841TIP3    H280939   1.471   2.561   5.540 -0.3893 -0.5683  1.5096
19842TIP3   OH280940   6.054   5.879   0.952 -0.0016 -0.4217 -0.2086
19842TIP3    H180941   6.143   5.851   0.974  0.2507  0.5639  0.0677
19842TIP3    H280942   6.054   5.883   0.856  1.0172  1.8760 -0.1737
19843TIP3   OH280943   2.962   0.482  16.948 -0.0329 -0.2211 -0.3701
19843TIP3    H180944   3.002   0.398  16.926  0.2670 -0.2094  0.1183
19843TIP3    H280945   2.949   0.478  17.043 -0.2298  0.1914 -0.3793
19844TIP3   OH280946   1.450   6.615   2.172 -0.3701 -0.0473  0.2000
19844TIP3    H180947   1.485   6.622   2.261  0.0568 -0.6758  0.0886
19844TIP3    H280948   1.513   6.560   2.125 -1.0246 -0.4225 -0.2627
19845TIP3   OH280949   4.339   2.935  15.715 -0.2512 -0.4166 -0.6488
19845TIP3    H180950   4.324   2.967  15.626  1.6420 -1.7050 -1.4905
19845TIP3    H280951   4.332   2.840  15.707 -0.0033 -0.5461  0.5908
19846TIP3   OH280952   1.713   0.491   6.132  0.0039  0.1303 -0.4056
19846TIP3    H180953   1.681   0.401   6.131  0.0293  0.0321  2.0765
19846TIP3    H280954   1.804   0.484   6.102 -0.4085 -0.4260 -1.6038
19847TIP3   OH280955   0.050   0.071  14.496  0.5852 -0.4909  0.4989
19847TIP3    H180956   0.080   0.152  14.456 -0.6306 -0.5955 -0.6814
19847TIP3    H280957   0.110   0.004  14.464 -0.4238 -0.5869 -1.2978
19848TIP3   OH280958   2.301   0.382  14.706 -0.1011 -0.6625  0.0204
19848TIP3    H180959   2.242   0.448  14.741  1.8540  1.3356 -0.2699
19848TIP3    H280960   2.272   0.368  14.616 -1.5167 -1.4495  0.5724
19849TIP3   OH280961   6.058   6.197  15.755 -0.0219 -0.0891  0.0549
19849TIP3    H180962   5.988   6.220  15.817  0.1100  0.0693  0.1443
19849TIP3    H280963   6.077   6.279  15.709 -1.9046 -0.7131 -2.0173
19850TIP3   OH280964   0.934   5.457  13.830  0.4865  0.0513  0.0856
19850TIP3    H180965   0.889   5.526  13.880  1.9293  0.7396  0.5049
19850TIP3    H280966   1.023   5.457  13.866  0.3941 -2.4044  0.4333
19851TIP3   OH280967   1.580   4.837  13.174  0.2125  0.1876 -0.1953
19851TIP3    H180968   1.657   4.852  13.229  0.1272  0.2027 -0.0803
19851TIP3    H280969   1.600   4.882  13.092  0.9508 -1.0208 -0.7130
19852TIP3   OH280970   0.991   2.665   2.477 -0.7420  0.3334  0.1984
19852TIP3    H180971   0.951   2.610   2.410 -1.7509  0.9707  0.2674
19852TIP3    H280972   0.921   2.683   2.539 -0.0304  0.4389  0.9978
19853TIP3   OH280973   5.656   4.253  11.081  0.0827 -0.4235 -0.5665
19853TIP3    H180974   5.638   4.179  11.023  1.1257 -0.0297 -1.4398
19853TIP3    H280975   5.722   4.220  11.142 -1.2048 -0.9191  0.6190
19854TIP3   OH280976   5.280   2.951   4.485  0.6001  0.1486  0.1726
19854TIP3    H180977   5.307   2.862   4.505  0.3112  0.2091  0.8614
19854TIP3    H280978   5.291   2.999   4.567 -0.6400  0.3976  0.2208
19855TIP3   OH280979   2.789   1.913   1.591  0.0398 -0.0652 -0.2191
19855TIP3    H180980   2.847   1.984   1.565 -0.1741  0.2730  0.2300
19855TIP3    H280981   2.834   1.869   1.662 -0.3662  0.3607  0.3095
19856TIP3   OH280982   0.209   4.705  16.486  0.2406 -0.0661  0.3942
19856TIP3    H180983   0.278   4.673  16.544  3.0114  0.1942 -2.5107
19856TIP3    H280984   0.223   4.800  16.483 -1.9742  0.3800  1.6982
19857TIP3   OH280985   4.087   2.023  14.352  0.4683  0.3287  0.0467
19857TIP3    H180986   4.104   2.109  14.313 -1.1814  1.1212  0.9291
19857TIP3    H280987   4.162   1.969  14.327  0.3332  1.2663 -2.6975
19858TIP3   OH280988   4.576   2.667  15.769 -0.1095 -0.2057  0.3415
19858TIP3    H180989   4.505   2.654  15.831  1.1885 -1.1534  1.6844
19858TIP3    H280990   4.648   2.615  15.803  0.4976 -1.2880 -2.3021
19859TIP3   OH280991   1.580   6.013  12.301 -0.3052  0.3512  0.1619
19859TIP3    H180992   1.669   6.044  12.286  0.5526 -1.7733  0.4069
19859TIP3    H280993   1.551   5.981  12.215 -0.0727 -0.6616  0.4397
19860TIP3   OH280994   0.729   5.255   0.835  0.0677 -0.3386  0.2888
19860TIP3    H180995   0.757   5.327   0.779 -1.6203 -0.2057 -0.4662
19860TIP3    H280996   0.787   5.182   0.813  1.3918  0.5897  0.6178
19861TIP3   OH280997   2.869   2.399   1.371 -0.2325 -0.5356  0.6590
19861TIP3    H180998   2.803   2.442   1.316  0.4523 -0.7379 -0.3544
19861TIP3    H280999   2.834   2.312   1.386 -0.0485 -0.7717 -0.1942
19862TIP3   OH281000   0.044   3.746   3.709 -0.1398 -0.0643 -0.3419
19862TIP3    H181001   0.138   3.755   3.697 -0.0220 -0.4365  0.2458
19862TIP3    H281002   0.034   3.665   3.761 -0.7111  0.4845  0.4293
19863TIP3   OH281003   4.394   4.062   0.062 -0.0546 -0.3905  0.4484
19863TIP3    H181004   4.476   4.066   0.013  0.7566 -1.7527  1.6197
19863TIP3    H281005   4.396   4.139   0.119  0.7021 -0.7309  0.8912
19864TIP3   OH281006   0.480   5.449  10.911  0.0622  0.2671 -0.1654
19864TIP3    H181007   0.458   5.451  10.818 -0.7707  1.9222  0.0188
19864TIP3    H281008   0.530   5.529  10.925  1.7268 -0.8341  0.5020
19865TIP3   OH281009   5.980   0.949  12.032  0.2526  0.8730 -0.0543
19865TIP3    H181010   6.065   0.908  12.017  1.1013  2.2933  0.6038
19865TIP3    H281011   5.968   1.009  11.959 -0.9470 -0.4066 -0.9727
19866TIP3   OH281012   1.489   6.538  11.159 -0.1445 -0.7150  0.0914
19866TIP3    H181013   1.397   6.523  11.138  0.1621 -2.3571 -0.2075
19866TIP3    H281014   1.536   6.516  11.078  0.4911  0.8173 -0.0001
19867TIP3   OH281015   6.561   0.034   3.632  1.0396 -0.4923 -0.3009
19867TIP3    H181016   6.588   0.048   3.722  0.9290 -0.5357 -0.2604
19867TIP3    H281017   6.520   0.116   3.606  1.4477 -0.3312 -0.4508
19868TIP3   OH281018   2.659   0.503  16.201 -0.0712  0.0170 -0.3486
19868TIP3    H181019   2.669   0.519  16.107 -0.5631  0.0644 -0.3989
19868TIP3    H281020   2.616   0.583  16.234  0.2867  0.0873 -0.0482
19869TIP3   OH281021   2.009   0.810  11.669  0.5023  0.0325  0.1839
19869TIP3    H181022   1.977   0.740  11.612 -1.2283  0.9622 -0.0609
19869TIP3    H281023   1.932   0.837  11.719  1.4602  0.8122  1.3064
19870TIP3   OH281024   0.501   3.261   5.759 -0.3212  1.0330 -0.4667
19870TIP3    H181025   0.502   3.262   5.855  1.1907  2.7151 -0.4491
19870TIP3    H281026   0.592   3.275   5.734 -0.8888  2.0306 -2.1463
19871TIP3   OH281027   6.309   2.295   3.816 -0.5802  0.0456  0.0557
19871TIP3    H181028   6.295   2.387   3.793  0.1089  0.1465  0.0124
19871TIP3    H281029   6.401   2.279   3.795 -0.2744 -0.2197  1.5380
19872TIP3   OH281030   2.144   1.608   6.499  0.2332 -0.0152  0.2285
19872TIP3    H181031   2.127   1.689   6.548 -2.0885 -0.9259  1.0719
19872TIP3    H281032   2.217   1.568   6.545 -0.1034  0.5000  1.2602
19873TIP3   OH281033   4.861   4.906   1.317  0.3800  0.0698 -0.0967
19873TIP3    H181034   4.893   4.869   1.235 -0.6172 -2.3676  0.5150
19873TIP3    H281035   4.936   4.902   1.376  0.5320 -0.1172 -0.3012
19874TIP3   OH281036   3.539   2.281   3.654 -0.2865 -0.1055  0.0647
19874TIP3    H181037   3.556   2.211   3.717  2.0716  0.6516  0.3571
19874TIP3    H281038   3.598   2.263   3.581 -2.5206 -0.6067 -1.7293
19875TIP3   OH281039   6.016   3.833   3.947  0.0566 -0.0953  0.3545
19875TIP3    H181040   6.034   3.914   3.994  1.0969  0.4828 -0.9974
19875TIP3    H281041   6.097   3.812   3.902 -0.2180 -1.8553  0.5905
19876TIP3   OH281042   2.758   6.479   1.360  0.4201  0.4193 -0.0512
19876TIP3    H181043   2.824   6.496   1.427  0.4381 -1.3292  0.4396
19876TIP3    H281044   2.700   6.414   1.400 -0.1593  0.0892 -1.3700
19877TIP3   OH281045   1.911   5.462   1.769  0.3819 -0.0437 -0.3755
19877TIP3    H181046   1.876   5.471   1.858  1.1583  0.5327 -0.1193
19877TIP3    H281047   1.834   5.473   1.713  0.0092  0.4078  0.2041
19878TIP3   OH281048   2.514   5.618   6.015  0.4189  0.4932  0.5524
19878TIP3    H181049   2.577   5.607   6.086 -1.8069  1.7085  2.8822
19878TIP3    H281050   2.433   5.581   6.050 -0.3551 -0.6301 -2.1631
19879TIP3   OH281051   2.301   4.436  15.170 -0.2090 -0.2236 -0.9401
19879TIP3    H181052   2.337   4.372  15.231 -0.3823 -1.0586 -1.6838
19879TIP3    H281053   2.237   4.486  15.221  0.0690 -0.5220 -0.2984
19880TIP3   OH281054   3.237   0.462   4.486 -0.1888  0.1351 -0.3052
19880TIP3    H181055   3.324   0.463   4.445 -0.1000  0.2637 -0.1185
19880TIP3    H281056   3.236   0.380   4.536 -1.1219 -1.1238 -2.2873
19881TIP3   OH281057   4.941   6.012  15.103  0.1148  0.1454 -0.1342
19881TIP3    H181058   4.899   5.929  15.124  1.3393 -0.1545  1.2395
19881TIP3    H281059   5.007   5.990  15.037  1.6319 -0.3404  1.4679
19882TIP3   OH281060   4.644   3.584  16.148  0.5108  0.1539 -0.5658
19882TIP3    H181061   4.647   3.672  16.185 -1.2252 -0.2800  0.7867
19882TIP3    H281062   4.609   3.596  16.060 -2.8535  0.6826  0.6668
19883TIP3   OH281063   1.322   0.207  17.168 -0.3279 -0.0634 -0.5328
19883TIP3    H181064   1.370   0.276  17.124 -1.7079  0.7713 -0.7947
19883TIP3    H281065   1.380   0.177  17.237  1.0849 -0.0280 -1.6658
19884TIP3   OH281066   3.687   3.359   2.279  0.6851  0.3544  0.0283
19884TIP3    H181067   3.714   3.316   2.360  0.1078 -1.9173 -0.9135
19884TIP3    H281068   3.761   3.347   2.220 -0.2171 -1.1885 -0.8646
19885TIP3   OH281069   4.806   3.133   1.949 -0.1878  0.2331 -0.1646
19885TIP3    H181070   4.842   3.046   1.961 -2.0751 -0.6263 -0.3459
19885TIP3    H281071   4.761   3.130   1.865 -1.7731  0.8022  0.6200
19886TIP3   OH281072   0.944   6.554   5.027  0.7208  0.1714 -0.1250
19886TIP3    H181073   0.923   6.463   5.050 -0.0009  0.2554 -0.4142
19886TIP3    H281074   0.893   6.606   5.089  1.9949  0.3966  0.7816
19887TIP3   OH281075   3.822   1.085  12.724  0.7167  0.0810  0.0234
19887TIP3    H181076   3.903   1.060  12.768  0.6617 -3.0598 -1.3474
19887TIP3    H281077   3.759   1.017  12.750 -0.2058 -0.0398 -2.2958
19888TIP3   OH281078   1.321   5.519   2.624  0.6615 -0.5498  0.1277
19888TIP3    H181079   1.269   5.531   2.704 -0.4522 -0.3359 -0.6137
19888TIP3    H281080   1.269   5.459   2.571  0.8042  0.2755 -0.9665
19889TIP3   OH281081   0.607   3.011   4.881 -0.0000 -0.2714  0.0626
19889TIP3    H181082   0.552   3.081   4.915  1.3249  0.7185  0.2591
19889TIP3    H281083   0.686   3.056   4.850 -0.2973 -1.3494 -2.4976
19890TIP3   OH281084   4.314   5.903   3.095 -0.1465 -0.7953 -0.0397
19890TIP3    H181085   4.326   5.983   3.043 -0.2889 -1.4209 -1.0439
19890TIP3    H281086   4.242   5.925   3.155  1.9946  1.0055  2.1161
19891TIP3   OH281087   0.034   3.289   5.272  0.1020 -0.1835 -0.3567
19891TIP3    H181088  -0.058   3.268   5.256  0.1735 -0.2595 -0.6763
19891TIP3    H281089   0.032   3.358   5.338 -0.2351  0.6864 -1.2401
19892TIP3   OH281090   1.945   3.756   2.825 -0.1254  0.2613  0.7087
19892TIP3    H181091   1.979   3.729   2.911  2.1253  1.8638  0.3815
19892TIP3    H281092   1.956   3.679   2.770  1.5928  0.2369  1.0327
19893TIP3   OH281093   5.505   5.360  10.980 -0.6690 -0.1527  0.2899
19893TIP3    H181094   5.538   5.359  10.891 -1.5331 -0.1293 -0.0388
19893TIP3    H281095   5.414   5.388  10.972 -0.5166  0.6776  1.2623
19894TIP3   OH281096   0.152   2.576   3.692  0.6312  0.2942  0.4978
19894TIP3    H181097   0.090   2.551   3.624  1.8420  1.2531 -1.0118
19894TIP3    H281098   0.131   2.518   3.765  0.5430 -2.1288 -1.3271
19895TIP3   OH281099   5.757   1.661  14.792 -0.0548  0.3669  0.5387
19895TIP3    H181100   5.837   1.671  14.844  0.1552 -0.2679  0.3540
19895TIP3    H281101   5.788   1.655  14.701 -0.2423 -0.5288  0.5175
19896TIP3   OH281102   2.813   0.017   1.772 -0.0382  0.0678  0.0520
19896TIP3    H181103   2.884   0.011   1.836 -0.1318 -0.2545  0.1263
19896TIP3    H281104   2.741   0.059   1.819  0.4451  1.3526 -0.3210
19897TIP3   OH281105   2.906   3.509   5.431  0.0003 -0.0251 -0.2124
19897TIP3    H181106   2.931   3.429   5.476  0.8665  0.5948  0.4324
19897TIP3    H281107   2.864   3.479   5.350  1.7387 -1.1199 -0.7444
19898TIP3   OH281108   6.404   0.823   4.104 -0.5741 -0.1832 -0.5179
19898TIP3    H181109   6.438   0.814   4.193  2.1874  1.2979 -1.3207
19898TIP3    H281110   6.462   0.769   4.050 -0.5146  1.0683 -1.7541
19899TIP3   OH281111   3.993   3.854   1.273 -0.0795 -0.7247 -0.0945
19899TIP3    H181112   4.064   3.887   1.329 -0.3265 -0.9933  0.3799
19899TIP3    H281113   3.949   3.933   1.242  1.1297 -0.5104 -1.3203
19900TIP3   OH281114   0.328   6.690   0.200  0.9444 -0.7225 -0.7740
19900TIP3    H181115   0.335   6.684   0.295 -1.8687  1.8329 -0.2442
19900TIP3    H281116   0.269   6.619   0.176  0.1674 -0.2589 -0.2960
19901TIP3   OH281117   6.333   0.373   3.306  0.0097 -0.4626 -0.4017
19901TIP3    H181118   6.296   0.449   3.260 -0.5157  0.5402  1.5883
19901TIP3    H281119   6.418   0.403   3.337  1.0222 -1.6163 -1.8812
19902TIP3   OH281120   6.266   5.714  10.078  0.5837  0.1614 -0.4712
19902TIP3    H181121   6.306   5.739  10.161 -0.2775 -1.6685  0.5486
19902TIP3    H281122   6.186   5.766  10.072 -0.5000 -1.2638  0.9646
19903TIP3   OH281123   1.189   4.343   2.183 -0.2642  0.4197 -0.2196
19903TIP3    H181124   1.276   4.365   2.215  0.0058 -1.2214  0.2334
19903TIP3    H281125   1.203   4.273   2.120 -1.3159 -0.4058  0.4386
19904TIP3   OH281126   4.917   4.265  12.303 -0.5740  0.5902  0.2013
19904TIP3    H181127   4.921   4.352  12.262  0.6732  0.8506  0.8350
19904TIP3    H281128   4.973   4.272  12.380  0.7378 -1.1931 -0.5343
19905TIP3   OH281129   4.506   4.595  13.259  0.5121  0.4583 -0.2183
19905TIP3    H181130   4.440   4.600  13.328  0.1029  0.1466 -0.5798
19905TIP3    H281131   4.514   4.685  13.226 -1.7934  0.0738 -2.0597
19906TIP3   OH281132   4.716   6.749   1.816  0.4031 -0.1916  0.0910
19906TIP3    H181133   4.804   6.728   1.847 -0.2988 -1.4143  1.3873
19906TIP3    H281134   4.662   6.677   1.847 -1.0345  0.4375 -0.8474
19907TIP3   OH281135   3.010   1.590  11.647 -0.3159  0.2468 -0.4560
19907TIP3    H181136   2.962   1.507  11.654 -1.3966  0.8013 -1.0511
19907TIP3    H281137   3.083   1.570  11.589  0.3003 -0.6585  0.6061
19908TIP3   OH281138   5.713   6.502   2.245  0.2542  0.1608 -0.4120
19908TIP3    H181139   5.697   6.596   2.250 -1.4800 -0.1299  0.4774
19908TIP3    H281140   5.702   6.471   2.335  1.4257 -0.8117 -0.5871
19909TIP3   OH281141   0.224   6.355   4.564 -0.0491 -0.3589 -0.1723
19909TIP3    H181142   0.206   6.267   4.531  1.6012 -1.4487  1.6081
19909TIP3    H281143   0.286   6.392   4.501  2.0311 -1.9048  0.8200
19910TIP3   OH281144   0.275   3.247   3.547 -0.4131  0.2129  0.4594
19910TIP3    H181145   0.180   3.238   3.559 -0.4528 -0.7166 -0.4222
19910TIP3    H281146   0.312   3.224   3.633 -0.9791  0.6679  0.8341
19911TIP3   OH281147   6.532   0.907   0.446  0.4638 -0.1066  0.1617
19911TIP3    H181148   6.540   0.984   0.391  1.3360 -0.6022 -0.4192
19911TIP3    H281149   6.491   0.939   0.526 -1.0341  0.5904 -0.8338
19912TIP3   OH281150   3.201   4.999  15.460 -0.1678 -0.3687  0.2237
19912TIP3    H181151   3.166   5.011  15.549 -0.8369  1.0789 -0.2011
19912TIP3    H281152   3.190   4.906  15.443 -1.1831 -0.4576  1.2034
19913TIP3   OH281153   3.039   4.345   5.768 -0.7305 -0.1123 -0.2276
19913TIP3    H181154   2.979   4.302   5.828 -0.7822  0.1533 -0.0866
19913TIP3    H281155   3.060   4.278   5.703 -0.4334 -0.4996  0.2566
19914TIP3   OH281156   3.670   0.675  16.737 -0.5036  0.7714  0.1819
19914TIP3    H181157   3.687   0.616  16.810 -1.8232  0.2905  0.1208
19914TIP3    H281158   3.745   0.734  16.737  0.3462 -0.2556  0.8801
19915TIP3   OH281159   0.547   6.604  11.964 -0.6163 -0.1523  0.1114
19915TIP3    H181160   0.572   6.519  11.930  1.4330 -1.0258  3.2914
19915TIP3    H281161   0.615   6.664  11.932 -0.2359 -0.3965  0.4559
19916TIP3   OH281162   1.202   0.120  14.557  0.0637  0.1137 -0.5063
19916TIP3    H181163   1.129   0.082  14.607  0.6993  0.9866  1.1612
19916TIP3    H281164   1.277   0.066  14.581  0.5884  1.1928  0.3556
19917TIP3   OH281165   2.039   5.314  11.405 -0.3992  0.0292  0.3046
19917TIP3    H181166   2.018   5.221  11.409 -0.0408 -0.0523  0.3852
19917TIP3    H281167   2.118   5.319  11.351 -0.8396  0.3656 -0.3271
19918TIP3   OH281168   0.632   5.658  12.437  0.1148  0.0246  0.3564
19918TIP3    H181169   0.683   5.600  12.379 -0.5151 -0.6844  0.4970
19918TIP3    H281170   0.551   5.674  12.389  0.8271  1.9624 -0.3131
19919TIP3   OH281171   0.736   4.350  11.899  0.1628  0.3845 -0.5285
19919TIP3    H181172   0.783   4.279  11.941 -0.7830  0.1018  0.0806
19919TIP3    H281173   0.802   4.418  11.884  0.4496  0.6989  1.8965
19920TIP3   OH281174   6.126   6.052   5.834 -0.3155  0.2100  0.5264
19920TIP3    H181175   6.159   5.987   5.896  0.8384 -0.4591 -0.7171
19920TIP3    H281176   6.180   6.130   5.850 -0.0321  0.0453  0.3799
19921CLA    CLA81177   3.725   3.559  15.020 -0.4189  0.3077  0.1530
19922LIG     O181178   3.509   3.353  16.473  0.1616 -0.0701  0.7426
19922LIG     O281179   3.641   2.962  15.839  0.2626 -0.2071  0.5296
19922LIG     O381180   3.551   3.371  16.690 -0.6453  0.2633  0.1585
19922LIG     O481181   3.258   3.459  16.498 -0.4279  0.2456  0.1738
19922LIG      N81182   3.755   3.050  16.318 -0.7772  0.4697  0.1236
19922LIG     C181183   3.795   3.189  16.282 -0.4162  0.1772 -0.0720
19922LIG     C281184   3.702   3.026  16.459 -0.0793 -0.2453  0.0492
19922LIG     C381185   3.678   3.291  16.310 -0.0470 -0.2506  0.3086
19922LIG     C481186   3.583   3.122  16.485  0.0519  0.4122 -0.0730
19922LIG     C581187   3.626   3.270  16.455 -0.2366  0.1751 -0.6143
19922LIG     C681188   3.655   3.001  16.219 -0.2048  1.1206  0.0423
19922LIG     C781189   3.874   2.964  16.308 -0.3055  0.0217  0.2100
19922LIG     C881190   3.704   3.002  16.063  0.1813 -0.5833  0.1851
19922LIG     C981191   3.592   2.953  15.973  0.2282  0.4826  0.4272
19922LIG    C1081192   3.485   3.399  16.594 -0.4636  0.1578  0.0165
19922LIG    C1181193   3.350   3.484  16.604  0.2933  0.1389 -0.9928
19922LIG    C1281194   3.389   3.637  16.589  0.1460 -0.4412  0.2235
19922LIG    C1381195   3.292   3.445  16.740  0.2349 -0.0577 -0.1505
19922LIG    C1481196   3.759   2.895  15.818  0.4286  0.1202  0.2280
19922LIG    C1581197   3.292   3.736  16.609 -0.6499 -0.1160 -0.7629
19922LIG    C1681198   3.314   3.530  16.854  0.2482  0.5553 -0.1647
19922LIG    C1781199   3.529   3.674  16.593 -0.2779  0.1611 -0.3689
19922LIG    C1881200   3.240   3.313  16.763  0.0812  0.1818 -0.0755
19922LIG    C1981201   3.754   2.755  15.819  0.5411  0.4887 -0.1599
19922LIG    C2081202   3.879   2.966  15.799 -0.0785 -0.1260  0.9476
19922LIG    C2181203   3.337   3.870  16.615 -0.0301 -0.1888 -1.1465
19922LIG    C2281204   3.282   3.482  16.981  0.2920  0.6052  0.6923
19922LIG    C2381205   3.570   3.808  16.592  0.6099 -0.0007 -0.6538
19922LIG    C2481206   3.191   3.277  16.887  0.1402 -0.5873  0.1951
19922LIG    C2581207   3.466   3.903  16.602 -0.0407 -0.0452  0.1974
19922LIG    C2681208   3.222   3.354  16.995 -0.2386 -0.8907 -0.1304
19922LIG    C2781209   3.872   2.683  15.790  0.0880  0.1704  0.4332
19922LIG    C2881210   4.001   2.892  15.778  0.5132  0.2778  0.6314
19922LIG    C2981211   3.995   2.751  15.769  0.9665  0.6867  0.3291
19922LIG     H181212   3.828   3.187  16.179 -0.4763 -1.3531 -0.0877
19922LIG     H281213   3.882   3.217  16.340  0.5084 -0.7088 -0.9689
19922LIG     H381214   3.781   3.033  16.532 -1.1233  0.7123  1.1307
19922LIG     H481215   3.664   2.925  16.461  0.1745 -0.4060 -1.7936
19922LIG     H581216   3.594   3.265  16.243  0.1609  1.0000 -0.4744
19922LIG     H681217   3.708   3.397  16.296 -0.2340 -0.1967  0.3163
19922LIG     H781218   3.557   3.114  16.592 -0.0637  1.5574 -0.0003
19922LIG     H881219   3.485   3.098  16.438 -0.4740  2.0814  0.0890
19922LIG     H981220   3.707   3.295  16.528 -1.3686  0.1898  0.6683
19922LIG    H1081221   3.567   3.063  16.225 -0.1698  1.0793  1.1703
19922LIG    H1181222   3.624   2.898  16.230 -0.5788  0.7648 -3.3422
19922LIG    H1281223   3.855   2.858  16.324 -0.7476  0.1542  0.5703
19922LIG    H1381224   3.949   3.001  16.376 -0.6025  1.3489 -0.1635
19922LIG    H1481225   3.918   2.966  16.209 -1.2201  0.7952 -0.1935
19922LIG    H1581226   3.789   2.932  16.045 -0.3230 -0.5057 -3.2242
19922LIG    H1681227   3.734   3.101  16.023 -2.2361  0.0602 -0.1741
19922LIG    H1781228   3.568   2.849  16.005  0.1270 -0.3299 -2.0917
19922LIG    H1881229   3.500   3.012  15.988  1.2858  2.1657  0.5751
19922LIG    H1981230   3.302   3.499  16.424  0.0287  1.6166  1.1443
19922LIG    H2081231   3.187   3.710  16.614 -0.5090 -0.4293  1.8229
19922LIG    H2181232   3.350   3.632  16.849  2.3163 -0.1286 -0.2136
19922LIG    H2281233   3.606   3.599  16.584  0.8438  0.8788  2.2967
19922LIG    H2381234   3.232   3.239  16.686 -0.2846 -1.0194  1.0775
19922LIG    H2481235   3.658   2.713  15.842  0.4092  0.7892 -0.1584
19922LIG    H2581236   3.883   3.073  15.787  1.0552 -0.1130  1.3527
19922LIG    H2681237   3.261   3.945  16.631 -0.2186 -0.4560 -0.7712
19922LIG    H2781238   3.297   3.545  17.068 -0.3821 -0.1446  1.3718
19922LIG    H2881239   3.671   3.847  16.587  0.0377  1.3776 -2.4722
19922LIG    H2981240   3.166   3.173  16.901 -0.3134 -0.4190  0.6586
19922LIG    H3081241   3.493   4.007  16.589 -1.1397 -0.0530 -3.0735
19922LIG    H3181242   3.196   3.303  17.086 -0.7635  0.6515  0.6222
19922LIG    H3281243   3.867   2.578  15.767  0.2855  0.2010  0.2482
19922LIG    H3381244   4.091   2.938  15.739 -0.4692 -0.4510 -2.8298
19922LIG    H3481245   4.081   2.691  15.744  0.3740  0.0059 -0.0952
   6.79708   6.79708  17.18594
